72
Lattice="7.395 0 0 3.6975 6.40425786098592 0 0 0 13.6 " PBC="1 1 1" Properties=species:S:1:pos:R:3:force:R:3 Energy="-582.48683258"
C     3.685839822825000e+00   6.236561535382378e+00   7.561844799999999e-02 -1.99126660e-01   6.17692890e-01   7.11958020e-01
C     1.255045309050000e+00   5.165528372796793e-01   9.198972000000000e-02 -1.31772282e+00   1.60200366e+00  -1.61610180e-01
C     1.326311330775000e+00   9.255033193155751e-01   3.365557184000000e+00 -3.64275660e-01  -6.22200050e-01  -2.14026900e-02
C     2.552504862450000e+00   1.617043984956801e+00   3.284521992000000e+00  1.49337420e-01   8.62399210e-01   4.52653890e-01
C     6.194118000375000e+00   6.245024762144369e+00   1.350776480000000e-01 -2.43086015e+00  -3.99455180e-01  -2.06791790e-01
C     3.683861512425000e+00   5.329460082516571e-01   7.440560000000000e-02  9.37968030e-01   8.76186600e-01   7.19194000e-01
C     3.788235947475000e+00   9.212151563376763e-01   3.322234384000000e+00  4.55110010e-01  -1.94044310e-01   8.99333500e-02
C     5.044009257299999e+00   1.612762610492233e+00   3.337869488000000e+00 -1.06637936e+00   1.68681640e-01   8.69293210e-01
C     8.598277461975000e+00   6.231420197172371e+00   1.559155680000000e-01  1.22379090e-01   4.86019750e-01   3.31880000e-04
C     6.107075448675000e+00   5.232561099391627e-01   1.576930880000000e-01  2.43793703e+00   3.64139560e-01  -5.57958610e-01
C     6.268975810574999e+00   8.815606320943422e-01   3.432937976000000e+00 -1.04050087e+00   1.66760238e+00  -1.51266610e-01
C     7.467172205024999e+00   1.599563242915037e+00   3.396493784000000e+00  1.87629488e+00   1.61469110e+00  -1.91829710e-01
C     1.232986282875000e+00   1.961603240594798e+00   4.942906400000000e-02 -7.58796530e-01   2.90483700e-01   1.93940580e-01
C     2.454006309525000e+00   2.681429655968864e+00   1.213963200000000e-02  2.92774200e-01  -3.23069200e-02   5.87248910e-01
C     2.544217692675000e+00   3.046373600332663e+00   3.301621000000000e+00  1.32319375e+00  -2.99712620e-01  -2.11399500e-02
C     3.783989849399999e+00   3.750402953056359e+00   3.325980096000000e+00 -1.20433390e-01   9.85289730e-01   9.72330810e-01
C     3.687001096650000e+00   1.943586974510782e+00   9.441908800000000e-02 -2.75300060e-01   1.33273577e+00  -1.00096145e+00
C     4.914251410799999e+00   2.670580907196602e+00   8.481368000000000e-02  2.42255090e-01   9.45267400e-02   6.19965260e-01
C     5.001473661000000e+00   3.042936371096622e+00   3.433864272000000e+00  1.03165069e+00  -6.54041460e-01  -1.22434889e+00
C     6.242391857850000e+00   3.738372810836665e+00   3.400727600000000e+00  1.29264693e+00   9.12975810e-01  -7.84351700e-02
C     6.138265525050000e+00   1.925170890608566e+00   1.394354960000000e-01  3.92825130e-01   2.35277323e+00  -2.88015900e-01
C     7.379040480750001e+00   2.703718970982230e+00   1.107652000000000e-01 -4.75318400e-02  -1.26435276e+00  -4.24770940e-01
C     7.524119731950000e+00   3.053643521727599e+00   3.341036792000000e+00 -2.31804724e+00  -1.01437964e+00   5.20372750e-01
C     8.744408577974999e+00   3.763729381109498e+00   3.337409536000000e+00 -1.08473269e+00   5.41229820e-01  -7.41192100e-02
C     2.450903885175000e+00   4.114681943326555e+00   5.325556000000000e-02 -5.51330030e-01  -1.53775000e-02   5.69412220e-01
C     3.668478063675000e+00   4.840606364949756e+00   8.504923199999999e-02  1.02898397e+00  -1.54288700e+00  -9.06103900e-02
C     3.800361713850000e+00   5.203731307953579e+00   3.430408104000000e+00 -2.45947190e-01  -1.23427090e+00  -3.19398990e-01
C     5.028748528574999e+00   5.913771312849200e+00   3.390966744000000e+00  3.10949740e-01  -8.76430420e-01   9.89724900e-02
C     4.922202108075000e+00   4.109168389649724e+00   1.293791120000000e-01 -7.29510430e-01   1.18605740e-01  -2.22507420e-01
C     6.139861070249999e+00   4.844578349717106e+00   1.959422720000000e-01  3.88183840e-01  -1.24525746e+00  -9.21931340e-01
C     6.266766406425000e+00   5.175021084009777e+00   3.364000392000000e+00 -7.74392090e-01   5.15492900e-02   3.65050230e-01
C     7.485039819150000e+00   5.906756793257721e+00   3.383221408000000e+00  4.03193320e-01  -7.27482470e-01  -4.62744720e-01
C     7.368509335200001e+00   4.145751752036294e+00   9.787743200000000e-02  3.64962510e-01  -1.49450937e+00   1.06808358e+00
C     8.609570588324999e+00   4.845629992900297e+00   1.925531520000000e-01  1.11002910e-01  -1.95292575e+00  -1.46789380e+00
C     8.727044600325000e+00   5.195053474510701e+00   3.378172816000000e+00 -2.01883480e-01  -2.55628310e-01   5.00283330e-01
C     9.953500284750000e+00   5.899910641605381e+00   3.477862720000000e+00  3.04460280e-01  -1.16829068e+00  -7.63574090e-01
C     7.416285952875000e+00   1.457017975935522e-01   6.754257352000000e+00  8.64009710e-01  -1.19421451e+00  -3.15953800e-02
C     1.258580969475000e+00   8.531681233829755e-01   6.735752103999999e+00 -1.70118820e-01  -9.76474460e-01   3.12896100e-02
C     1.126800294675000e+00   5.386829424426450e-01   1.019892628000000e+01  4.45181670e-01   4.36379920e-01  -5.99177620e-01
C     2.344089100125000e+00   1.244347366240579e+00   1.007447744000000e+01  8.46151390e-01   4.35241200e-01   1.67929900e-01
C     2.490913386450000e+00   1.508835466706568e-01   6.786337848000001e+00 -3.21829010e-01  -1.20046151e+00  -1.73462690e-01
C     3.720533909025000e+00   8.287919809459290e-01   6.773539295999999e+00  3.09788830e-01   8.50927900e-02   2.14307530e-01
C     3.585244861350000e+00   5.243071126965673e-01   1.003818176000000e+01 -5.35483000e-03   1.30112334e+00   1.21591281e+00
C     4.826915499449999e+00   1.274305395785822e+00   1.017426431200000e+01 -1.18827680e-01  -6.89409880e-01  -8.67154500e-01
C     4.954716924750000e+00   1.334448806030340e-01   6.844781944000000e+00  8.22183690e-01  -2.25070910e-01  -8.19796250e-01
C     6.217352646675000e+00   8.558112886869548e-01   6.762619176000000e+00 -2.01274160e+00  -3.38007880e-01   4.64171910e-01
C     6.057763776900000e+00   5.581867895423821e-01   1.020719208800000e+01  2.78275920e-01  -3.44756720e-01   8.47338000e-03
C     7.314042534975000e+00   1.278105746442525e+00   1.021443313600000e+01 -1.47957948e+00  -5.27114330e-01   2.17940690e-01
C     8.651710737000000e+00   2.237077973504775e+00   6.690977232000000e+00 -2.05132850e-01   2.03800000e+00   5.03340300e-01
C     2.503639294050000e+00   2.942863822031734e+00   6.743687159999999e+00 -1.20808898e+00   1.08264245e+00  -7.57213030e-01
C     2.362364511525000e+00   2.683968944210354e+00   1.007272127200000e+01 -4.19846300e-02  -5.67892510e-01   2.98268020e-01
C     3.577787077800000e+00   3.403054963333225e+00   1.012769111200000e+01  1.33946658e+00  -5.59971930e-01  -1.73667210e-01
C     3.709480491600000e+00   2.232694899425391e+00   6.725307711999999e+00  1.25972257e+00   1.20310143e+00   4.69448320e-01
C     4.956313061550000e+00   2.972586879356094e+00   6.770883760000000e+00 -8.89971990e-01  -1.98755160e-01  -5.77352800e-02
C     4.842007622175000e+00   2.704897034215576e+00   1.014009594400000e+01 -1.52933597e+00  -1.05788546e+00   3.84949800e-01
C     6.049047364350000e+00   3.396029108205334e+00   1.019289563200000e+01  8.39304290e-01   5.05157700e-02   2.42381860e-01
C     6.178552967399999e+00   2.279638878050134e+00   6.771621152000000e+00  7.87038140e-01  -3.88156850e-01  -3.43582290e-01
C     7.411700646149999e+00   2.987509312510523e+00   6.721292176000000e+00  2.04147910e-01  -8.66306830e-01   1.91934050e-01
C     7.289882885100000e+00   2.699965947791112e+00   1.022491656000000e+01  7.83913800e-01  -4.46618290e-01  -7.32148280e-01
C     8.548309151174999e+00   3.399672810714781e+00   1.012010027200000e+01 -1.45468847e+00  -1.35490680e-01   6.50951420e-01
C     9.873204006675000e+00   4.394359854712628e+00   6.714414656000000e+00  8.56711300e-01  -4.27055370e-01   7.80772600e-01
C     3.736117540425000e+00   5.100533032754960e+00   6.761472424000000e+00 -1.49557686e+00   7.20408710e-01  -1.24998400e-01
C     3.610691906775000e+00   4.804194188375782e+00   1.018206921600000e+01 -9.44861880e-01   8.65249500e-01  -1.67915200e-01
C     4.852366649099999e+00   5.526967651089285e+00   1.018395812000000e+01 -1.70029314e+00  -2.51998840e-01   3.04832310e-01
C     4.951643599724999e+00   4.393628872720488e+00   6.790232752000000e+00  2.64714010e-01   1.11585990e-01  -1.63203880e-01
C     6.180719665424999e+00   5.122657822383903e+00   6.800176663999999e+00 -3.19574500e-01  -1.55811600e-01   1.49907100e-02
C     6.048384661425000e+00   4.809152364810995e+00   1.020157868800000e+01  2.49207560e-01   2.62580880e-01  -4.41599750e-01
C     7.252173154874999e+00   5.525616544808560e+00   1.014321496800000e+01  2.01059124e+00  -3.73340950e-01  -1.53366900e-02
C     7.388378369100000e+00   4.391682938969726e+00   6.774080576000000e+00  1.38045019e+00   9.53413400e-01   4.69100900e-02
C     8.646772356000000e+00   5.112836316572385e+00   6.798473127999999e+00 -2.70745120e-01  -2.19183280e-01  -2.62775750e-01
C     8.519120198774999e+00   4.813840665819987e+00   1.016548007200000e+01 -3.17921700e-01   2.61833010e-01  -2.60562000e-01
C     9.745326338924999e+00   5.508236285572621e+00   1.017725073600000e+01  8.22356590e-01   1.32708280e+00   1.11553590e-01
