72
Lattice="7.395 0 0 3.6975 6.40425786098592 0 0 0 13.6 " PBC="1 1 1" Properties=species:S:1:pos:R:3:force:R:3 Energy="-563.35996931"
C     3.629217417075000e+00   6.222436560416677e+00   7.374327999999999e-03 -6.63182800e-01  -6.79901850e-01   1.12191697e+00
C     1.199972969250000e+00   4.213745501565600e-01   1.351557963200000e+01  1.64872400e-02   2.24955570e-01   8.05406090e-01
C     1.350788374050000e+00   1.069273208483080e+00   3.274921752000000e+00  3.09121993e+00  -2.44890352e+00   1.34023418e+00
C     2.743693010925000e+00   1.583323838174278e+00   3.022671672000000e+00 -4.39739220e+00   6.97869578e+00   2.03419504e+00
C     6.142684740075000e+00   6.156063472381422e+00   1.916225040000000e-01 -6.70083260e-01   1.00910780e-01  -1.46498490e-01
C     3.678454769100000e+00   4.223669539545457e-01   1.936982720000000e-01 -2.96112100e-01   2.32714295e+00  -4.31765410e-01
C     3.929823427575000e+00   1.036481294834786e+00   3.419506887999999e+00  2.46433043e+00   7.12249139e+00  -3.56538890e-01
C     5.165884255649999e+00   1.796473358271993e+00   3.610560912000000e+00  4.37791500e-02   1.25231588e+00   6.81176610e-01
C     8.609674414124999e+00   6.160500214141674e+00   2.536870560000000e-01 -1.41514399e+00   1.52286678e+00   3.42745520e-01
C     6.050063844075000e+00   4.901130508324050e-01   2.197448560000000e-01  4.97558314e+00   2.71529655e+00   9.53380900e-02
C     6.435702186449999e+00   1.084411080871919e+00   3.834086568000000e+00 -3.96053783e+00   3.44367180e-01  -1.46301741e+00
C     7.563690709725000e+00   1.789135551743740e+00   3.443214680000000e+00  1.88491600e+00   1.16207654e+00  -4.11246410e-01
C     1.195180639500000e+00   1.790563893374256e+00   1.338185872000000e+01 -2.22144770e-01   5.12005485e+00   2.56150970e+00
C     2.443406649300000e+00   2.554378850455832e+00   1.313921092000000e+01  8.31023500e-02   2.86795220e-01   3.29467076e+00
C     2.709121940550000e+00   3.135189449399608e+00   3.209659840000000e+00  5.48102920e-01   5.98349050e-01   9.42863550e-01
C     3.897639869925000e+00   3.973609335441946e+00   3.602446336000000e+00 -1.83199166e+00  -3.85531735e+00  -3.24670090e-01
C     3.707302220400000e+00   1.851094761219304e+00   1.350480000000000e-03 -2.55381978e+00   5.64348700e-01  -1.97559267e+00
C     4.844467827750000e+00   2.620578767358552e+00   2.244863600000000e-01  2.75083524e+00  -2.75558280e-01   1.43014036e+00
C     5.161005589275000e+00   3.319812099456052e+00   3.695850184000000e+00 -1.75580981e+00  -5.60438831e+00  -1.78208273e+00
C     6.378012053625000e+00   3.836856527569065e+00   3.500001480000000e+00  2.94272911e+00   6.89067626e+00   4.60905310e-01
C     6.132262559850000e+00   1.934103165216222e+00   5.014853119999999e-01 -3.17843320e-01  -4.49890590e-01  -1.80311210e+00
C     7.433304473100000e+00   2.636144828427911e+00   5.206715119999999e-01 -1.13759890e-01  -7.49100050e-01  -4.26744563e+00
C     7.628802242699999e+00   3.200088533445804e+00   3.247019720000000e+00 -2.97053954e+00  -7.68858320e-01   1.56554642e+00
C     8.839302955799999e+00   3.905887958999427e+00   3.293692200000000e+00  2.03104478e+00  -1.42089453e+00  -6.20160890e-01
C     2.403817701675000e+00   4.008792791102900e+00   1.328959237600000e+01  1.17623194e+00   1.54496044e+00   3.27434097e+00
C     3.665446668300000e+00   4.829359655594074e+00   1.359068454400000e+01 -1.34964460e-01  -4.89738232e+00  -8.18484750e-01
C     3.770189115525000e+00   5.288226588497854e+00   3.969530872000000e+00  4.95074407e+00   2.56032242e+00  -1.59430421e+00
C     5.023625568375000e+00   6.124476904104959e+00   3.758345176000000e+00  2.82924561e+00  -2.25648951e+00  -1.37681853e+00
C     4.900580385225000e+00   4.016199827658619e+00   2.534116560000000e-01 -2.57573510e-01   3.72152028e+00   6.00369900e-02
C     6.183827931825000e+00   4.817833080169910e+00   5.651934239999999e-01 -1.66006846e+00  -2.81492198e+00  -2.40435593e+00
C     6.378714726525000e+00   5.453274176107158e+00   3.577137416000000e+00 -2.11393981e+00  -2.49326763e+00   3.14669960e-01
C     7.608197665125000e+00   6.182156724435893e+00   3.525226487999999e+00  5.90229870e-01  -1.23595613e+01  -5.25082900e-02
C     7.475331404324999e+00   4.162861687547964e+00   4.574068960000000e-01 -4.27819060e+00  -5.08971535e+00   1.30386614e+00
C     8.627430400725000e+00   4.802110242868139e+00   2.869514320000000e-01  3.44595074e+00  -3.02873683e+00  -3.62628078e+00
C     8.856373758675000e+00   5.279040833364098e+00   3.472547976000000e+00 -5.32219540e-01   4.59768317e+00   2.37944116e+00
C     1.006388411865000e+01   6.047591034664780e+00   3.912882520000000e+00 -3.74869384e+00  -5.70338160e-01  -2.31532956e+00
C     7.378386910650000e+00   2.490235468837116e-01   6.897156087999999e+00 -2.54040200e-01  -1.04684519e+00  -1.25414689e+00
C     1.258908678900000e+00   8.792406896845574e-01   6.629460760000000e+00 -4.13460695e+00   3.29233839e+00  -2.60311300e-02
C     1.071286954050000e+00   3.790830086967925e-01   1.012138574400000e+01  2.02151664e+00   8.08750600e-02  -7.39532720e-01
C     2.337595698525000e+00   1.071449311261329e+00   9.749372976000000e+00 -2.63563322e+00   1.51961231e+00   6.97939110e-01
C     2.424518118450000e+00   2.523058571221188e-01   6.767417936000000e+00  1.57700868e+00  -4.50846239e+00  -3.68114230e-01
C     3.583572149325000e+00   1.010909093199806e+00   6.746228184000000e+00  1.63796170e-01  -1.15415166e+00  -4.96679640e-01
C     3.571887938400000e+00   3.995253997859124e-01   9.809913104000000e+00 -5.23667556e+00  -3.29555559e+00   7.63612730e-01
C     4.659433798275000e+00   1.064522978300582e+00   9.961565344000000e+00  9.63613750e+00   3.78503301e+00   1.27919926e+00
C     4.738798232400000e+00   3.068072442771336e-01   6.843116351999999e+00  4.12527678e+00  -3.89825173e+00  -1.69598430e-01
C     6.000272902350000e+00   9.719231094344772e-01   6.785702047999999e+00  2.37808802e+00  -7.81994866e+00   1.06916374e+00
C     6.023668094099999e+00   2.498869689283968e-01   1.033678295200000e+01 -8.75833070e-01   3.26301829e+00  -1.75966710e+00
C     7.247154870899999e+00   1.101603311097089e+00   1.028909387200000e+01 -2.22507282e+00  -2.65627255e+00   1.69487550e-01
C     8.635644359999999e+00   2.343258007120431e+00   6.378453039999999e+00  8.62985360e-01  -1.09049258e+00   1.99587458e+00
C     2.457805342875000e+00   3.171859653522760e+00   6.464637736000000e+00 -1.04356697e+00  -3.17832062e+00  -1.98607830e-01
C     2.270002773300000e+00   2.524728033160133e+00   9.610910968000001e+00  5.27467050e-01  -1.90339263e+00   1.66745377e+00
C     3.532289155425000e+00   3.269778706839646e+00   9.709750464000001e+00  1.13703755e+00  -8.00484120e-01   8.35369320e-01
C     3.627782750100000e+00   2.359816215817461e+00   6.550846640000000e+00  2.24762746e+00   5.25013873e+00   3.57094990e-01
C     4.926297052350000e+00   3.139898628289223e+00   6.618936128000000e+00 -5.35902370e-01  -6.35935761e+00   3.87614920e-01
C     4.799770968750000e+00   2.612126427834924e+00   9.848384920000001e+00 -1.44470584e+00  -3.64980582e+00   1.47347840e+00
C     6.065977662224999e+00   3.279367930218581e+00   1.023797133600000e+01 -4.93784814e+00  -5.95712048e+00  -7.15837570e-01
C     6.128994524474999e+00   2.237701043751974e+00   6.712569544000000e+00 -5.26057340e-01   8.73989234e+00  -8.35058780e-01
C     7.407979482149999e+00   2.876022710832071e+00   6.626071776000000e+00 -1.20400530e+00   5.15469062e+00   1.54912520e-01
C     7.174362632100000e+00   2.521019327433407e+00   1.030867991200000e+01  3.86589779e+00  -3.48936547e+00  -1.84279734e+00
C     8.378297805374999e+00   3.088980615534614e+00   9.899621423999999e+00  1.66659516e+00   5.07436111e+00   1.10848830e+00
C     9.859456110075000e+00   4.534481046049555e+00   6.655910040000000e+00  6.62762060e-01   1.98673676e+00   1.49209146e+00
C     3.820525697324999e+00   5.223627223719505e+00   6.881288015999999e+00 -4.97597758e+00   5.20106820e-01  -1.16847139e+00
C     3.585451773450000e+00   4.657779084541784e+00   1.005849608000000e+01  2.65529039e+00  -3.19143814e+00  -7.58203830e-01
C     4.805779332300000e+00   5.334161704381911e+00   1.017003580000000e+01  6.49533800e-01   2.94151800e-01   1.96421060e-01
C     5.015247661950000e+00   4.487109070872028e+00   6.713230096000000e+00 -2.68243889e+00   1.07924848e+00   3.97303370e-01
C     6.202328114249999e+00   5.138955826084080e+00   6.746360648000000e+00  7.50993480e-01   3.71808397e+00   8.86353400e-01
C     6.058476950699999e+00   4.556309382582158e+00   1.026409299200000e+01 -1.36299134e+00   1.00538457e+01  -1.67495062e+00
C     7.225731408000000e+00   5.383467701390579e+00   1.005843964000000e+01  1.15131923e+00  -2.05215459e+00   4.92171740e-01
C     7.390774829775000e+00   4.428880982025701e+00   6.781349912000000e+00  8.63962300e-02  -2.55368752e+00  -9.62104310e-01
C     8.537672146200000e+00   5.194006826648640e+00   6.812276312000000e+00  2.56836048e+00   1.93611864e+00  -4.08138640e-01
C     8.388705565350000e+00   4.602481135794141e+00   1.001876803200000e+01  3.75269634e+00  -9.70307100e-01  -8.34223700e-02
C     9.819782637599999e+00   5.244742510181975e+00   1.017240995200000e+01 -8.36193098e+00   3.96401794e+00  -1.80842590e-01
