72
Lattice="7.395 0 0 3.6975 6.40425786098592 0 0 0 13.6 " PBC="1 1 1" Properties=species:S:1:pos:R:3:force:R:3 Energy="-576.45450991"
C     3.686159841450000e+00   6.227011954359597e+00   1.356987858400000e+01  1.70522330e-01  -1.24601549e+00  -4.35523410e-01
C     1.212904494825000e+00   5.127454419393306e-01   1.359704485600000e+01  2.48227150e-01  -1.94373459e+00   1.55474830e-01
C     1.393799653725000e+00   1.059798429192103e+00   3.590492888000000e+00  9.83506090e-01  -1.77639810e+00  -3.05347320e-01
C     2.661378748275000e+00   1.674535456064071e+00   3.625706960000000e+00 -1.61640435e+00   4.54554941e+00  -7.55528120e-01
C     6.115587648300000e+00   6.182283848954413e+00   1.997636000000000e-02  2.06933868e+00   1.86066019e+00  -5.85996460e-01
C     3.681631365300000e+00   5.369661530381149e-01   1.356528532000000e+01  3.29709420e-01  -1.13192102e+00   1.69624150e-01
C     3.857384743725000e+00   9.881552773638547e-01   3.597577536000000e+00  2.33820540e+00   4.75123945e+00   6.23836820e-01
C     5.115443663174999e+00   1.745406382479560e+00   3.687871880000000e+00 -1.85400680e-01   3.66788000e-03  -1.44946378e+00
C     8.641833605250000e+00   6.157572891916447e+00   4.146096000000000e-03 -2.73565106e+00   1.36425809e+00  -1.00979506e+00
C     6.157540888350000e+00   4.358429214287149e-01   3.925871200000000e-02 -5.87769720e-01   3.67395406e+00   7.45211800e-02
C     6.370743914850000e+00   1.014192364076892e+00   3.585438448000000e+00 -2.32838490e+00   6.56350240e-01   4.90389220e-01
C     7.564220931224999e+00   1.730025148292041e+00   3.542060432000000e+00  1.01644296e+00   2.20047683e+00   2.21931790e-01
C     1.266962536425000e+00   1.850285839409007e+00   3.321228800000000e-02 -2.84100313e+00   5.72372804e+00  -2.26718850e-01
C     2.463720973125000e+00   2.641509098854026e+00   1.356177176000000e+01 -7.15556790e-01  -8.29807710e-01  -4.43777840e-01
C     2.663719154850000e+00   3.186289279034862e+00   3.566209136000000e+00 -1.29277350e-01  -1.89939147e+00   5.37998400e-01
C     3.895816188974999e+00   3.899507973276716e+00   3.687951576000000e+00 -2.19725555e+00  -8.51934520e-01  -1.27263269e+00
C     3.685925050200000e+00   1.990934805636176e+00   1.350263488000000e+01  1.62880340e-01  -3.01394866e+00   1.60692978e+00
C     4.875012542475000e+00   2.681393664039691e+00   1.498894080000000e-01  1.69527518e+00  -2.93305553e+00  -1.00780689e+00
C     5.106480294600000e+00   3.232062431237640e+00   3.624803784000000e+00 -1.32556047e+00  -5.70384168e+00   1.06880718e+00
C     6.303242983424999e+00   3.794052645480498e+00   3.664124648000000e+00  4.92416400e+00   6.08686324e+00  -9.28572870e-01
C     6.133356021525000e+00   1.912513835586955e+00   1.427257440000000e-01 -1.01189790e-01   4.91815870e-01  -2.16981490e-01
C     7.340421091575000e+00   2.661957381860377e+00   8.159034400000000e-02  2.07214660e+00  -1.25572320e+00   5.85680880e-01
C     7.598923040999999e+00   3.183732955467464e+00   3.552158432000000e+00 -2.81626138e+00  -2.49246107e+00   5.84722200e-02
C     8.795336390025000e+00   3.903298781589208e+00   3.499506848000000e+00  1.37529932e+00  -2.37773593e+00   1.02180453e+00
C     2.464793469975000e+00   4.022189601949919e+00   1.348521192000000e+01 -1.82152097e+00   3.31180996e+00  -5.23831790e-01
C     3.677668162950000e+00   4.826681779212493e+00   1.345197066400000e+01 -2.17058300e-02  -3.43219351e+00   1.74878811e+00
C     3.856976428799999e+00   5.271949334593142e+00   3.597876327999999e+00  1.71826168e+00   2.57146740e+00   3.42709340e-01
C     5.107599860624999e+00   6.043938494279486e+00   3.592671608000000e+00 -1.99149180e-01  -1.48163998e+00   7.23062200e-02
C     4.878344470649999e+00   4.031175608281021e+00   1.317785600000000e-01  1.09148481e+00   4.62643165e+00  -1.39435129e+00
C     6.141646962750000e+00   4.801173363985799e+00   7.652652000000000e-02 -1.02823624e+00  -1.41981332e+00   1.04558144e+00
C     6.360128170499999e+00   5.342038044953610e+00   3.617939864000000e+00 -2.23442461e+00  -1.94716788e+00  -1.03920490e-01
C     7.546990950974999e+00   6.076958847805646e+00   3.576423824000000e+00  1.82504067e+00  -6.72182510e+00   6.70168790e-01
C     7.394023786050000e+00   4.146940510380268e+00   1.319628400000000e-01 -3.59319793e+00  -4.57416060e+00  -1.24058056e+00
C     8.540569137449999e+00   4.760460856343993e+00   1.345108938400000e+01  5.58448175e+00   8.13955340e-01   1.48533960e+00
C     8.784393823649999e+00   5.247689493478833e+00   3.657984520000000e+00  7.68341310e-01   5.11282803e+00  -1.23776356e+00
C     1.005720813450000e+01   5.992392351913968e+00   3.607569320000000e+00 -1.97369854e+00  -7.81169570e-01   2.03284240e-01
C     7.391063604525000e+00   1.863379664816670e-01   7.100028104000000e+00  5.10419700e-02   9.22409470e-01  -1.09080100e+00
C     1.237507622850000e+00   8.764271711215020e-01   6.957846088000000e+00 -6.45415930e-01   2.52409854e+00  -2.40228800e-01
C     1.036812573300000e+00   3.903167174090184e-01   9.814289040000000e+00  2.93392519e+00   2.11664840e-01   1.26927639e+00
C     2.310320830950000e+00   1.109441098036471e+00   9.889715455999999e+00 -3.11255650e-01  -2.05304000e-01  -2.32974100e-02
C     2.456417116499999e+00   2.353571167807860e-01   6.787281960000000e+00  8.27606160e-01  -3.25939349e+00   5.93613530e-01
C     3.726439149300000e+00   9.002798295210721e-01   6.742420048000000e+00 -1.69529425e+00   4.62470480e-01   4.73484360e-01
C     3.579503974950000e+00   4.251407661188688e-01   1.004121388000000e+01 -5.64273247e+00  -2.00625550e+00  -4.85097100e-01
C     4.705264125899999e+00   1.090292879375700e+00   9.956764408000000e+00  6.59016957e+00   2.90114751e+00  -5.73090140e-01
C     4.932391493700000e+00   2.228580548005812e-01   6.911210735999999e+00  4.31997790e-01  -1.94420174e+00   1.42819080e-01
C     6.144082949700000e+00   9.602555762948149e-01   7.043332560000000e+00  5.47816650e-01  -5.43289433e+00  -4.56605510e-01
C     6.022455535950000e+00   3.683899474331077e-01   9.914431823999999e+00 -1.49285469e+00   2.37252167e+00   5.06979300e-01
C     7.237769469674999e+00   1.096541321641966e+00   9.848752392000000e+00 -1.23146425e+00   7.25967040e-01  -1.92588170e-01
C     8.615394964275000e+00   2.357820585025706e+00   6.953420919999999e+00  1.69584922e+00  -1.78023303e+00  -1.17650622e+00
C     2.480076790425000e+00   3.079224369110690e+00   6.783304640000000e+00 -1.65487620e+00  -3.27878007e+00   1.00240955e+00
C     2.305601933550000e+00   2.531369760901582e+00   9.799709704000000e+00  9.47612860e-01  -1.80490997e+00   4.36271850e-01
C     3.514854925275000e+00   3.232061086343490e+00   9.732875088000000e+00  1.68887337e+00   1.51746721e+00   1.07329063e+00
C     3.658725759524999e+00   2.305934824865872e+00   6.744336288000000e+00  3.08217639e+00   2.82235438e+00   3.38460100e-02
C     4.926333805500000e+00   3.110424568510460e+00   6.799216368000000e+00 -2.28791270e-01  -4.83056658e+00   2.17730100e-01
C     4.773067438875000e+00   2.550253675840471e+00   9.797706832000001e+00 -3.74194070e-01  -8.89918700e-01   7.65410140e-01
C     6.055249255050001e+00   3.261259570906538e+00   9.884482040000000e+00 -2.23077867e+00  -2.04779125e+00  -6.70627930e-01
C     6.175047848325000e+00   2.267147437136782e+00   6.913533344000000e+00 -9.08409830e-01   7.05752766e+00  -5.06330610e-01
C     7.417369985924999e+00   3.018269539395310e+00   6.930067408000000e+00 -1.55814718e+00   1.49106014e+00  -1.91025600e-01
C     7.249433714099999e+00   2.528626176834358e+00   9.813100944000000e+00  7.22217100e-01  -7.13462550e-01   1.26826770e+00
C     8.498198930325000e+00   3.188519177579136e+00   9.886995592000000e+00 -2.41341674e+00   3.66080691e+00  -1.99515600e-02
C     9.852230196750000e+00   4.424327234474347e+00   6.978214943999999e+00  1.44701466e+00   3.26289477e+00  -7.21510710e-01
C     3.723875450700000e+00   5.199116143569348e+00   7.001442248000000e+00 -1.92097559e+00  -1.11765701e+00  -3.72766610e-01
C     3.503852385450000e+00   4.695161890437019e+00   9.806300264000001e+00  3.28397450e+00  -2.32503881e+00   2.26489210e-01
C     4.760426167049999e+00   5.387674914549128e+00   9.869945951999998e+00 -9.83463600e-02  -1.50718288e+00  -2.59622100e-01
C     4.952442592500000e+00   4.495463169080083e+00   6.864675344000000e+00 -1.51387970e+00  -5.57058470e-01   9.09973600e-02
C     6.156353916900001e+00   5.145644304907907e+00   6.849432328000000e+00  1.69872826e+00   3.86563546e+00  -3.60774150e-01
C     6.005645776574999e+00   4.628656938732426e+00   9.902446959999999e+00 -9.00101300e-02   3.69014689e+00   8.39366470e-01
C     7.217482618275000e+00   5.403641818117944e+00   1.006345110400000e+01  9.29095980e-01  -1.78029922e+00  -6.44254460e-01
C     7.406570956500000e+00   4.501153608359008e+00   6.870845664000000e+00 -1.22699175e+00  -3.28057518e+00   1.16559390e-01
C     8.618305673249999e+00   5.138173866199375e+00   6.955872456000000e+00  1.30444691e+00   2.91932875e+00  -2.28020080e-01
C     8.438565909150000e+00   4.674145165503013e+00   9.996248608000000e+00  1.82806661e+00  -7.63594110e-01  -2.74927460e-01
C     9.754475321999999e+00   5.397653516805950e+00   9.924766736000000e+00 -4.67080035e+00  -8.38214070e-01   4.12420550e-01
