72
Lattice="7.395 0 0 3.6975 6.40425786098592 0 0 0 13.6 " PBC="1 1 1" Properties=species:S:1:pos:R:3:force:R:3 Energy="-563.19803087"
C     1.097976858637500e+01   6.395795465791532e+00   1.316652638400000e+01  2.41672558e+00  -2.15313812e+00   5.25037150e-01
C     1.261560008250000e+00   5.169885829844736e-01   1.307751656000000e+01 -2.93962127e+00   4.14167115e+00   8.07531040e-01
C     1.242693514500000e+00   8.045183706772213e-01   3.429734360000000e+00 -4.92791240e-01   1.24938160e+00   6.04242310e-01
C     2.530410820950000e+00   1.363595480147300e+00   3.374708624000000e+00  1.12162901e+00   5.18972393e+00   1.42430390e+00
C     6.275484408900000e+00   6.288522673657225e+00   1.320159956000000e+01 -9.52739427e+00  -7.40713860e-01   4.56002680e-01
C     3.673033050900000e+00   5.388345312261913e-01   1.319261812000000e+01  2.40949570e+00   6.66714626e+00  -3.42461600e-01
C     3.828691810950000e+00   8.848923191608501e-01   3.687457080000000e+00 -1.10730669e+00  -3.47044067e+00  -9.12275390e-01
C     5.103659360925000e+00   1.584730469370649e+00   3.772686784000000e+00 -4.15797504e+00   3.53159930e-01  -4.17861890e-01
C     8.528808092475000e+00   6.308915047492458e+00   1.310365412800000e+01  5.30050833e+00   3.23854959e+00   1.68079230e+00
C     6.009590898150000e+00   6.951468391996128e-01   1.329038770400000e+01  3.81994701e+00  -2.64118226e+00  -8.79791630e-01
C     6.244128980325001e+00   8.127087120117966e-01   3.784887615999999e+00 -6.55866560e-01   5.25446000e-02  -7.23527410e-01
C     7.386109915874999e+00   1.544952727206088e+00   3.527690536000000e+00  3.44245353e+00   1.40997093e+00  -2.26949750e-01
C     1.210370930850000e+00   2.000722945264243e+00   1.302928592800000e+01  2.39853980e-01   1.79774349e+00   1.61180172e+00
C     2.509335255824999e+00   2.691809805193509e+00   1.273297062400000e+01 -2.21073857e+00   1.25232030e+00   2.90288289e+00
C     2.499063046200000e+00   2.830957997633766e+00   3.528886519999999e+00  3.17940343e+00  -2.55930890e-01  -4.47008640e-01
C     3.629852647575000e+00   3.623503159943668e+00   3.734464392000000e+00  5.44242800e+00   8.62883570e-01   6.12984440e-01
C     3.703402652024999e+00   1.994403799991203e+00   1.305416658400000e+01 -3.18304830e-01   1.24818698e+00   4.17995820e-01
C     4.850679923550000e+00   2.778908928898502e+00   1.340951908000000e+01  1.49375150e+00  -2.37128520e-01   2.60142100e-01
C     5.005283343149999e+00   2.992316860800868e+00   3.765338432000000e+00 -3.57448410e-01   6.66824480e-01  -9.82685460e-01
C     6.242682074625000e+00   3.740063214698812e+00   3.635070560000000e+00  3.32646600e-02  -1.55416962e+00   2.61517290e-01
C     6.091305426299999e+00   1.984822069593964e+00   2.733300800000000e-02  8.43732600e-01   6.87330029e+00  -5.39469130e-01
C     7.435254386700000e+00   2.876741268563963e+00   2.082173600000000e-02 -1.51625250e-01  -3.67264465e+00  -2.64523587e+00
C     7.499514200549999e+00   3.001125917487298e+00   3.469741888000000e+00 -1.06793992e+00  -4.67365070e-01   8.77575090e-01
C     8.852458882649998e+00   3.660019533793023e+00   3.525095792000000e+00 -8.73288804e+00  -2.03837300e-02  -6.31489790e-01
C     2.488938108000000e+00   4.152266163131487e+00   1.282321084000000e+01 -7.54929860e-01   1.05698802e+00   2.40237188e+00
C     3.629201813624999e+00   4.942696639496016e+00   1.312505345600000e+01  2.06396780e+00  -1.16148323e+00   3.92784100e-02
C     3.652792085475000e+00   5.103142255492282e+00   3.916174264000000e+00  1.42401002e+00  -1.21232437e+00  -1.89672116e+00
C     4.897646677800000e+00   5.916006590970076e+00   3.753511736000000e+00  1.13108043e+00  -6.95213907e+00   3.26884270e-01
C     4.904403415350000e+00   4.231501818823079e+00   1.341518388800000e+01 -4.33322790e-01   2.02593260e-01  -2.89493470e-01
C     6.206176657124999e+00   4.983719113218245e+00   1.356725024800000e+01 -2.55889396e+00  -2.58635522e+00  -6.32711170e-01
C     6.213680400599999e+00   5.131149291923055e+00   3.718393136000000e+00 -1.02995563e+00   2.41391489e+00  -3.27203970e-01
C     7.467411026550000e+00   5.815482925981529e+00   3.696968784000000e+00 -1.67722550e-01   1.30643430e-01  -6.29750350e-01
C     7.431440415450000e+00   4.384855743920652e+00   1.357743542400000e+01  2.64263261e+00  -6.08459196e+00  -8.55963810e-01
C     8.696745806325000e+00   5.006235203002434e+00   1.314996430400000e+01 -2.13761011e+00  -7.06219798e+00   2.54848740e-01
C     8.684352673724998e+00   5.071200891330374e+00   3.617687720000000e+00 -2.61422910e-01  -4.71705630e-01   6.21020990e-01
C     9.840000456675000e+00   5.778176907138036e+00   3.775708704000000e+00  2.48589980e+00   2.04787943e+00   3.71123730e-01
C     7.425602432700000e+00   1.402560650074584e-01   7.454534136000000e+00  4.12294450e-01  -2.90818455e+00  -2.90083087e+00
C     1.230868022100000e+00   7.590512139149941e-01   6.991714303999999e+00  1.90899681e+00  -9.94430720e-01  -1.11232526e+00
C     1.084906954125000e+00   5.910405683216035e-01   1.014789268800000e+01  8.18355749e+00  -1.53608446e+00   1.06103020e+00
C     2.419930371375000e+00   1.344173863718486e+00   1.025569540000000e+01 -1.45534919e+00  -1.38579457e+00  -7.21959190e-01
C     2.462942982150000e+00   4.141287728137560e-02   6.635250960000000e+00 -8.70595820e-01   4.72504940e-01   1.13270673e+00
C     3.607654114725000e+00   8.667945909168547e-01   6.486468184000000e+00  1.87809792e+00  -1.37361218e+00   9.68726970e-01
C     3.637118124150000e+00   7.029149478134784e-01   1.059692266400000e+01 -8.36515730e-01  -2.67213989e+00  -2.06512869e+00
C     4.855778184450000e+00   1.407286095779164e+00   1.038702216800000e+01  7.45309970e-01  -2.19735115e+00  -4.90974870e-01
C     4.783615223175000e+00   1.403615431344126e-01   6.829097880000000e+00  3.59572785e+00  -2.26201620e+00   1.51388390e+00
C     6.119920193924999e+00   7.732499018886643e-01   7.219038304000001e+00 -1.67509602e+00  -1.50890197e+00  -1.28713633e+00
C     6.081463531724999e+00   5.260912748937846e-01   1.042763013600000e+01  4.24825790e-01   2.25379862e+00  -1.48087617e+00
C     7.353645644024999e+00   1.216326688740563e+00   1.007562976800000e+01 -6.75023260e+00   4.82367716e+00   1.70414165e+00
C     1.353934761675000e+00   2.122237397942462e+00   6.732127840000000e+00 -2.97567056e+00   3.46961008e+00   1.89840468e+00
C     2.492017903650000e+00   3.021269742074984e+00   6.553930984000000e+00 -2.79801670e-01  -3.66886640e-01   1.44746285e+00
C     2.411962295850000e+00   2.701956775389472e+00   9.979382568000000e+00 -1.24073747e+00   2.10269929e+00   2.69779750e-01
C     3.600290802300000e+00   3.467774728159342e+00   9.853553328000000e+00  1.57145685e+00   4.49592270e-01   1.94071545e+00
C     3.677853407700000e+00   2.277980943775337e+00   6.400511151999999e+00  2.11535931e+00   2.12237460e-01   1.80578317e+00
C     4.996336058700000e+00   2.851684481601556e+00   6.615742440000000e+00 -2.06644745e+00   3.18283505e+00   1.08198406e+00
C     4.829161730699999e+00   2.802026378495745e+00   9.996452200000000e+00  1.39155460e+00  -1.40330107e+00   1.28662751e+00
C     6.075447107625000e+00   3.533226947956906e+00   1.018057280800000e+01  9.12781800e-01  -3.71017001e+00  -3.26670200e-02
C     6.123309396375000e+00   2.138555831225213e+00   7.022284247999999e+00  2.84565649e+00   1.20757026e+00  -6.31016840e-01
C     7.488108744149999e+00   2.805090175455968e+00   7.038164288000000e+00 -1.23865768e+00  -1.74284081e+00  -1.43113079e+00
C     7.304565953400000e+00   2.786309305026047e+00   1.018284754400000e+01 -1.24824065e+00  -3.77872411e+00  -1.02444200e+00
C     8.523507060675000e+00   3.414584868971477e+00   1.012291302400000e+01  1.17587423e+00   3.76237780e-01   4.84207290e-01
C     9.891491065200000e+00   4.447821126348600e+00   6.982431760000000e+00  1.81390884e+00  -2.47557970e+00  -5.43630450e-01
C     3.894974453100000e+00   5.033602838328465e+00   7.265860655999999e+00 -6.09146654e+00   2.76509318e+00  -1.52789515e+00
C     3.766595478300000e+00   4.897406944719089e+00   1.012712657600000e+01 -5.83961993e+00  -1.74720683e+00  -2.04801430e-01
C     4.950734828174999e+00   5.581509705281710e+00   1.019371748000000e+01 -1.86676573e+00   1.32402677e+00   5.73639460e-01
C     5.025563945775000e+00   4.407316308789194e+00   6.813112712000001e+00  3.65900840e-01  -3.96701464e+00   5.80296800e-02
C     6.262584718799999e+00   5.042578277634098e+00   6.701228096000000e+00  4.24710820e-01  -1.88453567e+00   1.32354603e+00
C     6.142847947725000e+00   4.876815142294095e+00   1.042673960800000e+01 -2.79277858e+00   6.68665580e-01  -1.44620469e+00
C     7.254410290275000e+00   5.548168498436764e+00   1.069003955200000e+01  6.31925759e+00   2.62553012e+00  -1.52123076e+00
C     7.491851945249999e+00   4.139007299998771e+00   6.869075216000000e+00 -2.11193164e+00   6.46519234e+00  -9.04799210e-01
C     8.585430720074999e+00   5.030301379359057e+00   6.940665480000000e+00  1.60414208e+00   1.79634301e+00  -1.99322250e-01
C     8.517209515650000e+00   4.768549434021174e+00   1.047183938400000e+01  9.60845890e-01   3.03614928e+00  -3.08724350e-01
C     9.807932261025000e+00   5.512860544003012e+00   1.045407982400000e+01  3.48836040e-01   5.83603420e-01  -1.76353051e+00
