72
Lattice="7.395 0 0 3.6975 6.40425786098592 0 0 0 13.6 " PBC="1 1 1" Properties=species:S:1:pos:R:3:force:R:3 Energy="-579.09288406"
C     1.101843182790000e+01   6.316748031238445e+00   1.351899064800000e+01  1.57761588e+00   1.34557411e+00  -1.06866777e+00
C     1.245697474425000e+00   5.912385879746346e-01   1.347367014400000e+01 -2.28174045e+00   1.32947766e+00   1.92962680e-01
C     1.265578636125000e+00   8.056044687676988e-01   3.583342823999999e+00 -4.40319790e-01   2.33228300e-02   2.24168600e-02
C     2.517784597950000e+00   1.474676179962586e+00   3.624369672000000e+00 -2.40262800e-02   4.38703520e-01  -3.25417190e-01
C     6.197921803500000e+00   6.306338678597958e+00   1.342596066400000e+01 -3.40995296e+00   1.02920828e+00   1.20299540e-01
C     3.676975732125000e+00   5.856705981059934e-01   1.352263925600000e+01  1.51669270e-01   2.37075332e+00  -4.22695550e-01
C     3.789115656674999e+00   8.256154690473690e-01   3.553123760000000e+00 -2.57356700e-02   1.29032300e-02  -3.25091500e-02
C     5.049004727700000e+00   1.550147284798913e+00   3.522283720000000e+00 -2.91776787e+00   1.32766210e-01  -7.82359880e-01
C     8.577146730150000e+00   6.363346308023906e+00   1.345093774400000e+01  1.60674418e+00  -2.27990875e+00  -3.25003910e-01
C     6.064608810750000e+00   6.505541198055901e-01   1.336887752000000e+01  3.80806053e+00   7.25487050e-01   7.00421550e-01
C     6.217446600150000e+00   7.940475371612785e-01   3.467791104000000e+00 -2.72821100e-01   2.23628420e+00   1.67219600e-01
C     7.408201184250000e+00   1.498927695541677e+00   3.580231688000000e+00  2.83462733e+00   2.85546346e+00  -6.40126300e-02
C     1.216815858225000e+00   2.043512161602312e+00   1.349526055200000e+01 -4.96879970e-01   7.28328200e-02  -9.19447300e-02
C     2.442450771600000e+00   2.747505394311678e+00   3.709726400000000e-02  1.08035068e+00  -3.88412630e-01  -7.36054580e-01
C     2.486598514875000e+00   2.873103842227219e+00   3.611945528000000e+00  2.85636619e+00   7.59024060e-01  -1.29228450e-01
C     3.709399146600000e+00   3.601322589228765e+00   3.508132104000000e+00  7.12754920e-01   2.30764047e+00  -6.77038950e-01
C     3.689944972200000e+00   1.984221350206696e+00   1.354840500000000e+01 -2.82326960e-01   3.27323375e+00  -1.49033450e-01
C     4.909736837250000e+00   2.777580045392553e+00   1.332492028000000e+01 -5.82880470e-01  -3.06873860e-01   5.48022550e-01
C     4.990019989200000e+00   2.981876895807810e+00   3.401130568000000e+00 -2.10497370e-01  -1.26341906e+00   1.51326652e+00
C     6.196056673575000e+00   3.710693288152851e+00   3.492492240000000e+00  2.15669783e+00  -2.94611190e-01   2.24988800e-01
C     6.146709431850000e+00   2.067089885211952e+00   1.324070704000000e+01 -3.60982510e-01   7.25789060e-01   7.58939610e-01
C     7.382490987749999e+00   2.809284964354269e+00   1.330010055200000e+01  6.20531080e-01  -1.46234804e+00   6.67904690e-01
C     7.497904974600000e+00   3.010775340890117e+00   3.642238712000000e+00 -3.47407968e+00  -2.87237338e+00  -8.86976330e-01
C     8.744800180200000e+00   3.638701552569283e+00   3.638397120000000e+00 -2.68616113e+00   9.58173320e-01  -3.62280300e-01
C     2.490113765100000e+00   4.175301125887492e+00   2.515673600000000e-02 -2.29910441e+00   3.63439250e-01  -9.62361590e-01
C     3.671167514250000e+00   4.911129476120869e+00   1.353790185600000e+01  8.95398620e-01  -3.20049200e-01  -1.61390150e-01
C     3.702502458675000e+00   5.092164204753827e+00   3.443722912000000e+00  4.64019790e-01  -1.14086457e+00   3.60957130e-01
C     4.945863556799999e+00   5.810324552445614e+00   3.525694328000000e+00 -1.96679620e-01  -1.09154954e+00  -4.66382280e-01
C     4.900679847974999e+00   4.224449898365697e+00   1.332478210400000e+01  7.91863200e-01  -4.24482090e-01   2.72662370e-01
C     6.154132421925000e+00   4.964115423738471e+00   1.321201620800000e+01  2.12187490e-01  -3.69519166e+00   1.26345405e+00
C     6.192051504600000e+00   5.122516096157461e+00   3.522194096000000e+00  1.13426040e-01  -9.22184300e-02  -9.89342800e-02
C     7.443921511575000e+00   5.814043056686866e+00   3.514617672000000e+00  7.79997960e-01  -1.36909716e+00   3.31421150e-01
C     7.413536085149999e+00   4.235736057949796e+00   1.332039773600000e+01 -5.46958500e-01  -3.02060620e-01  -4.87158310e-01
C     8.653056737924999e+00   4.948877901097331e+00   1.342783773600000e+01 -4.49283560e-01  -2.04979940e+00   9.68028150e-01
C     8.688996105150000e+00   5.045407166416017e+00   3.510217256000000e+00 -5.04464490e-01   2.26733024e+00  -2.19477880e-01
C     9.872560752599998e+00   5.837516647063702e+00   3.402414952000000e+00  8.45507230e-01  -3.86976685e+00   7.15354540e-01
C     7.418891507174999e+00   9.277368042442501e-02   6.616743944000000e+00  4.12721850e-01  -1.14106788e+00   7.09001900e-01
C     1.266924193350000e+00   7.592990586941760e-01   6.799707872000000e+00 -3.48348930e-01   4.34460530e-01   4.20854390e-01
C     1.155795313200000e+00   6.066316700391948e-01   1.015635324800000e+01  1.60493604e+00   1.14631075e+00   5.74413910e-01
C     2.368286353575000e+00   1.327904743221256e+00   1.022764050400000e+01  2.08779875e+00   3.66044780e-01  -5.58744410e-01
C     2.474360640300000e+00   8.925383626199040e-02   7.010483935999999e+00  6.22286090e-01  -2.48361187e+00  -6.99487940e-01
C     3.668605812300000e+00   8.331241411753262e-01   7.130025760000001e+00  1.13291108e+00  -1.67705619e+00  -1.36893939e+00
C     3.656612897100000e+00   6.120282819675025e-01   1.005587685600000e+01 -1.67462175e+00   1.27869605e+00   2.64429880e-01
C     4.875615974475000e+00   1.367763691375481e+00   1.006966045600000e+01  3.82548040e-01  -1.42988831e+00   7.67971410e-01
C     4.858014617325000e+00   8.998411378576621e-02   6.805183232000000e+00  2.28103691e+00  -2.78663700e-01   5.77869350e-01
C     6.169759831724999e+00   7.804915805064379e-01   6.666714288000001e+00 -1.71521778e+00  -1.44046416e+00   8.11740090e-01
C     6.093592921650000e+00   6.074047920480540e-01   1.008206882400000e+01  8.00721500e-02  -7.17011110e-01   1.60207750e-01
C     7.343678589074999e+00   1.296615844850126e+00   1.020791343200000e+01 -2.18415773e+00   1.34212577e+00  -5.56927810e-01
C     1.291153393200000e+00   2.157697709670703e+00   6.884962600000001e+00 -3.09428790e-01   2.24151120e+00   2.21924800e-02
C     2.520029461125000e+00   2.961505656023515e+00   6.993237232000000e+00 -1.80309833e+00  -4.64830690e-01   1.87887080e-01
C     2.386990601025000e+00   2.782305298969396e+00   1.031284464000000e+01  1.09130005e+00  -2.42515953e+00  -2.53269890e-01
C     3.626534991750000e+00   3.455206115938778e+00   1.033676513600000e+01  1.03583108e+00   1.23287746e+00  -6.29285680e-01
C     3.700243544999999e+00   2.229942477482320e+00   7.180100007999999e+00  1.58695372e+00   1.41952859e+00  -1.64121228e+00
C     4.971979664849999e+00   2.918184245857281e+00   6.991948224000001e+00 -8.98474840e-01  -1.00073674e+00  -1.27783400e-01
C     4.878618936074999e+00   2.778614909420150e+00   1.024954044800000e+01 -1.43126140e+00  -8.96144550e-01  -1.31326770e-01
C     6.068316774675000e+00   3.496341880982551e+00   1.022851743200000e+01  2.16778194e+00  -1.12560888e+00  -8.02519620e-01
C     6.166855704300000e+00   2.160322558797203e+00   6.830401303999999e+00  9.68182460e-01   1.51745606e+00   3.20486610e-01
C     7.432305963225000e+00   2.848706053398605e+00   6.863809704000000e+00  1.65436340e-01   3.82147940e-01  -7.64659600e-02
C     7.306038223950000e+00   2.741558272377725e+00   1.020691560000000e+01  9.28406170e-01  -6.02737600e-02   1.08327780e-01
C     8.584783842449999e+00   3.449362358726685e+00   1.021086680800000e+01 -3.01608991e+00   3.33786210e-01  -6.28660040e-01
C     9.888737647875001e+00   4.398703478563594e+00   6.846967736000001e+00  1.15105947e+00  -1.10330177e+00  -4.87296680e-01
C     3.786400730325000e+00   5.072787610257768e+00   6.717161175999999e+00 -2.03503699e+00  -3.52620640e-01   6.15924930e-01
C     3.681155977725000e+00   4.886810395621354e+00   1.026139964800000e+01 -1.25993550e+00  -9.68161300e-02  -4.43098880e-01
C     4.936414410675000e+00   5.632641171950793e+00   1.018258275200000e+01 -2.92892334e+00  -2.12601292e+00  -2.48607540e-01
C     5.004863159250000e+00   4.321026299022233e+00   6.848247088000000e+00 -4.55547050e-01   8.77886200e-01   2.64268270e-01
C     6.249549071624999e+00   5.012423893542866e+00   6.912236448000000e+00 -1.38663336e+00   1.51044056e+00  -2.94578400e-02
C     6.111424411200000e+00   4.895993653094544e+00   1.007456665600000e+01  3.66284080e-01   6.02168990e-01   5.50005560e-01
C     7.325553628949999e+00   5.603033327225334e+00   9.927746224000000e+00  1.18539471e+00  -5.78508760e-01   9.34936240e-01
C     7.448106231150000e+00   4.274857491768865e+00   6.924286727999999e+00 -5.49488960e-01   2.65003620e-01  -3.81223300e-01
C     8.616517858049999e+00   5.041319200538822e+00   6.803610664000000e+00  1.08813258e+00   1.28512386e+00   4.08797370e-01
C     8.551031213700000e+00   4.841687851974574e+00   9.989383871999999e+00  5.06128860e-01   1.01533431e+00   8.85154850e-01
C     9.784331451300000e+00   5.534553494524455e+00   1.009353022400000e+01  1.15090839e+00   2.20973582e+00   6.10469100e-02
