72
Lattice="7.395 0 0 3.6975 6.40425786098592 0 0 0 13.6 " PBC="1 1 1" Properties=species:S:1:pos:R:3:force:R:3 Energy="-571.97587657"
C     3.642991418025000e+00   6.185898219962862e+00   1.351351719200000e+01  1.27197820e-01   2.79846243e+00   1.14876175e+00
C     1.161004018425000e+00   5.516098088478979e-01   1.352513662400000e+01  1.12522163e+00  -5.80744460e-01   4.23796600e-02
C     1.392222411150000e+00   9.198817258086457e-01   3.437404488000000e+00 -1.95710587e+00   2.61459481e+00   3.68602180e-01
C     2.592526602450000e+00   1.709036153794570e+00   3.353630664000000e+00  2.10789719e+00  -5.17438767e+00   1.30692691e+00
C     6.098530452225000e+00   6.245030013635814e+00   1.914091200000000e-02  1.06024185e+00  -1.42880469e+00  -4.71257200e-02
C     3.666756803475000e+00   5.222450057082259e-01   1.355165839200000e+01  6.16260980e-01   3.12533800e-02   8.79950380e-01
C     3.896917785149999e+00   1.024946521960561e+00   3.539154520000000e+00 -2.43216798e+00  -2.83602244e+00  -8.05912930e-01
C     5.105724118874999e+00   1.748167258043006e+00   3.568869160000000e+00 -1.26880457e+00  -1.41333618e+00   6.00601790e-01
C     8.651574779924999e+00   6.278795310436249e+00   1.359120977600000e+01 -3.30910860e-01  -1.62871237e+00   5.53174150e-01
C     6.169372629524999e+00   6.880444531902943e-01   6.496747200000000e-02 -1.54644285e+00  -6.64786823e+00  -1.17084699e+00
C     6.260839831574999e+00   1.025605199881462e+00   3.639704896000000e+00  3.54931011e+00  -2.33623860e+00  -5.67020050e-01
C     7.550395350150000e+00   1.714635652611882e+00   3.485216920000000e+00 -1.69148569e+00  -1.40601705e+00   3.09438130e-01
C     8.565077239724999e+00   2.057464605861265e+00   1.347927524800000e+01  3.80459891e+00  -6.85783637e+00  -7.29443400e-02
C     2.420523931050000e+00   2.645774910971993e+00   1.333906020000000e+01  1.68314026e+00   4.61407000e-02   1.18842567e+00
C     2.608560552375000e+00   3.052093371112586e+00   3.453946848000000e+00  9.23718100e-02   1.84650811e+00  -3.43941910e-01
C     3.840132763350000e+00   3.728927042833793e+00   3.542814552000000e+00  8.47089170e-01   3.45524045e+00   1.43956606e+00
C     3.675224928900000e+00   1.941079835643749e+00   1.356905972800000e+01  5.57417320e-01   1.12691118e+00  -1.43195499e+00
C     4.946609379525000e+00   2.723252533838437e+00   5.456591999999999e-02 -2.52592324e+00  -4.54497160e-01   4.82196150e-01
C     5.127843968924999e+00   3.115388957075796e+00   3.661397848000000e+00 -1.30396353e+00   3.68055540e+00  -1.77098099e+00
C     6.330720326100000e+00   4.002078375034740e+00   3.535046640000000e+00 -2.00988667e+00  -1.07147712e+01   3.53749600e-01
C     6.159854118300000e+00   2.047644765156791e+00   1.660925840000000e-01 -3.87012930e-01  -1.41163302e+00   5.37780000e-04
C     7.429936827075000e+00   2.621081821813455e+00   2.094926320000000e-01 -3.79716846e+00   3.12599524e+00  -8.78441030e-01
C     7.476907056975000e+00   3.145775879769924e+00   3.412581904000000e+00  3.72992196e+00   5.60532690e-01   7.42335470e-01
C     8.805761269424998e+00   3.753691347339734e+00   3.457328352000000e+00 -2.40188216e+00   2.16076683e+00  -4.98437520e-01
C     2.471299997700000e+00   4.048564833477965e+00   1.335087968800000e+01 -2.90730800e-01  -6.67971900e-01   1.24744477e+00
C     3.654891082275000e+00   4.737403158472585e+00   1.351554712800000e+01  1.05066163e+00   4.10315201e+00  -3.16728500e-01
C     3.799999580700000e+00   5.226748979213362e+00   3.703377512000000e+00 -1.22976930e+00  -9.34716710e-01  -1.20505158e+00
C     5.018235648675000e+00   5.917135213332744e+00   3.612408336000000e+00 -6.69310720e-01   2.35358617e+00  -2.95669740e-01
C     4.905747826350000e+00   4.172296120014423e+00   9.698744800000000e-02 -1.00611550e+00  -4.28325572e+00  -4.38089250e-01
C     6.124499695575000e+00   4.754242770259983e+00   2.039090160000000e-01  2.12178439e+00   3.45960274e+00  -1.18655461e+00
C     6.235553405550000e+00   5.285431578240013e+00   3.543755536000000e+00  3.01744957e+00   2.87088714e+00   1.69798840e-01
C     7.550457690000000e+00   5.829720359715252e+00   3.555461056000000e+00 -1.14677302e+00   7.12691620e+00  -6.83473470e-01
C     7.348883818650000e+00   3.966386037044231e+00   1.254563280000000e-01  2.80279856e+00   6.48896620e+00   5.61983790e-01
C     8.715515795325000e+00   4.737845564605554e+00   1.355838400000000e-02 -5.11935801e+00   2.86762350e+00  -8.02031250e-01
C     8.774444516699999e+00   5.211464705489843e+00   3.496299424000000e+00 -3.54749630e-01  -1.99475315e+00   8.65435540e-01
C     9.923236136324999e+00   5.982299433654344e+00   3.660139984000000e+00  3.12701978e+00  -9.59568000e-03  -3.88607660e-01
C     7.368436272600000e+00   1.717286374940136e-01   7.113232344000000e+00  1.07418040e+00  -2.24661320e-01  -1.04656564e+00
C     1.198336640625000e+00   8.716725860436594e-01   6.908340999999999e+00  2.36612676e+00  -1.70129813e+00  -3.71132600e-01
C     1.121807893200000e+00   4.850651507445744e-01   9.979094519999999e+00 -2.19758805e+00  -9.37884310e-01  -3.58167770e-01
C     2.308179867525000e+00   1.206038248488474e+00   9.912528096000001e+00  1.54111730e+00  -6.18807060e-01   1.93485600e-01
C     2.494317452850000e+00   8.411570018091240e-02   6.833840064000000e+00 -1.30500030e+00   3.87426899e+00  -1.01580120e-01
C     3.637209711225000e+00   9.286501154576646e-01   6.775802336000000e+00  1.82073090e+00  -1.00149370e+00   2.96142980e-01
C     3.547244322750000e+00   4.762677498074496e-01   1.001059157600000e+01  2.65905358e+00   8.14429960e-01   4.36414710e-01
C     4.886085371775000e+00   1.220485741880005e+00   1.004383568800000e+01 -7.33192857e+00  -1.73893789e+00  -9.03275260e-01
C     4.863690982350000e+00   9.560839708099680e-02   6.931197296000001e+00  2.55367700e-02   4.08590295e+00  -4.31967970e-01
C     6.121656281100000e+00   7.450748177316445e-01   6.995252344000000e+00 -5.25216520e-01   5.36995577e+00  -1.59363310e-01
C     5.971023384900000e+00   4.833713526257616e-01   1.008828783200000e+01  3.37878430e+00  -3.36566694e+00  -4.69715000e-03
C     7.217823084075000e+00   1.087695248345105e+00   9.970823680000001e+00  2.30094826e+00   2.63610885e+00   9.89654820e-01
C     8.673189699375000e+00   2.257833981101299e+00   6.757056095999999e+00 -1.03628248e+00   1.41305828e+00   1.33727774e+00
C     2.475389025975000e+00   3.082442124429869e+00   6.758731752000000e+00  2.75972470e-01   4.68684370e-01  -3.67482750e-01
C     2.323792746150000e+00   2.620603615879049e+00   9.802910464000000e+00  7.33461500e-02   2.40512150e-01   5.59953850e-01
C     3.585645929175000e+00   3.302909341686155e+00   9.809874344000001e+00 -1.28016609e+00   2.07802700e-02   3.19177780e-01
C     3.716971959375000e+00   2.447175608561885e+00   6.697928328000000e+00 -2.17821263e+00  -6.05890824e+00   6.84573360e-01
C     4.967586258375000e+00   2.975274298081886e+00   6.778591424000000e+00  1.10018240e-01   4.28633269e+00   2.45473010e-01
C     4.800463029825000e+00   2.552276780898445e+00   9.826542503999999e+00  5.05343110e-01   3.61685638e+00   1.33072864e+00
C     5.975204665800000e+00   3.273784890343968e+00   1.001594834400000e+01  3.41320603e+00   2.25684317e+00   3.65267210e-01
C     6.153496821675000e+00   2.287011523741144e+00   6.916953880000000e+00  8.79436430e-01  -3.43137881e+00  -2.92372630e-01
C     7.402754581874999e+00   2.965339372863668e+00   6.914924760000001e+00  1.04472654e+00  -2.91480044e+00  -7.69017960e-01
C     7.251593423849999e+00   2.498823834797690e+00   1.007116393600000e+01 -1.03586614e+00   3.48436924e+00  -1.44983298e+00
C     8.487082137749999e+00   3.325862650154445e+00   9.890503711999999e+00 -3.02841000e-02  -3.56298179e+00   1.27514295e+00
C     9.911861960774999e+00   4.551170798203029e+00   6.896633440000000e+00 -2.16556323e+00  -4.53114664e+00   1.62141620e-01
C     3.698139001950000e+00   5.175831799012275e+00   7.065619016000000e+00  3.90397491e+00  -4.46055860e-01  -1.50534442e+00
C     3.579243338175000e+00   4.699635200509650e+00   9.954985936000000e+00 -7.42378850e-01   2.36770867e+00   1.17129600e-02
C     4.826572630275000e+00   5.480483306051154e+00   9.970241328000000e+00 -8.44268900e-01  -2.14868460e-01   8.55437240e-01
C     4.959133218750000e+00   4.446605726291930e+00   6.822692280000000e+00  1.05407334e+00  -5.39441950e-01   9.19005840e-01
C     6.271863632025000e+00   5.093759121131281e+00   6.828623240000001e+00 -2.25515144e+00  -1.38576916e+00   6.11039040e-01
C     6.060793138650000e+00   4.877451021057015e+00   1.010288104000000e+01 -7.43607000e-02  -6.35580508e+00  -9.75089490e-01
C     7.335016899525000e+00   5.462108721739870e+00   1.010950152000000e+01 -2.05082356e+00   1.00212001e+00  -4.97941000e-03
C     7.488654901875000e+00   4.304346857723914e+00   6.898218520000000e+00 -1.56795556e+00   5.14488676e+00  -3.50749300e-01
C     8.662000916475000e+00   5.147655177833369e+00   6.951607360000001e+00 -1.69534588e+00  -2.47774221e+00  -4.21845270e-01
C     8.556427308225000e+00   4.686861652037566e+00   1.007362839200000e+01 -4.44075995e+00   1.40438197e+00  -1.79729810e-01
C     9.635037715650000e+00   5.460316490177750e+00   1.007335829600000e+01  6.32572268e+00  -9.29719370e-01  -3.26907800e-01
