72
Lattice="7.395 0 0 3.6975 6.40425786098592 0 0 0 13.6 " PBC="1 1 1" Properties=species:S:1:pos:R:3:force:R:3 Energy="-580.49607637"
C     3.658759480725000e+00   6.249624172054263e+00   1.353311180000000e+01 -1.81779820e-01   1.98282792e+00   5.25575420e-01
C     1.177237115700000e+00   5.956769307993504e-01   1.353153352000000e+01  6.36974270e-01  -1.18048870e-01   5.80873400e-02
C     1.315529161950000e+00   8.245672841634227e-01   3.411881368000000e+00 -1.10227635e+00   1.66147723e+00   2.46079710e-01
C     2.527876406550000e+00   1.576799244309089e+00   3.380744168000000e+00  1.29584566e+00  -2.20629521e+00   7.17902560e-01
C     6.105068630549999e+00   6.296768796077760e+00   1.356463877600000e+01  9.64163420e-01  -1.35727604e+00   1.43554190e-01
C     3.659449840950000e+00   5.777634530539872e-01   1.353719832800000e+01  8.15539430e-01   1.39438060e-01   4.05010940e-01
C     3.803324483625000e+00   8.891909210790607e-01   3.471281952000000e+00 -1.17113131e+00  -1.93157888e+00  -4.09542630e-01
C     5.030905945874999e+00   1.606778664075585e+00   3.475390239999999e+00 -1.12423456e+00  -4.14978410e-01   4.05009120e-01
C     8.637656502525001e+00   6.303898592310720e+00   1.353906805600000e+01 -7.56011170e-01  -7.80108300e-01   5.31162450e-01
C     6.155483969099999e+00   6.740765746698985e-01   1.358628399200000e+01 -6.85212600e-01  -3.83611787e+00  -3.93774190e-01
C     6.214274699774999e+00   8.951678868546414e-01   3.501743368000000e+00  2.04758831e+00  -1.47009293e+00  -2.19680300e-01
C     7.477508751149999e+00   1.585122473994259e+00   3.440669576000000e+00 -8.34198900e-01  -4.37861810e-01   8.38877300e-02
C     1.188797349450000e+00   2.058352171958082e+00   1.351398136000000e+01  1.55795068e+00  -3.61756925e+00   1.38195360e-01
C     2.422224115500000e+00   2.708999665843271e+00   1.343941133600000e+01  1.29005715e+00  -5.88008400e-02   7.45632270e-01
C     2.539599589125000e+00   2.961678314815420e+00   3.441212080000000e+00 -6.11303700e-02   7.44935120e-01  -3.32631580e-01
C     3.773535685800000e+00   3.655212754013621e+00   3.458559288000000e+00  2.91212550e-01   2.00511842e+00   8.07260220e-01
C     3.667189928625000e+00   2.001623576047095e+00   1.356474567200000e+01  6.03852840e-01   4.71802610e-01  -9.62256850e-01
C     4.926437742225000e+00   2.752447239889347e+00   1.358743006400000e+01 -1.25288560e+00  -5.50853370e-01   3.89151770e-01
C     5.041014726000000e+00   3.005913740663434e+00   3.523747080000000e+00 -8.94843130e-01   1.62628963e+00  -1.04880603e+00
C     6.243872743574999e+00   3.814821781805635e+00   3.448992504000000e+00 -8.06826370e-01  -5.70532910e+00   3.90136730e-01
C     6.158617415475000e+00   2.061479819369170e+00   4.981788800000000e-02 -9.72731460e-01  -8.31943710e-01  -1.54727170e-01
C     7.397100364875000e+00   2.696168543093025e+00   7.169090400000000e-02 -1.44997978e+00   2.09774129e+00  -7.61552180e-01
C     7.435215119250000e+00   3.018285870252853e+00   3.419344640000000e+00  2.14842694e+00   3.02373890e-01   2.31180570e-01
C     8.722004279249999e+00   3.675446110126191e+00   3.442613016000000e+00 -1.24583942e+00   9.48210070e-01  -3.86635990e-01
C     2.464387817250000e+00   4.116335330578272e+00   1.344900246400000e+01 -3.72229360e-01   5.29860000e-04   7.90858220e-01
C     3.665104945350000e+00   4.825951949986768e+00   1.354478508800000e+01  5.37562280e-01   1.72374022e+00  -4.25526040e-01
C     3.747038402475000e+00   5.119398055133162e+00   3.530278888000000e+00 -4.25207360e-01  -4.83813750e-01  -5.38171950e-01
C     4.978802106974999e+00   5.817178965590593e+00   3.491262528000000e+00 -6.26859760e-01   1.16934113e+00  -1.22046850e-01
C     4.911204079199999e+00   4.184601389151783e+00   3.509752000000000e-03 -6.73406910e-01  -2.25269116e+00   2.93898100e-02
C     6.127770614999999e+00   4.827089346182704e+00   6.784917600000000e-02  1.43748043e+00   2.12716967e+00  -8.14615910e-01
C     6.201524980275000e+00   5.154891220704226e+00   3.465199760000000e+00  1.68163785e+00   1.28833589e+00   8.04045500e-02
C     7.475720455274999e+00   5.781469848444490e+00   3.479060608000000e+00 -3.10468210e-01   4.08264414e+00  -4.86437920e-01
C     7.364586620474999e+00   4.080699286014351e+00   2.144284800000000e-02  1.55759073e+00   3.44503093e+00   4.71034250e-01
C     8.670103470074999e+00   4.824611730944405e+00   1.357561248000000e+01 -3.04460999e+00   1.43666951e+00  -7.19053640e-01
C     8.707658940600000e+00   5.116516203138740e+00   3.428540688000000e+00 -4.02913810e-01  -8.87502490e-01   7.47370850e-01
C     9.896597941274999e+00   5.864547930766926e+00   3.509693656000000e+00  1.53948227e+00  -3.17476340e-01  -2.75220570e-01
C     7.408904929425000e+00   1.094558755536246e-01   7.035374248000000e+00  4.74723540e-01  -6.48793600e-02  -7.23241000e-01
C     1.248758967450000e+00   8.121988690435621e-01   6.916023640000001e+00  1.12091624e+00  -6.66633450e-01  -2.75791420e-01
C     1.160626392750000e+00   5.949861675465709e-01   1.007582370400000e+01 -1.22509204e+00  -6.53085320e-01  -2.75745350e-01
C     2.370234603300000e+00   1.308057371729909e+00   1.006992592800000e+01  7.94260140e-01  -1.82341570e-01  -3.14611500e-02
C     2.511883757700000e+00   6.714800323631401e-02   6.850689512000000e+00 -1.09233533e+00   1.80120558e+00  -4.09372200e-02
C     3.684030118425000e+00   8.503544767347631e-01   6.804313104000000e+00  1.38382074e+00  -3.30688620e-01   2.61224510e-01
C     3.610483959375000e+00   5.839718046660498e-01   1.012301924000000e+01  1.22193985e+00   5.11027170e-01   3.05736530e-01
C     4.896314653425000e+00   1.309252854544635e+00   1.013332600000000e+01 -4.12604921e+00  -8.15488250e-01  -6.44924760e-01
C     4.913182796325000e+00   7.438744036383661e-02   6.904263992000000e+00  2.44210390e-01   2.11649521e+00  -2.61269450e-01
C     6.164572904775000e+00   7.496817206232355e-01   6.956349408000000e+00 -1.11176490e-01   2.93285934e+00   6.15114600e-02
C     6.039875124000000e+00   5.833088999349613e-01   1.012178789600000e+01  2.09674997e+00  -1.46462564e+00   8.63718400e-02
C     7.281294627899999e+00   1.246324168514225e+00   1.004974502400000e+01  1.27347511e+00   1.19836298e+00   6.55272640e-01
C     1.286547195600000e+00   2.221285457877486e+00   6.831669912000001e+00 -5.81692180e-01   8.28805030e-01   8.20681730e-01
C     2.508326060174999e+00   2.994748237297417e+00   6.833061055999999e+00 -6.02603180e-01   3.18983140e-01  -4.30601550e-01
C     2.367339423825000e+00   2.735043925325112e+00   1.000823360800000e+01  4.70256130e-01  -4.26881930e-01   1.73677170e-01
C     3.620970734925000e+00   3.423087545961884e+00   9.996114512000000e+00 -5.95864100e-01  -1.46169190e-01   2.86592080e-01
C     3.731230332825000e+00   2.322640843834311e+00   6.768382312000000e+00 -7.56710100e-01  -3.48992989e+00   5.15052050e-01
C     4.975948561350000e+00   2.936715350230662e+00   6.824070640000000e+00  1.28285120e-01   2.02208354e+00   1.89820480e-01
C     4.850362678050000e+00   2.689187325642417e+00   1.000223220000000e+01  1.41454000e-02   1.78309299e+00   7.38569910e-01
C     6.050864278874999e+00   3.408497878045861e+00   1.007466430400000e+01  1.76514513e+00   1.53991065e+00   3.49796750e-01
C     6.184683496350000e+00   2.230284977192672e+00   6.926110623999999e+00  2.64857710e-01  -1.76602220e+00  -4.34614570e-01
C     7.418236605974999e+00   2.932946252352317e+00   6.924368600000000e+00  1.06185433e+00  -1.60474229e+00  -4.84736180e-01
C     7.299504001950000e+00   2.660060888980295e+00   1.010509648000000e+01 -5.93278920e-01   1.95169104e+00  -6.90343820e-01
C     8.532505518524999e+00   3.430706947708241e+00   1.003188550400000e+01 -1.23510700e-02  -1.66512091e+00   8.13156380e-01
C     9.916025382750000e+00   4.443398473955641e+00   6.901932544000000e+00 -1.10971657e+00  -2.37994397e+00   2.70262400e-01
C     3.726501784950000e+00   5.105889489986486e+00   6.999334656000000e+00  2.08247584e+00  -3.37790330e-01  -9.12310630e-01
C     3.618547134600000e+00   4.828620988492502e+00   1.006540420000000e+01 -4.00872210e-01   1.64616708e+00  -1.46399000e-01
C     4.862967159750000e+00   5.580970402727321e+00   1.005180569600000e+01 -6.15613470e-01  -1.21668130e-01   7.33935890e-01
C     4.978753189050000e+00   4.376694926214812e+00   6.857417704000000e+00  3.30237900e-01   8.21155000e-03   4.30017090e-01
C     6.251960285325000e+00   5.057234229618972e+00   6.847516904000000e+00 -1.41926165e+00  -4.44619640e-01   4.03704940e-01
C     6.094688601825000e+00   4.923234740285262e+00   1.013911116800000e+01 -1.58925720e-01  -3.80958415e+00  -6.09186400e-01
C     7.347205597349999e+00   5.563993355566246e+00   1.017503611200000e+01 -8.66400220e-01   7.81189280e-01  -1.79213770e-01
C     7.467900834375000e+00   4.312436844337823e+00   6.892964567999999e+00 -6.33025220e-01   2.32813946e+00  -1.99455860e-01
C     8.671462375274999e+00   5.095739061491278e+00   6.921978808000000e+00 -9.18837960e-01  -1.35685115e+00  -2.28038970e-01
C     8.575089699974999e+00   4.821955629039549e+00   1.014449962400000e+01 -2.35034742e+00   8.21072620e-01  -1.73751050e-01
C     9.725531439899999e+00   5.565367709303002e+00   1.013513820000000e+01  3.36768028e+00  -8.92674690e-01  -2.24840330e-01
