72
Lattice="7.395 0 0 3.6975 6.40425786098592 0 0 0 13.6 " PBC="1 1 1" Properties=species:S:1:pos:R:3:force:R:3 Energy="-570.16899532"
C     3.625357522875000e+00   6.274003132364768e+00   1.359394854400000e+01  8.96790040e-01  -2.37023848e+00   4.22194740e-01
C     1.209641377125000e+00   4.653073107781098e-01   1.349612211200000e+01 -4.43056260e-01   3.61549400e-02   7.87594410e-01
C     1.305090749700000e+00   1.007607121889768e+00   3.306719776000000e+00  3.30711983e+00  -2.39022319e+00   1.01188743e+00
C     2.673359091975000e+00   1.555033285248043e+00   3.119020056000000e+00 -3.60011813e+00   5.50762110e+00   1.74678577e+00
C     6.149791076250001e+00   6.184352936583823e+00   1.133577680000000e-01 -2.60955280e-01   1.94870567e+00  -3.98052840e-01
C     3.691292637000000e+00   4.852041231401364e-01   1.060836720000000e-01 -1.31194632e+00   1.29621067e+00  -3.58719180e-01
C     3.881183295750000e+00   9.671512969029913e-01   3.418968872000000e+00  1.48394760e+00   6.03755371e+00  -3.12294940e-01
C     5.098351303874999e+00   1.731248233458144e+00   3.572688040000000e+00  5.82593510e-01   4.78104130e-01   4.94583130e-01
C     8.590976563349999e+00   6.202481981648753e+00   1.290327200000000e-01  2.18179690e-01   1.74050762e+00   3.69960080e-01
C     6.079973180400000e+00   4.980660503706889e-01   1.167260800000000e-01  2.43284061e+00   3.86728752e+00   3.73292220e-01
C     6.366691380900000e+00   9.999790103527225e-01   3.738562615999999e+00 -3.20273048e+00   5.89081430e-01  -1.14314515e+00
C     7.528350448424999e+00   1.719035185633966e+00   3.450437640000000e+00  5.43043390e-01   1.00472827e+00  -1.19582350e-01
C     1.230132404475000e+00   1.822522869245278e+00   1.339557840000000e+01 -8.54341430e-01   5.82387333e+00   1.74234879e+00
C     2.485815347400000e+00   2.590536009481821e+00   1.318462417600000e+01 -1.66544447e+00   1.01205287e+00   2.61791887e+00
C     2.646609306375000e+00   3.054642778081495e+00   3.278713432000000e+00  1.01370950e-01   8.15771550e-01   3.85897780e-01
C     3.829674754350000e+00   3.881278829661433e+00   3.550008952000000e+00 -8.35339490e-01  -3.35252313e+00   8.19512800e-02
C     3.699388830899999e+00   1.903771062969376e+00   1.354723336000000e+01 -1.47022375e+00   3.33068640e-01  -1.44139507e+00
C     4.852504085174999e+00   2.657864933002680e+00   1.128455920000000e-01  2.52803597e+00   2.66251630e-01   1.22405777e+00
C     5.088017715750000e+00   3.211333257481550e+00   3.620816128000000e+00 -3.97390700e-01  -3.71480336e+00  -1.42046580e+00
C     6.329754650024999e+00   3.781879175969895e+00   3.466056832000000e+00  1.01708584e+00   5.77178231e+00   7.78019600e-01
C     6.113574581400000e+00   1.976309658131609e+00   3.347634560000000e-01  7.68751470e-01  -6.52255750e-01  -1.33307436e+00
C     7.391195494349999e+00   2.702555317329067e+00   3.582450800000000e-01  9.66777060e-01  -1.49339385e+00  -3.19774334e+00
C     7.574039790375000e+00   3.133252097354379e+00   3.315059296000000e+00 -2.15669034e+00  -7.66511860e-01   8.24761150e-01
C     8.789220133424999e+00   3.826478427706935e+00   3.339803544000000e+00  1.33727721e+00  -7.85907580e-01  -5.86649490e-01
C     2.425439461500000e+00   4.061032770764970e+00   1.331279248000000e+01  1.08194195e+00   8.04959820e-01   2.29403362e+00
C     3.679375113824999e+00   4.848963024860955e+00   1.355613456000000e+01 -6.96912500e-01  -3.16898020e+00  -6.41151100e-01
C     3.741026526300000e+00   5.223469999189042e+00   3.828885928000000e+00  4.00538641e+00   2.04085543e+00  -1.18717358e+00
C     4.976035637474999e+00   6.030329062071515e+00   3.672299608000000e+00  2.74340838e+00  -1.83886814e+00  -1.08778334e+00
C     4.906219886175000e+00   4.060647682739848e+00   1.490240400000000e-01  7.29492400e-02   3.06946734e+00   1.96538990e-01
C     6.192055202100000e+00   4.864447815898071e+00   4.060550640000000e-01 -1.62711513e+00  -3.93590802e+00  -1.58764914e+00
C     6.320687788424999e+00   5.366708206869009e+00   3.527105872000000e+00 -1.73336476e+00  -2.39460208e+00   1.85443090e-01
C     7.565111178300000e+00   6.093442190728293e+00   3.488816568000000e+00 -2.30344400e-02  -1.04582061e+01  -2.58084690e-01
C     7.476874925699999e+00   4.216430678801141e+00   3.329042000000000e-01 -5.68364488e+00  -6.04111515e+00   1.08301401e+00
C     8.603895406500000e+00   4.848169857524995e+00   1.577349760000000e-01  4.98888805e+00  -2.41430194e+00  -2.77928657e+00
C     8.785036929825001e+00   5.224286478023613e+00   3.443137976000000e+00  3.53311500e-02   3.10852691e+00   1.87515076e+00
C     1.000934876677500e+01   5.962402941505211e+00   3.777000840000000e+00 -3.16341614e+00   2.23866560e-01  -1.47420819e+00
C     7.405001885399999e+00   1.889956694509884e-01   7.023900879999999e+00 -3.39353630e-01  -8.36744100e-01  -1.50239137e+00
C     1.272267080850000e+00   8.340519900540828e-01   6.760769440000000e+00 -3.20182109e+00   2.57549826e+00   3.40442400e-02
C     1.095414139875000e+00   4.602565287742422e-01   1.006533307200000e+01  1.61260858e+00   6.35335000e-02  -2.42291570e-01
C     2.358052339125000e+00   1.169196218126937e+00   9.830797263999999e+00 -1.96753240e+00   6.77568020e-01   3.43435010e-01
C     2.446243704075000e+00   1.836366505163190e-01   6.815554591999999e+00  1.80036439e+00  -3.39887476e+00  -3.48988270e-01
C     3.629759507550000e+00   9.410641929360672e-01   6.779039815999999e+00 -9.48539200e-02  -1.22761562e+00  -2.81531020e-01
C     3.582796783575000e+00   4.879006359120894e-01   9.919925272000000e+00 -3.38189167e+00  -2.29938641e+00   7.75811780e-01
C     4.701841941750000e+00   1.167626982823501e+00   1.002186298400000e+01  7.65579850e+00   2.32371103e+00   2.50562320e-01
C     4.800007756650000e+00   2.417545861274544e-01   6.907842287999999e+00  2.95794237e+00  -3.53170645e+00  -1.46327660e-01
C     6.053666244375000e+00   9.059646970956582e-01   6.904895303999999e+00  2.22233114e+00  -5.89177291e+00   7.86074060e-01
C     6.056468912400000e+00   3.614843642678268e-01   1.025436817600000e+01 -1.33117553e+00   2.54881248e+00  -9.59744510e-01
C     7.266776616000000e+00   1.171330693229097e+00   1.018248388000000e+01 -1.78298707e+00  -1.69763492e+00   3.97400570e-01
C     8.655215967000000e+00   2.288199577616753e+00   6.546964384000000e+00  7.97367890e-01  -1.01521203e+00   1.56412851e+00
C     2.463664364400000e+00   3.105116975766406e+00   6.590251687999999e+00  1.84305300e-02  -2.99520764e+00  -1.99304910e-01
C     2.316134706000000e+00   2.594133281121783e+00   9.707729368000001e+00 -2.09849880e-01  -6.47987880e-01   1.28628292e+00
C     3.559860414600000e+00   3.338427163649979e+00   9.771371384000000e+00  7.70749100e-01  -3.12456330e-01   8.76852890e-01
C     3.664216584000000e+00   2.302408704530735e+00   6.620184200000000e+00  1.61425579e+00   4.62665152e+00   4.47365200e-01
C     4.952321203575000e+00   3.066717878191368e+00   6.688146256000000e+00 -5.27985900e-01  -4.73968420e+00   5.14871990e-01
C     4.811750572950000e+00   2.675568158962499e+00   9.875622863999999e+00 -8.26931680e-01  -3.02920781e+00   1.47515030e+00
C     6.077437250025000e+00   3.359981910286802e+00   1.018655803200000e+01 -3.81263804e+00  -5.19793731e+00  -5.46275640e-01
C     6.155512107074999e+00   2.199770417639395e+00   6.827890880000000e+00 -5.52410210e-01   6.71898560e+00  -1.01732053e+00
C     7.432592556449999e+00   2.843469355789062e+00   6.757553584000000e+00 -1.47722360e+00   4.87185643e+00  -1.57145000e-02
C     7.206683330025000e+00   2.597805290450971e+00   1.023263850400000e+01  2.69560115e+00  -2.63953654e+00  -1.53930960e+00
C     8.415476648549999e+00   3.204429083252998e+00   9.931852744000000e+00  1.87471320e+00   4.00567854e+00   1.08777163e+00
C     9.881518611899999e+00   4.471064867910841e+00   6.780030303999999e+00  5.90621840e-01   1.75134904e+00   1.02611458e+00
C     3.827820975750000e+00   5.165675286472101e+00   6.975396888000000e+00 -4.35257415e+00   3.04715490e-01  -1.23456545e+00
C     3.603833487975000e+00   4.745953098885999e+00   1.006697826400000e+01  2.06451627e+00  -3.03863957e+00  -8.38962360e-01
C     4.825542210975000e+00   5.428143484009046e+00   1.011634816800000e+01  5.39624420e-01   1.51543350e-01   3.41500570e-01
C     5.026743744075000e+00   4.441746623725812e+00   6.776511031999999e+00 -2.57308477e+00   3.74076500e-02   4.14400250e-01
C     6.213219100500000e+00   5.097763127187931e+00   6.805299647999999e+00  1.19217135e+00   2.97119877e+00   6.92903360e-01
C     6.066715165574999e+00   4.654831524861718e+00   1.021752808800000e+01 -7.56871310e-01   8.28514941e+00  -1.11256133e+00
C     7.258466817524999e+00   5.470423497804666e+00   1.012944116000000e+01  5.02666030e-01  -1.83801236e+00   3.73660100e-02
C     7.417401192825000e+00   4.380169684401912e+00   6.850609680000001e+00 -2.63799650e-01  -2.08653376e+00  -7.31011910e-01
C     8.574549199425000e+00   5.137165131543846e+00   6.893320480000000e+00  2.16257557e+00   1.82005198e+00  -3.17214970e-01
C     8.423443725749999e+00   4.693190659867710e+00   1.008337442400000e+01  3.59592102e+00  -8.25701650e-01  -1.92565600e-01
C     9.827990495999998e+00   5.341382248948746e+00   1.018431743200000e+01 -7.15650730e+00   3.56047384e+00  -2.91708690e-01
