72
Lattice="7.395 0 0 3.6975 6.40425786098592 0 0 0 13.6 " PBC="1 1 1" Properties=species:S:1:pos:R:3:force:R:3 Energy="-580.43612803"
C     3.711107761350000e+00   6.321745273646603e+00   1.324422481600000e+01 -1.61310193e+00  -1.35074410e-01  -1.82062620e-01
C     1.179470775450000e+00   6.464433547704131e-01   1.320679924800000e+01  1.85634241e+00   3.77597200e-01   4.49174310e-01
C     1.306546566375000e+00   8.269630529862704e-01   3.592813456000000e+00 -4.35048960e-01   2.36267890e-01   1.37595620e-01
C     2.536544640675000e+00   1.536647429442926e+00   3.563892376000000e+00 -1.55593213e+00   2.11194857e+00  -1.66333010e-01
C     6.081817308525000e+00   6.356930586542337e+00   1.327731497600000e+01  3.53592003e+00  -1.49438816e+00  -1.35326780e-01
C     3.670532727449999e+00   6.732625934958925e-01   1.323548178400000e+01  4.34984530e-01  -8.41879370e-01   7.42632810e-01
C     3.707918630625000e+00   8.108320082885022e-01   3.597717752000000e+00  2.10977360e+00   9.16601280e-01   3.91905330e-01
C     4.933771104900000e+00   1.531461325470477e+00   3.674900200000000e+00  2.14974500e+00   4.58899010e-01  -6.62860410e-01
C     8.654581254149999e+00   6.318395974870981e+00   1.330738960800000e+01 -2.21578947e+00   1.29750704e+00  -6.24418090e-01
C     6.194911151099999e+00   6.542196608343397e-01   1.327660274400000e+01 -1.86922068e+00  -1.96281911e+00   3.26397490e-01
C     6.234975005625000e+00   8.528868483777643e-01   3.680675576000000e+00 -1.46161632e+00  -1.76325920e+00   3.15937900e-02
C     7.465502487975000e+00   1.544078930263670e+00   3.606804728000000e+00 -5.00783760e-01  -1.40903185e+00   5.40139600e-02
C     1.233359878275000e+00   2.065592889937176e+00   1.319177927200000e+01 -7.90691140e-01  -1.37678120e-01   4.95381400e-01
C     2.449757845050000e+00   2.777322209971109e+00   1.316844316800000e+01 -1.46127740e-01   8.85149450e-01   2.34351990e-01
C     2.531812506225000e+00   3.040128808493377e+00   3.560098112000000e+00 -3.02739770e-01  -2.83857246e+00   4.82515050e-01
C     3.799559652150000e+00   3.710768794353021e+00   3.684741976000000e+00 -2.31888406e+00  -1.49940390e+00  -8.83820830e-01
C     3.693281744100000e+00   2.126075149465067e+00   1.321282146400000e+01 -9.78528000e-01  -3.02325109e+00   2.34374580e-01
C     4.911407811450000e+00   2.774451309257628e+00   1.330959144800000e+01  1.05073131e+00  -5.74466970e-01   9.15024900e-02
C     4.978457684850000e+00   2.970588494733460e+00   3.641534640000000e+00  1.33105220e-01  -1.25613418e+00   5.22661130e-01
C     6.219033825975000e+00   3.645569926996397e+00   3.662214256000000e+00 -2.33132260e-01   3.91136400e-02  -3.34577080e-01
C     6.126309252075000e+00   2.039513471079685e+00   1.333920993600000e+01  1.96721169e+00   1.40248736e+00  -1.35332830e-01
C     7.404814717949999e+00   2.765949656948478e+00   1.331156100000000e+01 -1.48218179e+00  -7.38720000e-01   4.56382400e-02
C     7.410507499874999e+00   2.913889486493786e+00   3.590147312000000e+00  2.13456839e+00   2.36531949e+00  -6.18323300e-02
C     8.642744262524999e+00   3.677541134999932e+00   3.566554303999999e+00  1.06257771e+00   3.71157920e-01   4.33876830e-01
C     9.810454066949999e+00   4.202131379936490e+00   1.317671904000000e+01  1.81037151e+00  -3.03116600e-02   2.09542340e-01
C     3.696096244125000e+00   4.908269526688328e+00   1.317722115200000e+01 -2.30467860e-01  -9.73780410e-01   1.05712287e+00
C     3.764882389575000e+00   5.085265794357348e+00   3.694750080000000e+00  3.06988110e-01   1.83329626e+00   1.96047400e-01
C     4.964705092425000e+00   5.820352659615695e+00   3.679594784000000e+00  2.80140979e+00  -1.13112222e+00  -4.07852520e-01
C     4.949202214425000e+00   4.158367051296659e+00   1.332096757600000e+01 -1.54305125e+00   2.12208684e+00  -5.15914380e-01
C     6.160450081350000e+00   4.872811520492916e+00   1.334645071200000e+01 -8.46104750e-01   1.95417032e+00   1.93067930e-01
C     6.260000018400000e+00   5.049218596438817e+00   3.663192368000000e+00 -1.68472098e+00   2.47398437e+00  -1.55044290e-01
C     7.478817961950000e+00   5.824096780888387e+00   3.632852808000000e+00 -2.02710664e+00  -1.52300941e+00   9.29146100e-02
C     7.376694490949999e+00   4.162956790777185e+00   1.336666724800000e+01  4.39714400e-01   1.24693650e+00  -5.91544760e-01
C     8.590765436100000e+00   4.895898870078216e+00   1.323729656800000e+01  5.90713740e-01   6.39801730e-01   8.12794910e-01
C     8.676152469150001e+00   5.117913740288950e+00   3.670937024000000e+00  1.23000680e+00  -9.56005440e-01  -3.74057730e-01
C     9.945748512974999e+00   5.789419069470637e+00   3.720365680000000e+00 -1.45276939e+00   1.52332286e+00  -5.16853400e-01
C     7.390768174274999e+00   6.870891300453180e-02   6.966270472000000e+00  2.90793971e+00  -1.01732376e+00  -4.87500550e-01
C     1.253310552975000e+00   8.264986162062630e-01   6.872511799999999e+00  2.73964710e-01  -2.84964326e+00   2.81643060e-01
C     1.149158966250000e+00   6.195529006975309e-01   1.023046780800000e+01  2.44716816e+00  -1.66029388e+00  -2.92866300e-02
C     2.451763997625000e+00   1.324716063232762e+00   1.018524400000000e+01 -3.66089261e+00  -3.15040040e-01  -1.33148840e-01
C     2.539337177550000e+00   6.768660132234000e-02   6.820351720000000e+00 -3.04665925e+00   4.41663000e-01   2.85139730e-01
C     3.762384839250000e+00   7.456458213624421e-01   6.783846872000000e+00 -5.91160600e-01   1.33983609e+00   4.00950600e-01
C     3.612102466050000e+00   5.873873875105237e-01   1.025062504800000e+01  9.79635290e-01   6.13713830e-01  -1.11631840e-01
C     4.845369167325000e+00   1.273758151951685e+00   1.024204657600000e+01  9.54479100e-01   1.32120395e+00  -1.31005390e-01
C     4.981842709124999e+00   6.733135713884580e-02   6.907876016000000e+00  6.95968700e-01  -2.75583430e-01  -4.03437700e-02
C     6.218094513075000e+00   7.783494843374250e-01   6.978266216000001e+00 -1.80928117e+00   7.24164130e-01  -6.10824870e-01
C     6.085534146450000e+00   5.970907347645240e-01   1.027181969600000e+01  1.07763254e+00   7.20542330e-01  -1.76246830e-01
C     7.357838793899999e+00   1.310641745946733e+00   1.025203550400000e+01 -2.53689495e+00   7.17771760e-01  -5.67151840e-01
C     8.642401615199999e+00   2.211336699462291e+00   6.882955104000000e+00 -8.02415580e-01   1.07207088e+00  -6.15880580e-01
C     2.480098642650000e+00   2.878280211727721e+00   6.797341880000000e+00  3.74487840e-01   1.10825008e+00   5.85468450e-01
C     2.395968463800000e+00   2.735488829118645e+00   1.012156635200000e+01 -1.88607410e-01   1.61800030e-01   5.12326790e-01
C     3.604107250875000e+00   3.460385047142423e+00   1.015956828800000e+01  1.65274897e+00  -1.28432413e+00  -1.08467010e-01
C     3.710221544550000e+00   2.181174181963577e+00   6.770560488000000e+00  1.62778107e+00   2.15486770e-01   4.33627350e-01
C     4.984279509525000e+00   2.908499534993653e+00   6.846887359999999e+00 -2.60422329e+00   5.15933340e-01   4.57248000e-03
C     4.885373639999999e+00   2.698978155058786e+00   1.020395175200000e+01 -1.71977121e+00   1.21219678e+00  -8.71940000e-04
C     6.118734072900000e+00   3.422509049349391e+00   1.024351836800000e+01 -1.76564492e+00   8.20640970e-01  -3.55719240e-01
C     6.182781058649999e+00   2.207670774178069e+00   6.889776048000000e+00  1.30288371e+00   6.71511880e-01   1.70028090e-01
C     7.403252783025000e+00   2.989282715554535e+00   6.861360616000000e+00  5.66675830e-01  -3.53356714e+00   3.96778260e-01
C     7.314319625625000e+00   2.743579007860291e+00   1.019181579200000e+01  1.53367048e+00  -1.11976185e+00   5.22653870e-01
C     8.538008211974999e+00   3.441891343634945e+00   1.019796013600000e+01  1.28447600e+00   9.67941350e-01  -2.30054770e-01
C     9.874732590150000e+00   4.316608129609777e+00   6.899188335999999e+00  8.13470440e-01  -8.45494180e-01  -4.42017270e-01
C     3.715888924650000e+00   4.995485592141845e+00   6.902715904000000e+00 -1.70208118e+00   3.32408545e+00   4.72772020e-01
C     3.596695020525000e+00   4.866898789423671e+00   1.018189064800000e+01  1.06543631e+00   2.34802830e-01   3.56780220e-01
C     4.826669874525000e+00   5.555228680386786e+00   1.025394929600000e+01  1.47915123e+00   1.19317785e+00  -4.82336530e-01
C     4.923365489475000e+00   4.371701206148476e+00   6.900411928000000e+00  1.78888950e+00  -3.04251648e+00  -3.82802510e-01
C     6.136039001475000e+00   5.059364541953522e+00   6.877455808000000e+00  2.72788867e+00   6.05803210e-01  -1.94873430e-01
C     6.102261599475000e+00   4.855986574456018e+00   1.026497454400000e+01 -1.32717987e+00   3.11791540e-01   5.32001200e-02
C     7.296867906299999e+00   5.609246610115949e+00   1.031725566400000e+01  1.66895375e+00  -2.46487395e+00  -5.11953320e-01
C     7.424232878700000e+00   4.356000335451165e+00   6.851044744000000e+00 -9.58017360e-01   1.64053169e+00   2.65871390e-01
C     8.688769374450001e+00   5.056150308976167e+00   6.898118696000000e+00 -1.61489357e+00  -1.26219190e-01  -3.40089600e-02
C     8.593283211750000e+00   4.883927390860518e+00   1.028815275200000e+01 -2.70581687e+00  -2.87884290e-01  -4.66736430e-01
C     9.793947132825000e+00   5.608023588992425e+00   1.024588857600000e+01 -2.10653600e-01  -1.07784955e+00  -1.24328570e-01
