72
Lattice="7.395 0 0 3.6975 6.40425786098592 0 0 0 13.6 " PBC="1 1 1" Properties=species:S:1:pos:R:3:force:R:3 Energy="-570.94033395"
C     3.599499167550000e+00   6.212417163037286e+00   3.844137920000000e-01  6.97799800e-02  -3.16988246e+00  -1.44988526e+00
C     1.104871827225000e+00   4.636016007396774e-01   4.197321760000000e-01  3.42976735e+00  -1.93544447e+00  -6.52767480e-01
C     1.491224119875000e+00   1.154590667651421e+00   3.408594656000000e+00 -1.12409591e+00  -2.23648838e+00  -6.13804720e-01
C     2.745734289750000e+00   1.781766620522288e+00   3.653012496000000e+00 -8.54909580e-01   1.58603915e+00  -1.46897435e+00
C     6.070421909325000e+00   6.089593039626697e+00   2.362402960000000e-01  8.15157510e-01   1.67657002e+00   5.48860870e-01
C     3.621445826700000e+00   3.958138761857281e-01   4.311556320000000e-01  2.13560049e+00   9.86861350e-01  -3.17413310e+00
C     3.974003597925000e+00   1.104638737194993e+00   3.438905656000000e+00  1.86550626e+00   2.17390541e+00  -3.72236770e-01
C     5.204064307875000e+00   1.890007608359871e+00   3.297871616000000e+00  8.75019270e-01  -5.63397130e-01  -1.66021235e+00
C     8.671731627225000e+00   6.130730405734936e+00   1.196009840000000e-01 -4.46609739e+00   1.31956532e+00   8.71480090e-01
C     6.124088274750000e+00   5.378815776566233e-01   1.240874880000000e-01 -1.19705740e-01  -3.41449722e+00   5.90489480e-01
C     6.484960503300000e+00   1.191947152046851e+00   3.038809024000000e+00 -4.34833083e+00  -2.56887990e+00   7.34573640e-01
C     7.651863476250000e+00   1.863332913734292e+00   3.277714784000000e+00  2.18446420e+00   9.52697140e-01   1.46877437e+00
C     1.189482902925000e+00   1.848608051934844e+00   5.427988480000000e-01 -7.06331420e-01   1.14457033e+00  -2.01614450e+00
C     2.426825210550000e+00   2.541157900529649e+00   6.550208799999999e-01 -9.57504100e-02   8.80501740e-01  -1.28449593e+00
C     2.712663997650000e+00   3.245534171901622e+00   3.608482288000000e+00  2.80674437e+00  -1.12939777e+00  -9.39504160e-01
C     4.017478581074999e+00   3.932468639119621e+00   3.330621096000000e+00 -4.79191613e+00   2.16278582e+00  -1.08591575e+00
C     3.678926644050000e+00   1.898394432325591e+00   4.046771120000000e-01 -2.01130732e+00  -2.77379413e+00   1.76723780e+00
C     4.875668885700000e+00   2.589035107609751e+00   2.359257280000000e-01  1.64511778e+00  -2.75317100e-02  -1.86518779e+00
C     5.217220567500000e+00   3.348193400716164e+00   3.085437168000000e+00  1.25125107e+00  -4.02588267e+00   2.74330780e+00
C     6.467670438675000e+00   4.011062203918170e+00   3.185180792000000e+00  5.71692830e-01   1.15456918e+00   1.50818566e+00
C     6.104374683750000e+00   1.884014439811905e+00   2.045984000000000e-02  1.43670289e+00   2.43082906e+00   8.83630810e-01
C     7.409974209450000e+00   2.585772906741024e+00   1.124706400000000e-01 -1.42010074e+00  -7.79451860e-01   1.75743956e+00
C     7.667992341000000e+00   3.269159607232319e+00   3.583740896000000e+00 -2.30821951e+00  -1.74300610e-01  -3.25213760e+00
C     8.884350078975000e+00   3.933705045142073e+00   3.521963848000000e+00  1.31448762e+00   2.05375165e+00  -1.95529020e-01
C     2.354786226450000e+00   3.969900821842956e+00   6.053429360000000e-01  2.81801296e+00   8.49109250e-01  -2.47319566e+00
C     3.617391850725000e+00   4.693150249000614e+00   5.110752159999999e-01  1.85954823e+00   1.10885111e+00  -2.51572094e+00
C     3.899903516400000e+00   5.331992069904100e+00   2.979944960000000e+00  6.94234890e-01   1.46985860e+00   1.94564738e+00
C     5.083375763325000e+00   6.116344777474332e+00   3.173274264000000e+00  4.13669847e+00   3.27997880e-01   6.46735160e-01
C     4.960174286850000e+00   3.975161023078846e+00   8.282862399999999e-02 -4.12381437e+00   1.96470888e+00   2.09465289e+00
C     6.169097942250000e+00   4.701885336508761e+00   1.348378473600000e+01 -1.28480692e+00   1.49565470e-01   2.53166678e+00
C     6.450763102274999e+00   5.460510731318643e+00   3.309297384000000e+00 -1.99678642e+00  -1.62548987e+00  -1.14169776e+00
C     7.718820690299999e+00   6.123303195766958e+00   3.290931400000000e+00 -2.53956221e+00  -5.68338470e-01   9.83536470e-01
C     7.391324093400000e+00   3.991396713350046e+00   1.254810800000000e-01  5.45809510e-01   1.33653537e+00  -2.22691181e+00
C     8.642149186875001e+00   4.723402682279682e+00   9.898229600000000e-02 -7.89947310e-01  -1.25785841e+00   2.95651818e+00
C     8.891968592849999e+00   5.369934479851142e+00   3.242223952000000e+00  8.81266970e-01   1.05332270e-01  -5.87255740e-01
C     1.006915187295000e+01   6.095151743321441e+00   2.893278280000000e+00  1.45696664e+00   3.13897650e-01   2.82745115e+00
C     7.257593652900000e+00   3.417606589957560e-01   6.328906064000000e+00  4.16752017e+00  -3.91716336e+00   4.48429440e-01
C     1.161096160125000e+00   9.873888157831698e-01   6.434236160000000e+00  1.38365030e-01  -7.34589140e-01  -2.98626230e-01
C     1.100318910600000e+00   2.809252046468869e-01   1.030691381600000e+01  1.57828230e+00   1.47655713e+00   1.58179660e+00
C     2.357277491025000e+00   1.008212004044645e+00   1.069009980000000e+01 -2.54471564e+00   2.47871940e-01  -2.12658080e-01
C     2.415987098550000e+00   2.493946095841200e-01   6.303473792000000e+00 -2.43607627e+00  -7.26664850e-01   8.07223460e-01
C     3.554517379200000e+00   1.022632407425429e+00   6.376042440000000e+00  1.06754756e+00   2.95372170e-01  -4.58222170e-01
C     3.553903335375000e+00   2.602580881494594e-01   1.075036221600000e+01  5.36397050e-01   2.83563461e+00  -2.31968716e+00
C     4.806406021575000e+00   9.841610698217299e-01   1.045096161600000e+01 -1.78877400e+00   9.92929430e-01   1.80674025e+00
C     4.727193221925000e+00   2.984455250022247e-01   6.136727048000000e+00  3.86533783e+00  -1.31439694e+00   2.25040183e+00
C     6.042714877949999e+00   9.366488413970689e-01   6.307771936000000e+00 -2.71178412e+00   1.58577096e+00  -4.26041570e-01
C     5.934756456150000e+00   2.649733510840416e-01   1.024318938400000e+01  4.70241860e+00  -1.19364391e+00   2.66834440e-01
C     7.259553660675000e+00   9.946927437873426e-01   1.021176454400000e+01 -2.71074879e+00  -1.07049920e+00  -1.56268310e-01
C     8.622428496674999e+00   2.369616587578040e+00   6.565202800000000e+00 -3.07169193e+00   2.45232010e+00  -3.50109100e-01
C     2.403907218150000e+00   3.179559300620103e+00   6.485442336000000e+00 -8.37767840e-01  -3.68099200e-01   1.29174002e+00
C     2.293043374800000e+00   2.494376205799078e+00   1.085611364000000e+01  9.43857410e-01  -4.24846444e+00  -1.84170175e+00
C     3.516423774525000e+00   3.172793010063277e+00   1.067669781600000e+01  3.14709534e+00  -1.41880379e+00   1.43816560e-01
C     3.587930836275000e+00   2.450282698305242e+00   6.499689559999999e+00  2.46950676e+00   4.42969960e-01  -9.27328710e-01
C     4.899920381474999e+00   3.153225952938461e+00   6.370316432000000e+00 -2.98358819e+00  -2.02021646e+00   1.41934860e-01
C     4.853491502550000e+00   2.419874577517597e+00   1.055492804000000e+01 -4.01524245e+00   2.39441450e-01  -7.75204330e-01
C     5.999871982425001e+00   3.148660485595225e+00   1.029437339200000e+01  2.30910220e-01   2.26789500e-02   2.43483510e-01
C     6.061311010500000e+00   2.348197739293006e+00   6.390610488000000e+00  5.60633950e-01   2.00201759e+00   6.21920360e-01
C     7.272589936425000e+00   3.091862787741928e+00   6.553689719999999e+00  2.92854973e+00  -3.13980492e+00  -8.14191150e-01
C     7.167860356499999e+00   2.394174162640260e+00   1.021906733600000e+01  4.39050029e+00  -2.44777510e-01   1.77613117e+00
C     8.466149591924999e+00   3.041958504963979e+00   1.057190070400000e+01 -2.42868542e+00   3.92037509e+00  -1.70458836e+00
C     9.787237612350001e+00   4.622841808552968e+00   6.483956264000000e+00  1.66015771e+00  -9.55611400e-01  -1.32083037e+00
C     3.717069129675000e+00   5.262315729707237e+00   6.349690944000000e+00 -5.39159831e+00   2.64620825e+00   3.29781000e-02
C     3.582598412700000e+00   4.529978660646240e+00   1.044134968000000e+01 -5.44578690e-01   1.57710660e+00  -1.13645680e-01
C     4.828999817175000e+00   5.265720745526242e+00   1.031939412800000e+01 -1.60767935e+00  -1.06382220e-01   9.27819200e-02
C     4.879911360225000e+00   4.563240774906615e+00   6.239315384000000e+00  1.99392057e+00  -1.55478744e+00   1.10102430e+00
C     6.147783185849999e+00   5.186697390982708e+00   6.247533456000000e+00 -1.18057070e+00   2.66787914e+00   2.40405100e-02
C     6.035608726650000e+00   4.576065365313843e+00   1.033012711200000e+01 -1.97345930e-01   3.30610840e-01   1.96761310e-01
C     7.214594833800000e+00   5.344513546786815e+00   1.042377168000000e+01  2.53113869e+00  -4.66212185e+00   1.88176030e-01
C     7.322332736700000e+00   4.448448103193094e+00   6.373790143999999e+00  9.91658490e-01   2.91990764e+00  -6.27768900e-02
C     8.542077162824999e+00   5.270349358851978e+00   6.281061127999999e+00 -1.02926175e+00  -3.00265340e-01   8.00567940e-01
C     8.501072664300001e+00   4.515975750835349e+00   1.041922411200000e+01 -1.70850798e+00   1.45510560e-01   6.56392150e-01
C     9.716523331574999e+00   5.213241694918257e+00   1.039894216000000e+01 -4.43769680e-01   1.23640901e+00  -5.64879540e-01
