72
Lattice="7.395 0 0 3.6975 6.40425786098592 0 0 0 13.6 " PBC="1 1 1" Properties=species:S:1:pos:R:3:force:R:3 Energy="-570.30633614"
C     3.711041797950000e+00   6.382941415798148e+00   1.332351240800000e+01 -2.18750500e-01  -1.09507297e+00   7.43112640e-01
C     1.178308725150000e+00   7.230989911405260e-01   1.330637940000000e+01  2.26989982e+00  -2.24763968e+00   1.11552993e+00
C     1.221950206725000e+00   7.794937971318499e-01   3.390489928000000e+00  2.80545051e+00  -1.62631507e+00   1.04636091e+00
C     2.491637504850000e+00   1.501407680355383e+00   3.389680456000000e+00  8.76134220e-01  -2.39640699e+00   5.87451660e-01
C     6.032219413275000e+00   6.353018737756291e+00   1.342765209600000e+01  5.33166060e+00   3.26405880e-01  -6.08822460e-01
C     3.730195069800000e+00   7.428932713342141e-01   1.320846048800000e+01 -1.38573157e+00  -3.67087090e+00   3.10388364e+00
C     3.745979068725000e+00   7.600306170695238e-01   3.522210824000000e+00 -2.93771599e+00  -9.45187830e-01  -4.15694600e-02
C     4.885006663124999e+00   1.485106858781746e+00   3.547990712000000e+00  4.91478530e+00   5.71942240e-01   8.81005050e-01
C     8.689981969574999e+00   6.385854776741240e+00   1.333613987200000e+01 -2.22858518e+00  -1.06571063e+00   6.53148320e-01
C     6.229023435675000e+00   6.736554947156035e-01   1.342748454400000e+01 -4.16326786e+00   1.89683038e+00   9.03847290e-01
C     6.199793995650000e+00   7.867804976823792e-01   3.567737639999999e+00  8.66253100e-02  -9.40320530e-01   4.77904230e-01
C     7.494737104500000e+00   1.524662437241143e+00   3.447916744000000e+00 -5.46589279e+00  -3.13964388e+00   1.43789680e-01
C     1.288022904825000e+00   2.103498155188630e+00   1.335143932800000e+01 -3.78510269e+00   1.33818748e+00  -4.00646520e-01
C     2.448194024400000e+00   2.797049117372110e+00   1.302537266400000e+01  8.07266050e-01   1.32311862e+00   3.21551973e+00
C     2.571300142350000e+00   2.878042741846272e+00   3.456364520000000e+00 -4.02856991e+00   2.33190248e+00  -4.01713240e-01
C     3.782348270325000e+00   3.643608046643565e+00   3.543043303999999e+00 -1.62803863e+00  -3.77787023e+00   1.10999345e+00
C     3.682973520825000e+00   2.128307993967956e+00   1.336393228800000e+01  4.80321650e-01  -3.72381910e-01  -2.79680078e+00
C     4.929526226999999e+00   2.804374947938164e+00   1.347581173600000e+01 -2.07475373e+00   1.77237895e+00   1.74640997e+00
C     4.968583289250000e+00   2.911022364292442e+00   3.726839824000000e+00  1.41834750e-01  -8.19698100e-02  -2.94251025e+00
C     6.218940168299999e+00   3.597779369525141e+00   3.528955064000000e+00 -3.64448033e+00   1.64662494e+00   6.72369510e-01
C     6.084161782350000e+00   2.159092941288083e+00   1.560914160000000e-01  4.84451673e+00  -4.12337879e+00  -2.62779770e+00
C     7.399592036175000e+00   2.812887679613412e+00   4.273800000000000e-02  2.20006620e-01  -1.62077511e+00  -7.47750150e-01
C     7.350978526350000e+00   2.875448120816872e+00   3.378231432000000e+00  4.24259618e+00   2.40961713e+00   5.90238410e-01
C     8.554638716549999e+00   3.617853900042783e+00   3.445987856000000e+00  4.71661432e+00  -2.84478100e-02  -8.26014140e-01
C     9.795144642149999e+00   4.237946423507597e+00   1.314560210400000e+01  4.39901512e+00  -1.72562350e+00   8.78098790e-01
C     3.724275889949999e+00   4.949774689325466e+00   1.331163784000000e+01 -1.78439260e+00  -1.67896400e-02   7.38549000e-02
C     3.716115988125000e+00   4.987166653309441e+00   3.646079352000000e+00 -6.74732890e-01   3.01179901e+00  -4.65069200e-02
C     4.883608083750000e+00   5.704633932215619e+00   3.581797184000000e+00  3.81941141e+00   2.79731515e+00  -8.99092270e-01
C     4.926458744025000e+00   4.240123294796790e+00   8.641167999999999e-03 -1.69299318e+00  -8.18718350e-01  -1.42754526e+00
C     6.121519436625000e+00   4.918995377752256e+00   1.059501200000000e-01  1.80819294e+00   2.13780214e+00  -1.74405010e+00
C     6.195696943800000e+00   5.056037978293302e+00   3.515130120000000e+00 -6.60339270e-01  -1.66898688e+00   8.04328510e-01
C     7.458354148200000e+00   5.711199065033062e+00   3.619647480000000e+00 -2.65162197e+00   3.09645402e+00  -2.08887306e+00
C     7.411801366050000e+00   4.171709746164761e+00   1.356199629600000e+01 -1.86294852e+00   2.58010951e+00   1.03264387e+00
C     8.623994831625000e+00   4.842230868998523e+00   1.341089689600000e+01 -9.07835760e-01   5.34132198e+00  -1.03233305e+00
C     8.647530084674999e+00   5.065090973161619e+00   3.464623392000000e+00  1.14499532e+00  -2.79722123e+00   2.03073460e+00
C     9.903432659100000e+00   5.734951176584230e+00   3.710011320000000e+00 -9.70000300e-01   1.47315465e+00  -2.25752221e+00
C     1.109011788562500e+01   6.401934203120656e+00   7.302212367999999e+00  4.13054370e-01   2.83859878e+00  -2.92034625e+00
C     1.302856054650000e+00   7.317095158332960e-01   6.924870031999999e+00 -3.10224644e+00   8.27353000e-01   1.44045980e-01
C     1.310158765050000e+00   6.587522102921760e-01   1.021245896000000e+01 -7.91014937e+00  -1.70127239e+00  -8.95017600e-01
C     2.434172364900000e+00   1.341989563490176e+00   1.024809177600000e+01  2.22302106e+00   2.71363573e+00  -1.17942457e+00
C     2.469272510550000e+00   2.128442291255280e-02   6.662246960000000e+00  1.22045914e+00  -2.82808460e-01  -1.00571640e-01
C     3.723606198750000e+00   7.268800649810701e-01   6.453122072000000e+00 -3.07762550e-01   8.52358790e-01   2.15805719e+00
C     3.637408525800000e+00   6.315859888758421e-01   1.037213329600000e+01  2.48481084e+00   1.78528584e+00   1.80227126e+00
C     4.901277696749999e+00   1.369092510838853e+00   1.048176738400000e+01 -1.22080338e+00   1.21209369e+00  -4.17828188e+00
C     4.943130993375000e+00   2.409544381504260e-02   6.912043192000000e+00 -2.18658520e+00   1.31383808e+00  -2.05989563e+00
C     6.114470855400000e+00   7.014445302088225e-01   7.051823312000000e+00  3.99211474e+00   2.99977729e+00   1.10784493e+00
C     6.112671356100000e+00   6.927672731491513e-01   1.028977346400000e+01 -2.97097400e-01  -1.79681421e+00   1.14537483e+00
C     7.253772508500000e+00   1.443185419383708e+00   1.010456308800000e+01  5.36768796e+00  -6.18463975e+00   7.61162680e-01
C     8.620818124500000e+00   2.212730906398412e+00   6.765136672000000e+00  2.17014863e+00  -3.63186081e+00   1.26191465e+00
C     2.477361124575000e+00   2.884650847233956e+00   6.704885952000000e+00  7.87367650e-01   1.95498150e-01  -1.59574118e+00
C     2.417809041675000e+00   2.798379730027682e+00   1.002928382400000e+01  9.56077700e-01  -2.30506720e-01   8.05106180e-01
C     3.668863823850000e+00   3.534964743327217e+00   9.985219824000000e+00 -8.09548120e-01  -2.83135826e+00   4.21378020e-01
C     3.705058392525000e+00   2.184858359382699e+00   6.394623848000000e+00  4.28084680e-01  -6.21094480e-01   2.76864520e+00
C     4.959214748625000e+00   2.935789102416370e+00   6.633810584000000e+00 -1.70507260e-01  -4.53088793e+00   8.16508020e-01
C     4.929165092174999e+00   2.772490517628632e+00   9.998538304000000e+00 -9.84703220e-01   4.32643770e-01   2.50186749e+00
C     6.158339326500000e+00   3.486517173042103e+00   1.011051009600000e+01 -1.37302990e+00   1.76343756e+00   1.08105722e+00
C     6.208650432524999e+00   2.187773321390257e+00   6.968219216000000e+00 -3.62913269e+00  -2.49001237e+00  -1.80712060e+00
C     7.402142349824999e+00   2.822206643310655e+00   6.912577264000000e+00  5.97086710e-01   4.66622376e+00  -3.67092760e-01
C     7.352126932875001e+00   2.738898263875574e+00   1.017165610400000e+01  3.14193800e-01   5.89631734e+00  -4.81622630e-01
C     8.591294770199999e+00   3.498291529202870e+00   1.012303950400000e+01  5.10409990e-01   7.39432070e-01   1.45352599e+00
C     2.531112791325000e+00   4.303819274961406e+00   6.869156408000000e+00 -4.08610993e+00   3.20795050e-01   9.63923920e-01
C     3.647691125400000e+00   5.038446378547983e+00   7.115524760000000e+00  4.77007598e+00  -2.34534147e+00  -1.69196332e+00
C     3.579189095849999e+00   4.901672820879635e+00   1.012093259200000e+01  5.03257755e+00   1.27446613e+00  -4.65959630e-01
C     4.889972109824999e+00   5.621620212684677e+00   1.015799585600000e+01  1.60409760e-01   1.11706944e+00   1.15849619e+00
C     4.956537943499999e+00   4.258616550006219e+00   6.831404711999999e+00 -1.22038789e+00   4.38027555e+00   4.37637180e-01
C     6.201810834000000e+00   4.964161982693113e+00   6.701547560000000e+00 -2.66166804e+00   2.51147898e+00   1.39852806e+00
C     6.110451561974999e+00   4.958662966681625e+00   1.036670716800000e+01  1.68584711e+00  -2.05119743e+00  -1.05587377e+00
C     7.395748928625000e+00   5.684168165585310e+00   1.062860712800000e+01 -1.74821869e+00  -2.83223388e+00  -2.68822367e+00
C     7.389983342924999e+00   4.348846971549281e+00   6.804304536000000e+00  2.98277040e+00  -3.47061446e+00   1.31230970e-01
C     8.648190753974999e+00   5.058207420643377e+00   6.912658320000000e+00 -1.18548480e-01  -3.50473232e+00  -3.73865080e-01
C     8.650187071200000e+00   4.940909915595655e+00   1.045473276000000e+01 -2.51925005e+00  -1.44873446e+00  -9.82165590e-01
C     9.853297369200000e+00   5.624108074735551e+00   1.035134583200000e+01 -1.89289497e+00   2.15555018e+00  -4.14011920e-01
