72
Lattice="7.395 0 0 3.6975 6.40425786098592 0 0 0 13.6 " PBC="1 1 1" Properties=species:S:1:pos:R:3:force:R:3 Energy="-578.53628112"
C     3.702101908500000e+00   6.239868245843232e+00   1.408330320000000e-01 -1.07367665e+00  -3.36918918e+00   1.39043516e+00
C     1.234063401600000e+00   4.773340587411396e-01   1.983785760000000e-01  6.08789550e-01   1.44636167e+00  -7.81936020e-01
C     1.406173818150000e+00   1.068726156776678e+00   3.396737224000000e+00  9.70310300e-02  -1.07335353e+00  -3.33192190e-01
C     2.620133431575000e+00   1.741935402804597e+00   3.273104520000000e+00  1.02611061e+00   1.85213019e+00   6.88382560e-01
C     6.179608492724999e+00   6.208693663474903e+00   2.327257840000000e-01 -1.30773139e+00  -7.94481820e-01  -1.90650450e-01
C     3.701593576200000e+00   4.810317491443464e-01   1.236497040000000e-01 -9.03341330e-01   9.17746680e-01   1.31836998e+00
C     3.848976222000000e+00   1.052268623013208e+00   3.338120000000000e+00  2.39807710e-01  -1.44750914e+00  -1.82449520e-01
C     5.099048208675000e+00   1.719657807583115e+00   3.325908288000000e+00  9.04877100e-02   1.76408920e-01   1.53476303e+00
C     8.578283600475000e+00   6.144920447960494e+00   2.723522400000000e-01  1.72898681e+00   2.59895085e+00   7.63788100e-02
C     6.134920655625000e+00   4.433870731452162e-01   2.865541760000000e-01 -2.17492200e-02   4.48052800e-01  -1.22234367e+00
C     6.354744129825000e+00   1.026549956000969e+00   3.479527904000000e+00 -7.03356240e-01  -4.73807530e-01  -4.30723180e-01
C     7.576441723350000e+00   1.760392281829381e+00   3.407016648000000e+00 -6.27614200e-01  -2.64784550e+00   1.78436140e-01
C     1.242191615850000e+00   1.886250294315988e+00   8.799186400000000e-02 -1.33978766e+00   2.13498544e+00   9.68463790e-01
C     2.470978426125000e+00   2.619426064986331e+00   1.033776800000000e-01 -1.75719541e+00   1.78802906e+00   1.14423590e-01
C     2.645516140500000e+00   3.203353039847360e+00   3.295530648000000e+00 -1.22196171e+00  -5.15965420e-01  -9.68369800e-02
C     3.859286183100000e+00   3.915869507214865e+00   3.328121008000000e+00  1.39072532e+00  -1.08275455e+00   1.38457455e+00
C     3.673326928200000e+00   1.921014783427740e+00   1.781119920000000e-01  4.32376750e-01  -5.82075160e-01  -1.37473608e+00
C     4.896014564325000e+00   2.598229508491617e+00   1.436225280000000e-01  1.18468745e+00   9.66458850e-01   1.04535908e+00
C     5.052620882699999e+00   3.117257527391608e+00   3.484148232000000e+00  2.14927085e+00   2.56777615e+00  -1.73192630e+00
C     6.353267348324999e+00   3.848998616216154e+00   3.461546528000000e+00 -1.64302976e+00  -3.08919640e-01  -4.33088020e-01
C     6.107342260275001e+00   1.825241092451377e+00   1.969588720000000e-01  1.57801248e+00   3.94937437e+00   1.49005900e-02
C     7.367284834124999e+00   2.635321176824537e+00   1.803713600000000e-01 -3.01575050e-01  -5.00548710e-01  -1.07172097e+00
C     7.574740466624999e+00   3.109252012938872e+00   3.348326800000000e+00  2.21520120e-01   4.63128401e+00   5.57668790e-01
C     8.800890626625000e+00   3.898151807632283e+00   3.346317128000000e+00 -1.82511760e-01   4.51542140e-01   9.52397100e-02
C     2.396413383975000e+00   4.112551374821690e+00   1.306575120000000e-01  2.26035200e+00  -2.79041652e+00   9.16450420e-01
C     3.658596827700000e+00   4.782197163691148e+00   1.661706480000000e-01  1.28034801e+00   2.78871000e-03  -8.94271000e-03
C     3.902378881725000e+00   5.338412018195857e+00   3.476550864000000e+00 -9.19004340e-01  -1.53248401e+00  -4.65116980e-01
C     5.100900138525000e+00   6.058933295547733e+00   3.418707208000000e+00  1.70272669e+00  -1.45973808e+00   1.80203370e-01
C     4.935831795600000e+00   4.036870146284976e+00   2.430563440000000e-01 -1.76118248e+00   4.06970760e-01  -7.15037240e-01
C     6.160182086550000e+00   4.785816850233619e+00   3.172745360000000e-01 -2.38269197e+00   7.90768240e-01  -1.23061606e+00
C     6.362676450524999e+00   5.279800122175979e+00   3.388616256000000e+00 -8.86094760e-01   6.59900500e-01   5.87435410e-01
C     7.588567378799999e+00   6.022003718981250e+00   3.414671816000000e+00 -1.71764434e+00   1.29148165e+00  -4.30547990e-01
C     7.336529324924999e+00   4.152845172084610e+00   1.426652240000000e-01  2.40488234e+00  -5.54756203e+00   1.78658772e+00
C     8.585305633650000e+00   4.789022437462863e+00   3.536635120000000e-01 -6.77519680e-01  -1.49042389e+00  -2.50974010e+00
C     8.817448734149998e+00   5.399887065777205e+00   3.449564248000000e+00 -1.10131908e+00  -5.67582022e+00  -1.06392970e-01
C     1.003823337795000e+01   5.970833314424379e+00   3.547747136000000e+00  1.93520285e+00   4.22409667e+00  -8.01235120e-01
C     7.384541732175000e+00   1.930114593421014e-01   6.517185280000000e+00  2.80668910e-01  -6.09087440e-01   5.61675320e-01
C     1.215338817900000e+00   9.245419761682104e-01   6.537461384000000e+00  9.46667300e-02  -2.02698355e+00   2.66817690e-01
C     1.115811694425000e+00   4.105817745979950e-01   1.029929972000000e+01 -1.06847089e+00  -1.14812950e-01  -1.09445827e+00
C     2.350990742700000e+00   1.115594180903202e+00   1.008034638400000e+01 -2.03860889e+00  -1.07612174e+00   3.73457150e-01
C     2.463928957500000e+00   1.715973502078836e-01   6.666626976000000e+00 -1.10261155e+00   3.42875144e+00  -4.72103740e-01
C     3.710384937075000e+00   8.466010692881744e-01   6.653315568000000e+00 -5.75751050e-01   1.83738175e+00   2.92712360e-01
C     3.509065712550000e+00   3.731553557067336e-01   9.987030936000000e+00  3.53517466e+00   1.07767223e+00   1.60094064e+00
C     4.801289938724999e+00   1.136300875714204e+00   1.018702451200000e+01 -1.35316686e+00  -6.74011880e-01  -9.87217920e-01
C     4.950527731200000e+00   2.127057690705948e-01   6.727334519999999e+00  2.09269490e-01  -1.42142156e+00  -1.00702889e+00
C     6.181945497599999e+00   9.175676112735132e-01   6.579632400000000e+00 -8.82492990e-01   9.05347610e-01   5.27234190e-01
C     6.037177095225000e+00   4.397821163958223e-01   1.028310565600000e+01  1.06778160e-01  -1.75838100e-02  -4.53320640e-01
C     7.275249917924999e+00   1.188961935330570e+00   1.032294019200000e+01  6.13517550e-01  -2.05132054e+00   2.53248720e-01
C     8.593971279525000e+00   2.309508272666595e+00   6.490320928000000e+00 -3.80195120e-01   1.04654396e+00   6.23050500e-01
C     2.439892545300000e+00   2.941263654162834e+00   6.597046248000000e+00  5.76006170e-01   3.21957240e+00  -1.12571293e+00
C     2.346342208725000e+00   2.494800231711988e+00   1.007368102400000e+01 -7.34195410e-01   3.97652673e+00   8.62506560e-01
C     3.556454536425000e+00   3.290969627587442e+00   1.019490394400000e+01  2.87487800e-01  -3.27018164e+00  -8.11939010e-01
C     3.692338068150000e+00   2.279043153983996e+00   6.597562640000000e+00 -7.20403790e-01  -9.16546620e-01   6.49993450e-01
C     4.905489038324999e+00   2.983946815990741e+00   6.669008472000000e+00 -8.81367440e-01   3.55249173e+00  -1.99818080e-01
C     4.803025656150000e+00   2.575464357119254e+00   1.019306848800000e+01  1.07096980e-01  -1.16586516e+00   5.97760410e-01
C     6.056966300100000e+00   3.253885836491690e+00   1.027613266400000e+01 -1.75825064e+00   9.78255150e-01   1.96130610e-01
C     6.125784650775000e+00   2.381791850280843e+00   6.606351096000000e+00  2.33943373e+00  -2.99992597e+00  -4.35007830e-01
C     7.369694716724998e+00   3.092240895125983e+00   6.503571952000000e+00 -7.18159740e-01  -2.26597975e+00   5.98736740e-01
C     7.286411450250000e+00   2.614977219178725e+00   1.032875120000000e+01 -5.85428890e-01  -2.43412000e+00  -9.07119450e-01
C     8.483948173724999e+00   3.278005616486601e+00   1.015783224800000e+01  2.60306905e+00  -4.37044050e-01   5.26075590e-01
C     9.838168604249999e+00   4.412784200107484e+00   6.503493752000000e+00 -8.93119960e-01   3.17346650e-01   1.62867470e+00
C     3.677098082400000e+00   5.137101537263296e+00   6.576133255999999e+00 -1.08086699e+00   1.07876697e+00  -1.55438350e-01
C     3.596268883650000e+00   4.656290222674491e+00   1.025996267200000e+01 -3.02732236e+00   1.83963312e+00  -3.37993850e-01
C     4.795570349925000e+00   5.334688838846367e+00   1.026449609600000e+01  2.58986110e-01   3.48230799e+00   3.80560410e-01
C     4.890523961700000e+00   4.470892209118936e+00   6.680466200000000e+00 -1.38592400e-02  -1.40386406e+00  -2.02377320e-01
C     6.083538383850000e+00   5.237594461814115e+00   6.700206464000000e+00  1.12959128e+00  -4.93208008e+00  -1.92077470e-01
C     6.013687321425000e+00   4.672688004712128e+00   1.025619248000000e+01  7.91517300e-02  -1.16561677e+00  -5.27334220e-01
C     7.193347889549999e+00   5.377295405750269e+00   1.011374349600000e+01  3.05147742e+00   4.77475740e-01   3.80563490e-01
C     7.302858632774999e+00   4.453750636573438e+00   6.608859752000000e+00  2.52189939e+00   3.54519870e+00   5.10644390e-01
C     8.599653893325000e+00   5.198158002550914e+00   6.648165791999999e+00  1.86111980e-01  -2.34967472e+00  -6.17900080e-01
C     8.497328686725000e+00   4.693086974932957e+00   1.018735227200000e+01 -6.07793870e-01   5.47454060e-01  -7.01729500e-01
C     9.730270599599999e+00   5.406091895047444e+00   1.019271516000000e+01  5.74342310e-01   5.22698300e-02   6.99718670e-01
