72
Lattice="7.395 0 0 3.6975 6.40425786098592 0 0 0 13.6 " PBC="1 1 1" Properties=species:S:1:pos:R:3:force:R:3 Energy="-579.87834141"
C     3.695861822625000e+00   6.392620362829701e+00   1.342767508000000e+01 -9.25212320e-01  -3.23171590e-01   5.05365650e-01
C     1.211398650975000e+00   6.726803824138399e-01   1.340816547200000e+01  6.08140440e-01   6.51247470e-01   6.44081690e-01
C     1.221589071900000e+00   7.676727539312832e-01   3.391928536000000e+00  1.35141117e+00  -1.62490309e+00   7.55988860e-01
C     2.505862637775000e+00   1.417963210440777e+00   3.387303312000000e+00 -1.38607050e+00   1.72805070e+00   4.72463130e-01
C     6.112153299375000e+00   6.371166355169016e+00   1.347215388000000e+01  2.60916946e+00   1.84588680e-01  -1.71757520e-01
C     3.705894101475000e+00   7.122654845019715e-01   1.337187441600000e+01 -6.69960550e-01  -1.98336172e+00   1.43408550e+00
C     3.724969503975000e+00   7.289530592077734e-01   3.489555728000000e+00  1.89765450e-01   1.78453878e+00  -1.59539100e-01
C     4.918334116350001e+00   1.469222954394796e+00   3.509205008000000e+00  2.22184846e+00   1.04835140e-01   4.56244440e-01
C     8.652550402275001e+00   6.378680599001311e+00   1.341991301600000e+01 -2.04991309e+00  -2.62134010e-01   4.78397060e-01
C     6.147027231975000e+00   6.775280213583882e-01   1.348410528800000e+01  6.89387340e-01   1.56322565e+00   3.42363240e-01
C     6.210713452650000e+00   7.413348592265616e-01   3.519569024000000e+00 -1.68251357e+00   1.03851642e+00   1.27736600e-01
C     7.430384816175000e+00   1.487404066076128e+00   3.441180256000000e+00 -1.00051606e+00  -1.11800870e+00  -1.00977010e-01
C     1.264471567650000e+00   2.088283367662893e+00   1.343048320800000e+01 -2.48505814e+00   1.44442693e+00  -1.79974490e-01
C     2.460167934450000e+00   2.795373763515934e+00   1.323970268000000e+01  4.98639550e-01   1.01756813e+00   2.02328466e+00
C     2.504977789050000e+00   2.859068847084450e+00   3.444997232000000e+00 -8.31502760e-01   3.31520800e-01  -2.86824360e-01
C     3.745085456925000e+00   3.606029398542971e+00   3.492812384000000e+00 -2.48118759e+00  -9.91618370e-01   6.78908580e-01
C     3.707198024850000e+00   2.107991062290314e+00   1.345065962400000e+01 -1.10362779e+00   7.31623300e-02  -1.80136536e+00
C     4.912081163174999e+00   2.816250171160226e+00   1.351205070400000e+01  2.05926670e-01   6.74339190e-01   1.14224000e+00
C     4.936921190025000e+00   2.923101114829295e+00   3.591894640000000e+00  1.27400186e+00  -2.44192753e+00  -1.55861521e+00
C     6.187174576049999e+00   3.574847899576153e+00   3.476101520000000e+00  1.38574300e-01   2.28481485e+00   3.49521890e-01
C     6.104800302975001e+00   2.122466798459007e+00   6.731292799999999e-02  2.97309347e+00  -5.36712320e-01  -1.34195676e+00
C     7.400248490325000e+00   2.871053455030761e+00   2.773665600000000e-02  3.71070900e-02  -3.07543810e+00  -7.39310210e-01
C     7.425299644424999e+00   2.884430925019044e+00   3.404068576000000e+00 -1.64285436e+00  -7.13020900e-02   4.80264840e-01
C     8.603718111375001e+00   3.582730836533448e+00   3.447473792000000e+00  3.37088461e+00   8.65871150e-01  -5.91320000e-01
C     9.826579234200000e+00   4.236302066259463e+00   1.330614248800000e+01  1.65735748e+00   7.76766700e-02   9.04691130e-01
C     3.697401498600000e+00   4.991592187618436e+00   1.342839560800000e+01 -2.24437750e-01  -2.24519373e+00  -1.75120140e-01
C     3.696533806275000e+00   4.994007937725807e+00   3.564670160000000e+00  5.94738300e-02   1.10933128e+00  -2.37610870e-01
C     4.877188817025000e+00   5.724949326871375e+00   3.524270816000000e+00  3.50154592e+00   6.78498900e-01  -5.74390540e-01
C     4.942569712874999e+00   4.234923037414470e+00   1.357876577600000e+01 -1.23710304e+00   1.19314555e+00  -5.72686130e-01
C     6.161163550950000e+00   4.955435028592449e+00   4.734037600000000e-02 -1.94045800e-02   3.09344770e-01  -9.90925710e-01
C     6.201247704749999e+00   5.035410888407500e+00   3.485234872000000e+00 -1.71218805e+00  -6.01417700e-01   3.70539270e-01
C     7.439648569649999e+00   5.763372248285652e+00   3.534742952000000e+00 -1.21199869e+00  -2.64925246e+00  -1.18237918e+00
C     7.425373002824999e+00   4.261499170511583e+00   1.357914984000000e+01 -2.17576907e+00  -2.92132670e-01   6.00496320e-01
C     8.615691762599999e+00   4.937609161094610e+00   1.346991844800000e+01  1.63283577e+00   1.46739152e+00  -9.57121170e-01
C     8.630395758750000e+00   5.023431083654584e+00   3.436434536000000e+00  1.07308932e+00  -2.36918030e-01   1.47001802e+00
C     9.888645801974999e+00   5.726118360101139e+00   3.581592096000000e+00 -1.20359046e+00  -1.62434000e-01  -1.16746692e+00
C     7.378924896899999e+00   2.666989143218400e-02   7.115761672000001e+00  1.80127533e+00  -1.35152260e-01  -1.80304793e+00
C     1.264184160975000e+00   7.451234260488018e-01   6.879515256000000e+00 -1.34705673e+00  -9.82507450e-01   1.58669900e-02
C     1.244156023650000e+00   6.775330807220976e-01   1.020196207200000e+01 -2.13720026e+00   1.76853300e-02  -3.83315050e-01
C     2.453678895900000e+00   1.370089269532183e+00   1.023429797600000e+01 -3.58162000e-01   1.26814070e+00  -7.71553190e-01
C     2.478676177425000e+00   2.761522393489860e-02   6.717130848000000e+00 -4.66460940e-01  -1.09891250e+00   1.39428720e-01
C     3.690076381350000e+00   7.376152662614737e-01   6.600034848000000e+00  3.37596410e-01   2.68525660e-01   1.00830464e+00
C     3.661803114825000e+00   6.600529791061207e-01   1.031981572800000e+01  6.21432510e-01   1.99836760e+00   7.55365640e-01
C     4.892655977175000e+00   1.384123368078852e+00   1.035764059200000e+01  1.16896852e+00   8.27940800e-01  -2.26255938e+00
C     4.906777727999999e+00   2.878073482284000e-02   6.853849200000000e+00  6.73245890e-01   1.85946200e-01  -7.28952960e-01
C     6.152996069249999e+00   7.204223956105177e-01   6.956810856000000e+00 -2.19699440e-01   3.14186020e-01   4.19640830e-01
C     6.134729901599999e+00   6.737914571099712e-01   1.026001965600000e+01 -1.76022190e-01  -2.14521810e-01   5.77847540e-01
C     7.344903312000000e+00   1.421200242576114e+00   1.014216409600000e+01  1.19523064e+00  -2.88844782e+00   7.24110620e-01
C     1.249788573300000e+00   2.151368253542508e+00   6.767914608000000e+00  2.26021480e-01   4.24152900e-02   9.41758810e-01
C     2.475641824050000e+00   2.883793124978766e+00   6.733929703999999e+00 -1.76883070e-01  -2.73403000e-03  -8.44898900e-01
C     2.435873510700000e+00   2.817190380256653e+00   1.009680048000000e+01  5.34268070e-01  -8.24733930e-01   4.49093550e-01
C     3.652570235475000e+00   3.559101558648036e+00   1.006471291200000e+01  1.45009206e+00  -2.37635090e+00   3.01878300e-01
C     3.673749478500000e+00   2.163072675207444e+00   6.559636728000000e+00  2.08159802e+00   8.45318220e-01   1.46234269e+00
C     4.965848840100000e+00   2.906056887003270e+00   6.695934568000000e+00 -1.38717160e+00  -2.94486479e+00   5.31388720e-01
C     4.943087214975000e+00   2.823524511493086e+00   1.007800065600000e+01 -2.53481931e+00  -8.30582070e-01   1.36495777e+00
C     6.153022358475000e+00   3.516840373370524e+00   1.015646939200000e+01 -6.04646760e-01   9.59415180e-01   5.42382990e-01
C     6.176599393275000e+00   2.142858980166505e+00   6.907942520000001e+00 -5.15663540e-01   4.51797360e-01  -1.13945905e+00
C     7.414153789499999e+00   2.824427191638453e+00   6.879311120000000e+00 -3.42111960e-01   1.71673695e+00  -2.97100260e-01
C     7.340341595325000e+00   2.791906562353109e+00   1.019587852000000e+01  1.90476809e+00   1.30198915e+00  -5.50285410e-01
C     8.607589356899998e+00   3.494085981151366e+00   1.015232615200000e+01 -8.78546630e-01   1.61699642e+00   9.97610310e-01
C     2.491432293600000e+00   4.311150421061485e+00   6.851366520000000e+00 -4.52604420e-01  -1.67776560e-01   6.26303800e-01
C     3.723733651574999e+00   4.998518584621762e+00   7.001592663999999e+00 -2.98941590e-01   4.49021750e-01  -9.08012300e-01
C     3.651834580875000e+00   4.934608446074307e+00   1.015965900000000e+01  2.06197550e+00   7.87670150e-01  -3.18238680e-01
C     4.920418360125000e+00   5.651201607825174e+00   1.016663960800000e+01 -4.92134010e-01   1.70377190e-01   7.94439790e-01
C     4.957141190625000e+00   4.284001683269108e+00   6.811030959999999e+00 -4.70616530e-01   1.07890032e+00   1.35270070e-01
C     6.187015879350000e+00   4.970702138904903e+00   6.740332176000000e+00 -2.12670080e-01   1.76853550e+00   8.62223740e-01
C     6.139742158650000e+00   4.945081008739873e+00   1.030277397600000e+01  4.43064740e-01   5.09887110e-01  -6.50939620e-01
C     7.361786688599999e+00   5.707838494763605e+00   1.045732968000000e+01  7.51136750e-01  -3.93206948e+00  -1.36953623e+00
C     7.397158008900000e+00   4.277803706554779e+00   6.812515536000000e+00  1.20340589e+00  -6.35788360e-01  -1.30150520e-01
C     8.638169567624999e+00   5.023882135535664e+00   6.868357135999999e+00 -4.54106210e-01  -1.04234136e+00  -1.64454240e-01
C     8.631961095375001e+00   4.944534021076049e+00   1.035099495200000e+01 -1.63822927e+00  -7.20566200e-01  -4.17331340e-01
C     9.858955098825000e+00   5.618688727691840e+00   1.030496697600000e+01 -1.34332351e+00   2.26167950e+00  -4.04763750e-01
