72
Lattice="7.395 0 0 3.6975 6.40425786098592 0 0 0 13.6 " PBC="1 1 1" Properties=species:S:1:pos:R:3:force:R:3 Energy="-574.08194987"
C     1.102884665010000e+01   6.332961690862607e+00   1.341393132800000e+01  1.78812996e+00  -1.02657701e+00  -6.90810890e-01
C     1.153416489600000e+00   6.640143328054237e-01   1.341840749600000e+01  2.16401974e+00  -3.79849966e+00  -5.75631290e-01
C     1.311459693450000e+00   8.461126165411920e-01   3.769595368000000e+00 -8.34774660e-01   3.82663190e-01  -6.58516330e-01
C     2.548515962475000e+00   1.541273352980361e+00   3.814968232000000e+00  9.58989810e-01  -8.71899810e-01  -9.88980330e-01
C     6.115431428925000e+00   6.283052476806105e+00   1.329491392000000e+01  7.09920460e-01   2.62553930e-01   5.45041170e-01
C     3.667595211600000e+00   5.700427359482856e-01   1.348622933600000e+01  9.06840960e-01   6.27608660e-01  -2.26264144e+00
C     3.806760903150000e+00   8.621464446046453e-01   3.650105088000000e+00 -5.56526500e-02   3.99706750e-01   1.80598850e-01
C     5.043983818499999e+00   1.649117661086095e+00   3.611259952000000e+00 -3.01177280e-01  -2.29441285e+00  -1.19264511e+00
C     8.664888479100000e+00   6.286962468357371e+00   1.335254188000000e+01 -1.91058655e+00   1.11024151e+00  -2.48593500e-01
C     6.196821094724999e+00   6.952228577404110e-01   1.322873006400000e+01 -3.06085837e+00  -2.45862002e+00   7.00720240e-01
C     6.256165969724999e+00   9.241148762115271e-01   3.550911720000000e+00  2.27402500e-02  -1.78502439e+00   1.16228940e-01
C     7.489465245975000e+00   1.601365144906527e+00   3.730319792000000e+00 -9.00402060e-01   5.69268570e-01  -1.84546790e-01
C     1.202455877475000e+00   2.034600124449493e+00   1.341745304800000e+01  4.14857900e-02   9.66036880e-01   4.99740200e-02
C     2.466570266625000e+00   2.731456516242254e+00   8.088627200000001e-02 -1.46016323e+00  -1.16048756e+00  -1.97867382e+00
C     2.580903067500000e+00   2.939023572848563e+00   3.746859704000000e+00 -1.48765306e+00   1.57753576e+00   2.80744000e-01
C     3.787377831675000e+00   3.657635036464009e+00   3.621855712000000e+00 -1.56259460e-01   1.56224664e+00  -1.55095015e+00
C     3.654927502650000e+00   2.052713607167823e+00   1.340475010400000e+01  2.23571282e+00  -1.74716222e+00   1.60775424e+00
C     4.901900614575000e+00   2.782985943494757e+00   1.320039582400000e+01 -2.88339720e-01  -1.27822197e+00  -6.15784010e-01
C     5.084341106625000e+00   3.033005992901485e+00   3.436099432000000e+00 -3.12371934e+00   1.99143890e-01   2.37124555e+00
C     6.233010671774999e+00   3.780179357848694e+00   3.608635968000000e+00  1.17853737e+00   6.80616140e-01   9.80579500e-02
C     6.171228737550000e+00   2.093099881914241e+00   1.299336234400000e+01 -2.42962656e+00  -2.17644444e+00   1.63406250e+00
C     7.388791675649999e+00   2.693459862231138e+00   1.304464740000000e+01  2.03946514e+00   3.47938483e+00   1.98669767e+00
C     7.424060168474999e+00   3.056776420630133e+00   3.836791880000000e+00  2.33966712e+00  -9.04830250e-01  -1.40557224e+00
C     8.724174268050000e+00   3.711001396998496e+00   3.774495040000000e+00  2.78538990e-01  -1.28283084e+00   3.66386420e-01
C     2.469907704075000e+00   4.103486147820860e+00   5.640844800000000e-02 -8.76074740e-01   2.58451933e+00  -1.84185399e+00
C     3.678990425925000e+00   4.827508632944799e+00   1.347864012800000e+01 -2.54563900e-02   2.61957552e+00  -4.20115460e-01
C     3.700440141075000e+00   5.096425982189342e+00   3.495700208000000e+00  2.16231312e+00   4.00019530e-01   5.81410450e-01
C     4.967226602550000e+00   5.828151444624710e+00   3.601810536000000e+00 -1.67418037e+00   2.05588649e+00  -9.34821400e-02
C     4.895942795849999e+00   4.184819646259653e+00   1.313641761600000e+01  2.68879290e-01  -2.53558520e-01   9.69980140e-01
C     6.170657954475000e+00   4.860292413185610e+00   1.296947761600000e+01 -1.13740883e+00   1.67514769e+00   2.43120030e+00
C     6.203097933750000e+00   5.253348167638771e+00   3.629233032000000e+00  1.41848336e+00  -4.76766477e+00  -4.63840780e-01
C     7.467973970925000e+00   5.828006516269338e+00   3.583198256000000e+00  1.55534111e+00   1.98049286e+00   1.27584879e+00
C     7.395242814825000e+00   4.146289517568799e+00   1.313372481600000e+01  3.01391920e-01   2.33804230e-01  -8.02485310e-01
C     8.627304944549998e+00   4.845621603322500e+00   1.332063573600000e+01  7.99958610e-01   3.13412730e-01   1.59669374e+00
C     8.748370449225000e+00   5.096994680287311e+00   3.678118912000000e+00 -2.73366780e+00   1.40263274e+00  -1.44726967e+00
C     9.901414267800000e+00   5.851296560615907e+00   3.456983184000000e+00  1.42742802e+00   7.03303870e-01   1.33118986e+00
C     7.441376744174999e+00   8.303306038967941e-02   6.499582800000000e+00 -1.58240593e+00   2.17813227e+00   1.42332658e+00
C     1.267203724350000e+00   7.536535773054289e-01   6.800466208000000e+00  4.80419780e-01   2.16296082e+00   9.56789300e-01
C     1.143381548550000e+00   5.617111807278973e-01   1.010489438400000e+01 -1.46765134e+00   3.53313910e-01   1.18333945e+00
C     2.362388915025000e+00   1.316112070883009e+00   1.018771838400000e+01  9.39234300e-01  -2.97160744e+00  -5.10679840e-01
C     2.469682711199999e+00   5.017005947913960e-02   7.110812495999999e+00  1.33817526e+00   1.21627209e+00  -5.18231380e-01
C     3.726185981475000e+00   8.630696183751644e-01   7.316018543999999e+00 -1.63159273e+00  -1.15351468e+00  -2.35424046e+00
C     3.635437536450000e+00   5.941227455018856e-01   9.976527791999999e+00 -2.13542878e+00  -1.91227061e+00  -7.76615530e-01
C     4.812099506025000e+00   1.284438404699650e+00   9.937329599999998e+00  1.95102348e+00   3.75597610e-01   2.54497420e+00
C     4.845247741425000e+00   1.269505148349438e-01   6.818913791999999e+00  1.45483794e+00  -7.36580700e-01   1.25057452e+00
C     6.083626532249999e+00   7.737015941955301e-01   6.624949096000000e+00  2.92753267e+00   1.26266058e+00   4.54491910e-01
C     6.061067049449999e+00   5.321721817744333e-01   1.002030388000000e+01 -1.25926373e+00   1.01322545e+00  -4.12657550e-01
C     7.240879732725000e+00   1.220923793117629e+00   1.021160025600000e+01  3.04351997e+00   1.52997724e+00  -9.33170780e-01
C     8.666015883825001e+00   2.268737358193106e+00   6.951948720000000e+00  2.39897050e+00  -3.41138109e+00  -4.98472720e-01
C     2.499134334000000e+00   3.036669804780612e+00   7.067601352000000e+00  5.67092680e-01  -2.26087708e+00   1.31897033e+00
C     2.375564475600000e+00   2.682380752303652e+00   1.036113048800000e+01 -1.24769114e+00   1.33656917e+00  -7.69431770e-01
C     3.613456971225000e+00   3.352977701550477e+00   1.037031987200000e+01 -1.12900918e+00   2.97754796e+00  -3.88812570e-01
C     3.752667217650000e+00   2.314805554555494e+00   7.390394904000001e+00 -2.18870755e+00  -1.48417054e+00  -2.73350385e+00
C     4.951664342699999e+00   2.944885902408450e+00   7.117048504000000e+00  1.88867227e+00   4.21165930e-01  -1.12196252e+00
C     4.805468150699999e+00   2.666290694856189e+00   1.030277452000000e+01  2.48423310e+00   1.15113965e+00  -1.41839682e+00
C     6.080733756150000e+00   3.466319040347764e+00   1.021751149600000e+01 -6.78549870e-01  -2.71275180e+00  -1.06041913e+00
C     6.185116621500000e+00   2.182497813978082e+00   6.822884855999999e+00 -9.67763620e-01   1.70015800e-01   9.64516670e-01
C     7.458059457450000e+00   2.857461122191276e+00   6.879664175999999e+00 -2.21931193e+00   2.74383217e+00   1.15336890e-01
C     7.293614993700000e+00   2.661922734825354e+00   1.018249040800000e+01 -1.36721693e+00   9.79203760e-01   3.79916560e-01
C     8.488396229250000e+00   3.399444370836914e+00   1.022975965600000e+01  1.87570366e+00  -5.37816300e-01  -1.36690282e+00
C     9.913009479899999e+00   4.414550494425272e+00   6.886661103999999e+00 -2.61761690e-01   1.07353571e+00  -1.25907538e+00
C     3.764187592350000e+00   5.135125183287700e+00   6.657550336000000e+00  8.77986400e-02  -3.78064691e+00   1.67680444e+00
C     3.599886739500000e+00   4.850308751565077e+00   1.027221980800000e+01  1.10378880e-01  -1.47484704e+00  -5.35533110e-01
C     4.826660224049999e+00   5.551888027359274e+00   1.017338779200000e+01  1.51039607e+00  -5.31294900e-02  -1.05395213e+00
C     4.979384537175000e+00   4.358973384077513e+00   6.893396232000001e+00  5.07810680e-01   9.27821540e-01   1.81324280e-01
C     6.273660801900000e+00   5.021937354551318e+00   7.008573136000000e+00 -3.00298974e+00   1.08601488e+00  -7.59974630e-01
C     6.102631830150000e+00   4.850168114062472e+00   9.980186328000000e+00 -5.50239600e-01  -1.74388790e-01   1.05971668e+00
C     7.378630797750000e+00   5.503039038191496e+00   9.737968424000000e+00 -4.26234690e+00   2.90546012e+00   2.03452243e+00
C     7.474731558899999e+00   4.313604532673436e+00   6.984851879999999e+00 -3.91024830e-01  -7.16599680e-01  -5.06810160e-01
C     8.638197150975000e+00   5.075323440200013e+00   6.830579736000001e+00  2.21471370e-01   4.00949930e-01   3.58610290e-01
C     8.513990657024999e+00   4.777722572766944e+00   9.834162447999999e+00  3.23705702e+00   3.63672500e-02   2.19957493e+00
C     9.779395917375000e+00   5.557366934001083e+00   1.000932133600000e+01 -8.24490310e-01  -2.81421028e+00   1.77054640e-01
