72
Lattice="7.395 0 0 3.6975 6.40425786098592 0 0 0 13.6 " PBC="1 1 1" Properties=species:S:1:pos:R:3:force:R:3 Energy="-579.3393015"
C     3.694308502875000e+00   6.212228557643309e+00   1.351294830400000e+01  4.41363760e-01   1.77777390e+00   2.51088370e-01
C     1.254729875325000e+00   5.733536732193270e-01   1.357919608000000e+01 -1.73719965e+00   4.12226490e-01  -4.26921470e-01
C     1.387872746100000e+00   9.332398549381908e-01   3.646270976000000e+00 -7.77953990e-01   1.21347380e+00  -3.39625550e-01
C     2.550747625575000e+00   1.756255963805343e+00   3.757821032000000e+00  1.35872591e+00  -3.48099913e+00  -7.67177210e-01
C     6.162336250049999e+00   6.269703633850457e+00   1.345570318400000e+01 -6.59368400e-01  -8.18831520e-01   5.44296730e-01
C     3.686276978250000e+00   5.616760853948244e-01   1.346959612800000e+01 -7.15719440e-01   6.72614220e-01  -3.89203500e-02
C     3.780670455750000e+00   9.832597986130921e-01   3.649333696000000e+00 -6.03274800e-02  -1.92351287e+00  -2.45536450e-01
C     5.044880573175000e+00   1.619350478425080e+00   3.536205768000000e+00 -1.68018943e+00   6.64090900e-01   5.85742480e-01
C     8.597357450025001e+00   6.294300787226253e+00   1.340681893600000e+01  1.10192557e+00  -2.42040339e+00   4.68375680e-01
C     6.146236447650000e+00   5.615870662105704e-01   1.347398172000000e+01  5.18641140e-01  -1.71847938e+00   1.48707000e-03
C     6.242365901399999e+00   9.397435068801779e-01   3.470380952000000e+00  2.79090610e+00  -1.74089020e-01   2.03340880e-01
C     7.525439739449999e+00   1.604861421400037e+00   3.578164760000000e+00 -9.55256600e-01   1.75179966e+00   1.07156400e-01
C     1.204414369275000e+00   2.067331389775852e+00   2.830364000000000e-02  1.16225644e+00  -4.23759621e+00  -4.18706780e-01
C     2.427605087250000e+00   2.734625535159118e+00   6.381541600000000e-02  8.72933360e-01  -2.61381050e-01  -6.05967330e-01
C     2.550329992950000e+00   3.146936139166420e+00   3.704388808000000e+00  2.08677229e+00  -1.13558264e+00  -3.35537740e-01
C     3.818002708200000e+00   3.774377804695899e+00   3.565553752000000e+00  7.41452350e-01   1.74555269e+00  -7.20950100e-02
C     3.648011365875000e+00   1.958924211446803e+00   1.357209524800000e+01  1.72148805e+00   2.08157848e+00   1.02598140e-01
C     4.955123575800000e+00   2.668708430283496e+00   1.352510140000000e+01 -2.53639205e+00   7.71190310e-01  -2.43065560e-01
C     5.037263131575000e+00   3.009565128282313e+00   3.587427312000000e+00  1.01378920e-01   3.32856302e+00  -4.27468690e-01
C     6.273510757350000e+00   3.810575566716719e+00   3.583957272000000e+00 -5.80969130e-01  -5.67843159e+00   1.00164550e-01
C     6.158361252674999e+00   1.952861044360426e+00   1.347597724800000e+01 -5.36688640e-01   2.24523930e-01   4.86847900e-02
C     7.368711921224999e+00   2.650762995291411e+00   1.347142260800000e+01 -4.37762710e-01   2.08565066e+00   1.81259730e-01
C     7.495852899075000e+00   3.062689984252899e+00   3.652832976000000e+00  1.39154251e+00   6.59274700e-02  -3.43667350e-01
C     8.757376080225001e+00   3.801041355912801e+00   3.662876712000000e+00 -2.78621687e+00   1.49915362e+00  -2.43084260e-01
C     2.442645925650000e+00   4.159751972058883e+00   1.358257472800000e+01 -2.96989930e-01  -1.61184382e+00  -1.47881280e-01
C     3.689321684625000e+00   4.789605032800388e+00   1.354795932800000e+01 -1.42850160e-01   2.31767156e+00  -2.88872080e-01
C     3.868869326625000e+00   5.258399397940689e+00   3.426680071999999e+00 -1.15815278e+00  -1.69838007e+00   7.89442940e-01
C     5.117435432474999e+00   5.931460129228834e+00   3.494124512000000e+00 -1.54204885e+00  -4.51391670e-01   4.09085250e-01
C     4.916154144300000e+00   4.133449941198178e+00   1.348182171200000e+01  3.54291150e-01  -2.28549265e+00   4.61049030e-01
C     6.124560926175000e+00   4.836504693960740e+00   1.342641898400000e+01  9.97850220e-01  -3.21265870e-01  -3.62314970e-01
C     6.277586770425000e+00   5.137499177633823e+00   3.579374208000000e+00  1.28682654e+00   4.45963115e+00  -6.71832700e-02
C     7.511405286599999e+00   5.875276919917205e+00   3.609520648000000e+00 -4.49089610e-01   2.83710381e+00  -8.38525000e-03
C     7.337180565599999e+00   4.052527147815947e+00   1.338053068000000e+01  1.37152700e+00   2.80988323e+00   7.34376100e-01
C     8.609117903400000e+00   4.824816218897875e+00   1.344723541600000e+01 -1.50145342e+00   6.04027660e-01  -1.30444660e-01
C     8.766435472874999e+00   5.248032313402079e+00   3.571013064000000e+00 -5.91228850e-01  -1.55967577e+00  -8.48523800e-02
C     9.985572732525000e+00   5.960173875514459e+00   3.449552552000000e+00  8.07620520e-01  -1.51563736e+00   2.20833710e-01
C     7.440727167375000e+00   1.418274777585666e-01   6.953982736000000e+00 -5.01552900e-01  -1.12895902e+00   2.67566400e-02
C     1.239382218375000e+00   8.753175053620997e-01   7.014184904000000e+00  1.59581838e+00  -1.05283834e+00  -6.67016140e-01
C     1.111715197200000e+00   4.860804817856988e-01   9.936083159999999e+00 -2.34350670e-01  -5.98240920e-01   9.66259000e-03
C     2.308005345525000e+00   1.186972516668939e+00   1.005807216800000e+01  1.73180455e+00   4.86059410e-01   1.12558150e-01
C     2.514333647250000e+00   1.663799294144988e-01   6.900977144000000e+00 -1.94034687e+00  -7.18652520e-01   3.80639940e-01
C     3.755265931574999e+00   8.160846525001171e-01   6.875471568000000e+00  7.80118310e-01   4.67980070e-01   4.21759830e-01
C     3.547199213250000e+00   4.364604199715761e-01   1.008334368800000e+01  1.26580345e+00   2.06643133e+00  -4.92752230e-01
C     4.857177614250000e+00   1.214129323826219e+00   9.988163951999999e+00 -4.25515488e+00  -1.45590267e+00   6.31446280e-01
C     5.022724117875000e+00   1.121268353367162e-01   6.922536679999999e+00 -9.38210050e-01   1.58371511e+00  -2.49602060e-01
C     6.258620666025000e+00   8.572094662629499e-01   6.975990800000000e+00 -2.15686984e+00   1.40064872e+00  -5.26755510e-01
C     6.028767538199999e+00   5.556627434345988e-01   9.874559072000000e+00  2.17130172e+00  -3.14935711e+00   1.95439740e-01
C     7.305291291974999e+00   1.198071351710633e+00   9.834522712000000e+00 -1.19127933e+00   1.42700316e+00   5.87919720e-01
C     8.621678791574999e+00   2.264909661355341e+00   7.078934911999999e+00  2.52668120e-01   1.79986646e+00  -8.22381870e-01
C     2.506804058250000e+00   2.906610342967531e+00   7.044575192000000e+00 -1.20644744e+00   2.44268888e+00  -6.51667910e-01
C     2.333393896500000e+00   2.637769332476679e+00   1.007509460800000e+01  6.37043870e-01  -8.10028680e-01  -2.58344210e-01
C     3.588665751375000e+00   3.312969662273272e+00   1.001877524000000e+01 -1.08093311e+00   5.26182640e-01   8.49499800e-02
C     3.742428581324999e+00   2.243695429108934e+00   6.933059815999999e+00 -8.93376510e-01  -1.18294401e+00   2.28532400e-01
C     4.937462947725000e+00   2.949359468651396e+00   6.953861560000000e+00  7.29182940e-01   2.46367907e+00  -1.85327500e-01
C     4.809237345224999e+00   2.589395987540162e+00   9.988410384000000e+00 -9.29276100e-02   1.57549422e+00  -5.14971110e-01
C     5.994267385875000e+00   3.301568546260584e+00   9.815297751999999e+00  2.47873949e+00   1.76426736e+00   1.12318756e+00
C     6.194749644300001e+00   2.342787550338035e+00   6.966570759999999e+00  1.87594440e-01  -2.49748217e+00  -1.47813630e-01
C     7.388458161149999e+00   3.091434150763359e+00   6.994797559999999e+00  1.48322560e+00  -3.45389440e+00   2.58044200e-02
C     7.299094318950000e+00   2.632552167853608e+00   9.828601952000000e+00 -7.44927280e-01   3.59888250e-01   8.73881150e-01
C     8.540386296074999e+00   3.387230874714687e+00   9.991684312000000e+00 -1.23648814e+00  -2.56259615e+00  -2.47685940e-01
C     9.871961868525000e+00   4.384771784100107e+00   6.975918992000000e+00 -7.39490090e-01  -1.69271997e+00  -5.73285000e-03
C     3.655451808150000e+00   5.094796418776865e+00   6.934307616000000e+00  2.83483394e+00   1.06028661e+00   1.39278660e-01
C     3.557790923850000e+00   4.723657251529616e+00   9.888400608000000e+00  1.46943300e-02   1.78366105e+00   5.46257290e-01
C     4.822606950599999e+00   5.468174770742284e+00   9.881363424000000e+00 -2.61467610e+00   2.97494190e-01   4.14490590e-01
C     4.916342125200000e+00   4.402372798104482e+00   6.970287911999999e+00 -4.68512940e-01  -4.67545400e-01  -6.01999350e-01
C     6.123710796975000e+00   5.139622957625356e+00   6.920708432000000e+00  1.93121556e+00   2.02671730e-01  -1.65854020e-01
C     6.007603861650001e+00   4.791697239800672e+00   9.897187431999999e+00  1.03233367e+00  -3.56884010e+00   1.31517300e-01
C     7.244511639075000e+00   5.436547407343252e+00   1.001397104000000e+01  8.55292990e-01   1.10048991e+00  -1.15136130e-01
C     7.414671328574999e+00   4.459433646913245e+00   6.927872640000000e+00 -1.45054469e+00   9.08342140e-01   7.84331800e-02
C     8.659988293274999e+00   5.121430894663083e+00   6.943800824000000e+00  3.00330990e-01  -2.83257530e-01  -1.55982360e-01
C     8.526421245300000e+00   4.768984283129867e+00   9.998158728000000e+00 -2.33199258e+00   6.41040780e-01  -1.44691400e-02
C     9.676529877449999e+00   5.495472535615063e+00   9.913489479999999e+00  3.81950142e+00   3.28452780e-01   2.07826090e-01
