72
Lattice="7.395 0 0 3.6975 6.40425786098592 0 0 0 13.6 " PBC="1 1 1" Properties=species:S:1:pos:R:3:force:R:3 Energy="-568.10258867"
C     3.699756510300000e+00   6.147863908915530e+00   1.993675680000000e-01 -8.92629750e-01  -5.65433630e-01  -1.64162305e+00
C     1.234251086700000e+00   4.038695359775077e-01   1.357755197600000e+01 -7.62501700e-02   2.15350378e+00   1.34144155e+00
C     1.482135886725000e+00   1.032966510036061e+00   3.249663560000000e+00 -1.38063760e+00   2.16293127e+00   9.84322820e-01
C     2.628153272100000e+00   1.872613195714061e+00   2.999445320000000e+00  3.19336833e+00  -3.15120490e+00   1.46984410e+00
C     6.157286093624999e+00   6.137640471880718e+00   2.556359360000000e-01 -1.12457926e+00   1.28294510e-01   5.14547200e-02
C     3.623823799875000e+00   5.225896828662511e-01   3.202955040000000e-01  1.54661640e+00  -1.28069109e+00  -1.84366812e+00
C     3.929014932225000e+00   1.177228694505263e+00   3.253543776000000e+00 -2.27890839e+00  -3.72765383e+00   1.58802415e+00
C     5.138959097624999e+00   1.819071486599367e+00   3.622505248000000e+00 -1.03868417e+00  -2.24135798e+00  -2.04491708e+00
C     8.590627297499999e+00   6.206423161935797e+00   4.226704560000000e-01  1.12558162e+00  -1.90507314e+00  -1.98674643e+00
C     6.159152221875000e+00   4.640218481404507e-01   2.790156960000000e-01 -7.43408400e-01  -1.15971482e+00   1.17903446e+00
C     6.344506048124999e+00   1.075927040271884e+00   3.760231088000000e+00  1.53976865e+00   9.67293420e-01  -1.01621424e+00
C     7.593291304799999e+00   1.757659969255991e+00   3.407992584000000e+00  4.92435960e-01   6.88918800e-02   2.43803780e-01
C     1.248314897700000e+00   1.883691793300918e+00   1.350589466400000e+01 -3.19535322e+00   6.75534000e-03   9.64061310e-01
C     2.424911680350000e+00   2.606553570730310e+00   1.331426590400000e+01  6.61601500e-01   1.16973734e+00   1.66209650e+00
C     2.707303473075000e+00   3.275687403226438e+00   3.090005408000000e+00 -8.61278410e-01   4.70614960e-01   1.53927575e+00
C     3.866968367925000e+00   3.907227025275374e+00   3.605144304000000e+00  2.74238782e+00   2.16614455e+00  -1.35273379e+00
C     3.641230076925000e+00   1.892111535152038e+00   1.347259669600000e+01  2.10436332e+00  -5.33852000e-03   3.33257405e+00
C     4.887539561550000e+00   2.567061714636619e+00   3.762751440000000e-01 -7.67080520e-01   1.17888495e+00  -2.20303342e+00
C     5.092921303275000e+00   3.166189067443202e+00   3.463681048000000e+00  2.08440632e+00   4.96082575e+00   1.77063361e+00
C     6.379170702224999e+00   3.977365048421365e+00   3.484423632000000e+00 -9.05785130e-01  -7.03885412e+00   6.34113000e-03
C     6.136747072725000e+00   1.829531304791791e+00   5.229515520000000e-01  3.71908400e-01   2.98304148e+00  -2.12034693e+00
C     7.349982308924999e+00   2.618189915134194e+00   3.081573680000000e-01  1.07288579e+00  -4.13345610e-01   1.50249162e+00
C     7.603026563475000e+00   3.205667090339915e+00   3.276855944000000e+00  1.14048013e+00   9.83053330e-01   1.51762440e-01
C     8.912672263425000e+00   3.972247790220910e+00   3.135656392000000e+00 -3.79636502e+00   9.93532630e-01   2.76115356e+00
C     2.464511202825000e+00   4.071156429462323e+00   1.356654726400000e+01 -1.62428127e+00  -3.27415110e+00  -1.08382809e+00
C     3.670450236225000e+00   4.708820059047304e+00   2.427736000000000e-02  1.76887941e+00   2.63552276e+00   1.38472185e+00
C     4.014936549825000e+00   5.430014936240895e+00   3.881624416000000e+00 -4.61004497e+00  -3.49038729e+00  -2.03903817e+00
C     5.242802386799999e+00   6.066886935511803e+00   3.674713472000000e+00 -2.11994241e+00   1.27523230e+00  -1.02381223e+00
C     4.894135531800000e+00   4.053332034943792e+00   2.912898320000000e-01  1.50853530e-01  -3.25628060e+00   3.19621290e-01
C     6.096959939100000e+00   4.730961819959576e+00   5.473815040000000e-01  1.10071613e+00   1.34769394e+00  -6.28734990e-01
C     6.388345419900000e+00   5.291512933418712e+00   3.567222744000000e+00  1.31517408e+00   3.36057158e+00  -8.40696360e-01
C     7.600187068349999e+00   5.979193048379352e+00   3.424659112000000e+00  7.99756900e-02   6.00068417e+00   1.27238960e-01
C     7.341503312850000e+00   4.056003250897198e+00   7.246787200000000e-01  2.80752070e+00  -2.49140930e+00  -5.66640011e+00
C     8.662409046524999e+00   4.717000858037668e+00   1.982877280000000e-01 -4.35518923e+00   2.98053763e+00   3.38995584e+00
C     8.847481677899999e+00   5.436285152983886e+00   3.581180424000000e+00  2.49335460e-01  -5.46499360e+00  -1.78078182e+00
C     1.003080739290000e+01   6.075610431313223e+00   3.848538880000000e+00  4.01421557e+00   1.29858908e+00  -8.33080070e-01
C     7.357440166425000e+00   2.168223619804242e-01   6.584315288000000e+00  1.36856352e+00  -4.60433850e-01   3.65404140e-01
C     1.155394763025000e+00   9.808240672211982e-01   6.449493320000000e+00  1.89664422e+00  -2.70156057e+00   1.08815742e+00
C     1.104560978400000e+00   3.637176570687660e-01   1.024680100000000e+01 -1.81553991e+00  -1.97594480e-01   8.35267530e-01
C     2.227886880225000e+00   1.052559056107159e+00   9.782136055999999e+00  2.48393504e+00  -8.36625000e-01   1.46364114e+00
C     2.422088121450000e+00   2.369945574304308e-01   6.675988264000000e+00 -2.34279680e-01   2.71426713e+00  -5.58914360e-01
C     3.670728621000000e+00   9.331738910822329e-01   6.689489119999999e+00  2.94347510e-01   4.24060420e-01  -5.88032020e-01
C     3.490757208525000e+00   2.729592685077258e-01   9.822615096000000e+00  2.32647474e+00   2.27299186e+00   7.73634510e-01
C     4.936995916500000e+00   1.077236262706204e+00   1.000311688000000e+01 -7.81781602e+00  -1.21759058e+00  -3.98153890e-01
C     4.941196720200000e+00   2.051597601193140e-01   6.757500407999999e+00 -7.82659470e-01   2.23476714e+00  -1.06260440e-01
C     6.203943662925000e+00   8.949734535860119e-01   6.688305376000000e+00 -3.73823464e+00   4.13542856e+00  -7.99061570e-01
C     5.995806285374999e+00   3.772187932763250e-01   1.038012180000000e+01  2.38085749e+00  -2.92599783e+00   3.80936170e-01
C     7.258351862249999e+00   1.032983865574861e+00   1.057768587200000e+01  1.12998614e+00   1.30071957e+00  -2.80863529e+00
C     8.592608417999999e+00   2.346390841980385e+00   6.318113920000000e+00 -1.72917488e+00   2.44492050e+00   1.87620040e-01
C     2.426765976600000e+00   3.022747844789073e+00   6.283499744000000e+00  4.67670180e-01   2.49318944e+00   2.54560892e+00
C     2.267164720200000e+00   2.482429447016719e+00   9.748810344000001e+00  1.28647385e+00   1.18242567e+00   1.02921228e+00
C     3.546320428425000e+00   3.201019136155441e+00   9.814336504000000e+00  2.62438220e-01  -8.14888290e-01   1.82382813e+00
C     3.659901231749999e+00   2.369931997277645e+00   6.522785624000000e+00 -1.26985587e+00  -3.14888375e+00  -2.89275190e-01
C     4.875104499300000e+00   3.005887739376522e+00   6.577711536000000e+00 -1.88452290e-01   5.33815339e+00   6.86862850e-01
C     4.764829150050000e+00   2.446940636341001e+00   1.012437978400000e+01  1.34902440e-01   1.28772655e+00  -1.08308280e+00
C     5.940584640525000e+00   3.126898945472102e+00   1.039286527200000e+01  3.37929496e+00   3.25817933e+00  -1.17969429e+00
C     6.110725916474999e+00   2.461978538264646e+00   6.523979160000000e+00  2.72830678e+00  -4.92115223e+00   7.68570440e-01
C     7.336566632700000e+00   3.190473949205743e+00   6.407016848000000e+00  2.99395270e-01  -5.31101963e+00   3.38460750e-01
C     7.275664703475000e+00   2.436482034957570e+00   1.034187968800000e+01 -1.38589177e+00   2.07713340e+00   6.16804160e-01
C     8.528779288950000e+00   3.254733375976883e+00   1.007534580000000e+01 -2.28633490e+00  -5.40333456e+00  -4.82198660e-01
C     9.821723677200000e+00   4.486620682167624e+00   6.585287824000000e+00 -1.69170225e+00  -1.25263224e+00  -1.49683171e+00
C     3.617708393700000e+00   5.186332988710474e+00   6.603224591999999e+00  1.89798149e+00   3.39781660e-01   9.81955500e-01
C     3.590485882725000e+00   4.569688453634905e+00   1.017116786400000e+01 -3.02491309e+00   1.98053308e+00   5.25813790e-01
C     4.803428831550000e+00   5.354988094772317e+00   1.039272247200000e+01 -1.25376238e+00  -6.81333240e-01  -1.67162107e+00
C     4.833192930075001e+00   4.483871526396062e+00   6.702760680000000e+00  2.58988308e+00   1.90147230e-01  -6.22047890e-01
C     6.135452430075000e+00   5.279984436717190e+00   6.790702632000000e+00 -2.65633752e+00  -4.47872519e+00  -1.04227448e+00
C     5.988779963100000e+00   4.684361237641285e+00   1.026842037600000e+01  4.27917710e-01  -5.08582052e+00   6.99724000e-01
C     7.220037516825000e+00   5.296065784373965e+00   1.008897599200000e+01  5.28609490e-01   1.53880830e+00  -6.76489210e-01
C     7.328799368400000e+00   4.503835583465619e+00   6.617018256000000e+00  1.47620492e+00   4.82335161e+00   6.37877070e-01
C     8.605932913875000e+00   5.241097142565485e+00   6.653677736000000e+00 -5.51165040e-01  -2.83857956e+00   4.93249600e-02
C     8.502659594324999e+00   4.607542740993793e+00   1.004165288800000e+01 -2.83952662e+00   1.89928761e+00   1.07528391e+00
C     9.612856080375000e+00   5.327922228076649e+00   1.026186735200000e+01  6.05233186e+00   4.09154580e-01  -7.12376450e-01
