72
Lattice="7.395 0 0 3.6975 6.40425786098592 0 0 0 13.6 " PBC="1 1 1" Properties=species:S:1:pos:R:3:force:R:3 Energy="-566.38311433"
C     1.101014990857500e+01   6.329416870094519e+00   1.340445362400000e+01  2.38840327e+00  -1.35942557e+00  -7.13478620e-01
C     1.145282137500000e+00   6.557533525066525e-01   1.343097688800000e+01  2.05201898e+00  -4.38567163e+00  -9.60074170e-01
C     1.339397522775000e+00   8.889524265163542e-01   3.886766984000000e+00 -1.22181221e+00   3.52118830e-01  -9.33744600e-01
C     2.578876911450000e+00   1.576780800046452e+00   3.960732623999999e+00  1.46054707e+00  -1.75590135e+00  -1.44947587e+00
C     6.106221326175000e+00   6.264329116611767e+00   1.324026721600000e+01  8.23689490e-01  -6.84987260e-01   6.59457950e-01
C     3.652176340800000e+00   5.111658317381615e-01   1.348533812800000e+01  1.64653523e+00   1.53116082e+00  -3.06557013e+00
C     3.853321708875000e+00   9.141613786455151e-01   3.720264496000000e+00 -3.73277550e-01   6.77886500e-02   3.54737330e-01
C     5.091477688349999e+00   1.723184056003410e+00   3.672201280000000e+00 -4.34562360e-01  -3.32112546e+00  -1.62807387e+00
C     8.687839342275000e+00   6.236100044560986e+00   1.329633362400000e+01 -2.69329142e+00   2.11134552e+00  -2.30553940e-01
C     6.208518505724999e+00   7.044230864969299e-01   1.313952766400000e+01 -3.72393182e+00  -3.94687353e+00   1.18866792e+00
C     6.293007896700000e+00   9.833298611940804e-01   3.573076047999999e+00 -1.27695050e-01  -1.97800150e+00   3.42903230e-01
C     7.518866213024999e+00   1.652137204624507e+00   3.826090176000000e+00 -9.64314000e-01   9.01432700e-01  -1.38612850e-01
C     1.186928152275000e+00   2.027641514029131e+00   1.342717011200000e+01  5.78634420e-01   1.73153800e-01  -5.16931400e-02
C     2.470327074525000e+00   2.699984968436956e+00   1.637161200000000e-01 -2.06207767e+00  -1.39034307e+00  -2.55742287e+00
C     2.620360495050000e+00   2.952365947503773e+00   3.865165016000000e+00 -1.22747128e+00   2.85750821e+00   2.51320830e-01
C     3.824025639900000e+00   3.672665893704008e+00   3.683991120000000e+00 -5.18572740e-01   2.65905039e+00  -2.13007221e+00
C     3.634983446475000e+00   2.043252404903510e+00   1.337651405600000e+01  3.08480707e+00  -2.84334351e+00   2.13026761e+00
C     4.898833353450000e+00   2.760744148074713e+00   1.313971452800000e+01 -5.98986030e-01  -1.03619754e+00  -9.68604780e-01
C     5.138382435524999e+00   3.089136623256084e+00   3.439818352000000e+00 -4.20790975e+00   1.12872830e-01   2.91927088e+00
C     6.250477920599999e+00   3.848321237862301e+00   3.656994576000000e+00  2.54198688e+00   1.01703125e+00   5.69325290e-01
C     6.174485421600000e+00   2.079577163357694e+00   1.286575164000000e+01 -2.95476764e+00  -2.61483187e+00   1.83515085e+00
C     7.405854935624999e+00   2.631940112929928e+00   1.291626013600000e+01  1.90509461e+00   5.29250753e+00   2.71214228e+00
C     7.439383200075000e+00   3.123827335317289e+00   3.994387320000000e+00  2.52231545e+00  -1.00943354e+00  -2.31484451e+00
C     8.781385981349999e+00   3.757653853805452e+00   3.896763256000000e+00 -5.99039890e-01  -2.28378330e+00   6.97397790e-01
C     2.453383576575000e+00   4.058054854902649e+00   1.465674720000000e-01 -1.55565010e-01   3.57177767e+00  -2.67849386e+00
C     3.667394474325000e+00   4.787703736726912e+00   1.351584592000000e+01  6.14525540e-01   3.00207825e+00  -1.08480225e+00
C     3.705697542375000e+00   5.137904695241518e+00   3.491858480000000e+00  2.63215797e+00  -1.64148620e-01   1.04548501e+00
C     4.977524731650000e+00   5.874874220182968e+00   3.645561464000000e+00 -2.33220863e+00   2.86575444e+00  -1.27037300e-01
C     4.893430455524999e+00   4.165958530478745e+00   1.304587330400000e+01 -6.39466980e-01  -5.31589520e-01   1.67607178e+00
C     6.182938535174999e+00   4.807415273909048e+00   1.282045480000000e+01 -2.25759207e+00   3.33701661e+00   3.16815017e+00
C     6.211729858425000e+00   5.348038642440695e+00   3.683271544000000e+00  2.27104045e+00  -6.62001156e+00  -6.34620240e-01
C     7.494123430424999e+00   5.860669384121753e+00   3.623377824000000e+00  2.08953436e+00   2.91371672e+00   1.79430477e+00
C     7.376134208774999e+00   4.110052177234404e+00   1.302916352800000e+01  2.18732518e+00  -1.59818700e-01  -7.45118930e-01
C     8.644093665149999e+00   4.804698011341629e+00   1.327547285600000e+01 -1.04091830e-01  -4.77272800e-02   1.92546493e+00
C     8.798172076724999e+00   5.117315774732561e+00   3.764911800000000e+00 -3.69528590e+00   2.52890092e+00  -2.03163082e+00
C     9.909144446175000e+00   5.894548804797253e+00   3.456168000000000e+00  2.26935396e+00   8.44125520e-01   1.62419013e+00
C     7.448180366024999e+00   1.143067166271030e-01   6.461633360000000e+00 -2.26663695e+00   2.60462148e+00   1.42460415e+00
C     1.259357111700000e+00   7.688341020516156e-01   6.807535079999999e+00  1.62802539e+00   2.52322062e+00   1.53573549e+00
C     1.114165937175000e+00   5.061372725090683e-01   1.000471066400000e+01 -1.80507906e+00   8.29282820e-01   1.76155986e+00
C     2.320802430000000e+00   1.277877434649816e+00   1.015605908000000e+01  1.45531035e+00  -3.75811309e+00  -7.87181110e-01
C     2.471497259325000e+00   6.947063543440021e-02   7.186558920000000e+00  1.01313737e+00   1.41627643e+00  -8.82192750e-01
C     3.728407698300000e+00   9.122172380869549e-01   7.430695920000000e+00 -1.99390276e+00  -1.25003872e+00  -2.91495487e+00
C     3.619731332925000e+00   5.507890391605602e-01   9.910315240000001e+00 -2.84996773e+00  -2.36567344e+00  -1.09292600e+00
C     4.781437728449999e+00   1.243093476594169e+00   9.834927447999998e+00  2.17782747e+00   5.05611600e-01   3.26800604e+00
C     4.797342376799999e+00   1.701367951603320e-01   6.822881592000000e+00  2.08621340e+00  -8.13509150e-01   1.48996637e+00
C     6.041647557600000e+00   7.924273880078557e-01   6.586208136000000e+00  3.75446258e+00   2.14522760e+00   7.85041740e-01
C     6.025199820449999e+00   4.837667515060380e-01   9.911839120000000e+00 -1.47314975e+00   7.14779310e-01  -3.43557780e-01
C     7.189619515424999e+00   1.164970816876066e+00   1.013674408800000e+01  4.02301068e+00   1.53140182e+00  -1.03485164e+00
C     8.676793800524999e+00   2.307890813301473e+00   7.002222751999999e+00  2.91211955e+00  -4.07900644e+00  -6.88007400e-01
C     2.507600240925000e+00   3.100579495030017e+00   7.130777975999999e+00  6.19789250e-01  -3.05457382e+00   1.80396585e+00
C     2.347412265225000e+00   2.632899983097985e+00   1.037896960800000e+01 -1.81431679e+00   1.21688306e+00  -1.10754086e+00
C     3.577632226500000e+00   3.287310298688817e+00   1.035424807200000e+01 -6.91763270e-01   3.71704929e+00  -1.38471020e-01
C     3.769545491700000e+00   2.385168751407842e+00   7.534438624000000e+00 -3.40966231e+00  -2.43616490e+00  -3.49483634e+00
C     4.944155422725000e+00   2.970270395245553e+00   7.193911487999999e+00  3.21944801e+00   1.33372986e+00  -1.80888524e+00
C     4.765403630625000e+00   2.607055728589112e+00   1.026743165600000e+01  3.11886738e+00   1.54821227e+00  -1.66728837e+00
C     6.052679048850000e+00   3.440770918722338e+00   1.015510721600000e+01 -7.04706690e-01  -3.48638416e+00  -1.25243371e+00
C     6.190939925174999e+00   2.201111469235279e+00   6.832244512000001e+00 -1.80550330e+00  -3.61970790e-01   1.21155727e+00
C     7.466293605075000e+00   2.855554766754090e+00   6.920851368000000e+00 -2.54649652e+00   3.57199969e+00   1.04414270e-01
C     7.260080184675000e+00   2.599896024471946e+00   1.011411015200000e+01 -1.32359423e+00   1.72230433e+00   6.12507300e-01
C     8.460598757025000e+00   3.350173533203898e+00   1.021169246400000e+01  1.46144024e+00  -7.81038150e-01  -1.99086887e+00
C     9.925016593500001e+00   4.463156377964685e+00   6.933659303999999e+00 -6.11345080e-01   1.72409297e+00  -1.79019206e+00
C     3.770842537725000e+00   5.187295996964882e+00   6.653035000000000e+00  5.09026980e-01  -5.14872124e+00   2.12316337e+00
C     3.577463324700000e+00   4.799622636987579e+00   1.024993240000000e+01 -3.35088690e-01  -1.30226119e+00  -1.00807373e+00
C     4.810832779500000e+00   5.498004779172907e+00   1.009603561600000e+01  1.09020727e+00   2.01374130e-01  -1.14111631e+00
C     4.990643128875000e+00   4.388071257749580e+00   6.918101448000000e+00  5.66660580e-01   1.11930260e+00   3.09815680e-01
C     6.315704815575000e+00   5.034320435421678e+00   7.067362808000000e+00 -4.82016111e+00   1.58436430e+00  -1.14533752e+00
C     6.083959233300000e+00   4.817204630346108e+00   9.863354576000001e+00 -4.68205650e-01  -9.59492610e-01   1.52166360e+00
C     7.374474585900000e+00   5.432951224427127e+00   9.588889032000001e+00 -5.41572608e+00   3.96176409e+00   2.73245876e+00
C     7.486812289725000e+00   4.317289862858973e+00   7.047811040000001e+00  3.54858840e-01  -4.41338140e-01  -8.92667320e-01
C     8.631823622324999e+00   5.116816626874954e+00   6.855398103999999e+00  8.59236600e-02  -2.88477650e-01   4.11934350e-01
C     8.482906661925000e+00   4.697715844429008e+00   9.692389248000000e+00  4.27649761e+00   3.52391000e-02   3.40917423e+00
C     9.741166318649999e+00   5.509786308102477e+00   9.927114776000000e+00 -1.79514360e-01  -3.39699874e+00   2.04709670e-01
