72
Lattice="7.395 0 0 3.6975 6.40425786098592 0 0 0 13.6 " PBC="1 1 1" Properties=species:S:1:pos:R:3:force:R:3 Energy="-579.56925857"
C     3.647749139175000e+00   6.317044356249627e+00   1.530612000000000e-02  9.05049160e-01  -3.33501843e+00  -2.88972230e-01
C     1.217954614275000e+00   5.123403085871070e-01   1.352957104000000e+01 -2.69788740e-01   2.11267471e+00   5.23873360e-01
C     1.271290201350000e+00   8.923648072318980e-01   3.319787472000000e+00  1.93971937e+00  -7.02195550e-01   5.87912520e-01
C     2.560332063225000e+00   1.517161322137461e+00   3.213701760000000e+00 -4.02747980e-01   2.58579132e+00   8.58810970e-01
C     6.169712762550000e+00   6.249355513437036e+00   5.522674399999999e-02 -1.08832171e+00   4.65871170e-01  -8.92554700e-02
C     3.690531506625000e+00   5.539154697626550e-01   6.733414400000000e-02 -1.57677235e+00   7.05971980e-01  -5.42399930e-01
C     3.814192508400000e+00   8.939000359260972e-01   3.356885960000000e+00 -8.85139030e-01  -5.40453610e-01   1.39738940e-01
C     5.026020180300000e+00   1.610292872491103e+00   3.489787472000000e+00  1.03208680e-01  -3.43989400e-02  -3.89781160e-01
C     8.560083211349999e+00   6.239385236715432e+00   7.305879200000000e-02  2.97174341e+00   2.18996793e+00  -6.50337100e-02
C     6.109950698625000e+00   5.385438419619258e-01   5.463038400000000e-02 -1.21882500e-02   2.54796922e+00   3.25947300e-01
C     6.258172972725000e+00   8.860094138593699e-01   3.568244920000000e+00 -2.02660700e-01  -3.42349680e-01  -6.08038000e-01
C     7.482084703200000e+00   1.631309213169636e+00   3.421637055999999e+00 -1.17917356e+00  -2.83733369e+00   1.84746520e-01
C     1.216953257325000e+00   1.927173053743337e+00   1.348355843200000e+01 -6.18637900e-02   2.80499561e+00   5.84474850e-01
C     2.493651607050000e+00   2.655929758405123e+00   1.335715309600000e+01 -3.23182844e+00   1.93718812e+00   1.23320027e+00
C     2.575390797525000e+00   2.965898592660003e+00   3.290514424000000e+00 -1.67716497e+00   1.37292897e+00   3.86903420e-01
C     3.731245751399999e+00   3.760289077829685e+00   3.459131712000000e+00  2.21643194e+00  -2.82168294e+00  -2.62924100e-01
C     3.682188615525000e+00   1.974578779359787e+00   1.352497002400000e+01  3.71503260e-01  -4.16987920e-01   6.72761700e-02
C     4.869993777825000e+00   2.693806780879414e+00   6.497386399999999e-02  1.92384232e+00   8.45694310e-01   2.73119600e-01
C     4.984667118450000e+00   3.025832135374448e+00   3.449855152000000e+00  1.65380918e+00   1.03872563e+00   8.36111400e-02
C     6.284371830824999e+00   3.715305890833938e+00   3.415339576000000e+00 -2.64374749e+00   1.38985664e+00   4.68648200e-01
C     6.116766152475000e+00   1.981598998740762e+00   1.703652960000000e-01  1.01273451e+00   8.37617250e-01  -6.59906820e-01
C     7.385515912500000e+00   2.741882583995755e+00   1.537240640000000e-01  1.10907160e-01  -1.14023218e+00  -7.59816230e-01
C     7.481662041975000e+00   2.987879286487095e+00   3.363156512000000e+00  1.12041616e+00   3.30279756e+00  -2.31197600e-02
C     8.741535657450001e+00   3.734035463158401e+00   3.340166800000000e+00 -1.05775885e+00  -1.12730917e+00  -1.29406110e-01
C     2.432731116375000e+00   4.138044291744364e+00   1.344807521600000e+01  1.50338705e+00  -9.19537560e-01   4.97335390e-01
C     3.680341048724999e+00   4.864027504454719e+00   1.356127971200000e+01 -4.66486840e-01  -7.01780440e-01   4.75564900e-02
C     3.736717792575000e+00   5.140084704617062e+00   3.597095552000000e+00  1.54504651e+00   7.06309810e-01  -6.02837600e-01
C     4.967186447700000e+00   5.904807721420609e+00   3.521532184000000e+00  1.09816015e+00  -2.06029525e+00  -5.83909840e-01
C     4.912306340924999e+00   4.123243027148646e+00   7.958067199999999e-02  1.16488270e-01   6.63924710e-01  -1.03049800e-02
C     6.185265815625000e+00   4.863201099020464e+00   2.069091760000000e-01 -2.49687876e+00  -3.85640610e-01  -5.45331120e-01
C     6.248745567899999e+00   5.183045042725150e+00   3.442606216000000e+00 -3.30507780e-01  -3.94139790e-01  -9.79558200e-02
C     7.498459821450000e+00   5.902260491899372e+00   3.395062384000000e+00 -1.10296327e+00  -1.41587074e+00   5.05676700e-02
C     7.409419251675000e+00   4.252922588385472e+00   2.288571280000000e-01 -1.38817730e-01  -5.88989215e+00  -8.81524560e-01
C     8.619174992474999e+00   4.885274142245898e+00   3.656319200000000e-02  4.51520250e-01  -2.28875011e+00  -9.96835200e-02
C     8.704472582999999e+00   5.174255198812300e+00   3.409728079999999e+00  2.80510210e-01  -2.09043200e+00   3.49434520e-01
C     9.933106834424999e+00   5.809205792640050e+00   3.561512784000000e+00 -4.74408660e-01   3.84233703e+00  -2.26929980e-01
C     7.445156032875000e+00   1.249153697721930e-01   7.023120783999999e+00 -1.59588111e+00  -2.16343390e-01  -9.69654670e-01
C     1.261725323475000e+00   8.192930576028199e-01   6.834907392000000e+00  3.85057040e-01   4.15527400e-02   3.59165000e-02
C     1.140297352875000e+00   5.758349388846055e-01   1.008125200800000e+01 -2.47310700e-02  -5.17678120e-01   4.73380520e-01
C     2.390104228800000e+00   1.284342532959486e+00   9.977788920000000e+00 -1.84588488e+00  -1.58689280e-01   1.83885590e-01
C     2.488611840600000e+00   1.039162565473032e-01   6.827637103999999e+00 -1.42296770e-01   7.16781660e-01  -1.25782220e-01
C     3.691433807550000e+00   8.419106548740889e-01   6.795825752000000e+00  5.26211160e-01   5.59666270e-01  -1.34627610e-01
C     3.575209735425000e+00   5.905979060183203e-01   1.007423291200000e+01  2.42248979e+00  -1.26084593e+00   3.45190740e-01
C     4.823783125349999e+00   1.293739500517464e+00   1.009948308000000e+01  5.17898140e-01  -4.29891550e-01   1.32935300e-01
C     4.915762689975000e+00   1.624221620995974e-01   6.910156327999999e+00 -1.26863790e-01  -2.23475996e+00  -3.90366000e-02
C     6.136434264225000e+00   8.299041443658968e-01   6.959447623999999e+00  2.50416735e+00  -3.89785800e-01  -8.75600700e-02
C     6.089363462325000e+00   5.145588715949683e-01   1.022976768000000e+01 -1.14900310e+00   2.08101979e+00  -3.84178630e-01
C     7.299244104674999e+00   1.287475559947177e+00   1.017897820800000e+01  1.48948380e-01  -9.50435810e-01  -1.76199790e-01
C     8.685822651824999e+00   2.239224360526554e+00   6.712542751999999e+00 -9.49798890e-01  -6.76313590e-01   6.53568640e-01
C     2.474463985425000e+00   2.981497443529606e+00   6.673496335999999e+00  1.64694189e+00   5.90658860e-01   6.65762840e-01
C     2.372398158450000e+00   2.671051620149313e+00   9.898824056000000e+00 -5.26143600e-01   2.63974887e+00   8.25106930e-01
C     3.610526110875000e+00   3.449874763398063e+00   9.931198991999999e+00 -8.81556470e-01  -1.50394825e+00   5.77256810e-01
C     3.723091913475000e+00   2.267204306946579e+00   6.695406888000000e+00 -7.06839810e-01  -2.56287230e-01   2.66579850e-01
C     4.954626705750000e+00   2.943316218806964e+00   6.750393048000000e+00  1.09619182e+00   1.47273173e+00   5.13008430e-01
C     4.815897245250000e+00   2.753998415185618e+00   1.001742870400000e+01  1.84451706e+00  -2.05555175e+00   7.14018170e-01
C     6.094293080250000e+00   3.437735684752169e+00   1.018635294400000e+01 -2.20067045e+00  -9.82783810e-01  -4.42714560e-01
C     6.187080178874999e+00   2.231524393216318e+00   6.867970080000000e+00 -3.21717260e-01  -3.39989790e-01  -3.09766910e-01
C     7.450979188650000e+00   2.881619647946239e+00   6.833568199999999e+00 -1.01522295e+00   2.55679882e+00  -1.23940100e-01
C     7.288518951299999e+00   2.727132425377761e+00   1.017867900800000e+01 -5.11580820e-01  -2.36330838e+00  -2.78140110e-01
C     8.481206181674999e+00   3.381040390982054e+00   1.005358811200000e+01  3.02306370e+00   1.35694394e+00   3.50233700e-02
C     9.912344632425000e+00   4.399772861541057e+00   6.869793160000000e+00 -1.02031216e+00   4.12805000e-01  -2.50407660e-01
C     3.784261874475000e+00   5.099116923256957e+00   6.962593032000000e+00 -1.22540497e+00   8.86339600e-02  -5.81848190e-01
C     3.655592941725000e+00   4.846226613562534e+00   1.011037749600000e+01 -2.02021129e+00  -7.84304310e-01  -9.30668400e-02
C     4.853106223050000e+00   5.524626382500826e+00   1.014453811200000e+01  6.82681150e-01   2.11193912e+00  -1.05060300e-01
C     5.022405171525000e+00   4.403220273547095e+00   6.825883656000000e+00 -2.81216396e+00  -1.59374417e+00   1.20031300e-01
C     6.196860547049999e+00   5.109384037330373e+00   6.847959447999999e+00  1.94543572e+00  -1.43996141e+00   1.84393370e-01
C     6.083414221799999e+00   4.818366106551598e+00   1.018490209600000e+01 -3.42559850e-01   1.30158071e+00  -1.43554980e-01
C     7.280483987999999e+00   5.550039630455720e+00   1.019303843200000e+01  1.08977527e+00   5.86570540e-01  -3.81217970e-01
C     7.427908970174999e+00   4.325586963172075e+00   6.870775760000001e+00  1.66601470e-01   1.43769289e+00  -3.33500730e-01
C     8.620184927624999e+00   5.111565647770383e+00   6.909787496000000e+00  1.59188685e+00  -7.61870650e-01  -1.38473670e-01
C     8.497157159700000e+00   4.816983427279625e+00   1.014777423200000e+01  1.80443217e+00   1.66679620e-01   1.70755000e-01
C     9.807804142649999e+00   5.503801401047149e+00   1.021364732800000e+01 -2.03175706e+00   7.93385780e-01  -5.94085810e-01
