72
Lattice="7.395 0 0 3.6975 6.40425786098592 0 0 0 13.6 " PBC="1 1 1" Properties=species:S:1:pos:R:3:force:R:3 Energy="-573.31510283"
C     3.726191675625000e+00   6.123601313970340e+00   2.302229760000000e-01 -5.13475520e-01   6.78806190e-01   8.54625760e-01
C     1.210691541075000e+00   5.427826921543026e-01   2.005141840000000e-01  4.39835210e-01  -3.21471994e+00  -1.03976780e-01
C     1.507806446025000e+00   1.146388606524962e+00   3.344108080000000e+00  8.87964200e-02  -1.47644197e+00  -1.39628290e-01
C     2.711049780075000e+00   1.904142573967834e+00   3.176247360000000e+00 -1.78631821e+00  -7.63114500e-02   5.93733550e-01
C     6.102787716749999e+00   6.173022395492753e+00   3.063884160000000e-01  2.82212634e+00  -4.36781150e-01  -3.80726520e-01
C     3.721545840825000e+00   4.935654581595739e-01   2.312390320000000e-01 -2.73892157e+00  -5.86924330e-01   2.45688940e-01
C     3.828608506275000e+00   1.068136388670351e+00   3.282150696000000e+00  2.37754277e+00   3.48660416e+00   2.34039390e-01
C     5.056601241450000e+00   1.762213140424137e+00   3.393330016000000e+00  3.16981066e+00   1.87424785e+00   2.49842630e-01
C     8.604908706374999e+00   6.154797606772815e+00   3.834248000000000e-01  2.79127580e-01  -3.76047100e-02   1.07165920e-01
C     6.202641366450000e+00   4.261567375857792e-01   4.386020400000000e-01 -2.08998890e+00   2.18537190e-01  -2.27304703e+00
C     6.365254606350000e+00   1.167447535518264e+00   3.545609352000000e+00  1.81872464e+00  -3.59314659e+00  -5.54951290e-01
C     7.683706568100000e+00   1.819272900509064e+00   3.397520448000000e+00 -3.45581368e+00  -3.39057900e-01   1.52910100e-01
C     1.178078370900000e+00   1.940908841958887e+00   1.160482560000000e-01  1.58283069e+00  -1.78008796e+00   1.38069590e-01
C     2.435320993275000e+00   2.639961958240207e+00   9.878618400000000e-02 -5.68860680e-01  -4.70070460e-01   5.79053600e-02
C     2.687909272125000e+00   3.392834216086715e+00   3.185176984000000e+00 -5.57281280e-01  -3.35550934e+00   9.89476460e-01
C     3.954574344675000e+00   4.026173690764626e+00   3.417181696000000e+00 -4.87380630e-01  -4.94319944e+00  -1.01571101e+00
C     3.695217459300000e+00   1.921101881334636e+00   1.132886800000000e-01 -1.18764521e+00  -1.09583774e+00   7.45703280e-01
C     4.918555966350000e+00   2.580385388858878e+00   2.959933920000000e-01 -8.47182800e-01  -1.43171197e+00  -6.45210510e-01
C     5.161262935274999e+00   3.199228889913256e+00   3.415498424000000e+00 -1.32667271e+00   1.71134140e-01   3.61899390e-01
C     6.432435038474999e+00   3.836186129856280e+00   3.495015583999999e+00 -4.03392234e+00   3.81404006e+00  -4.28825230e-01
C     6.125958100499999e+00   1.890765039936973e+00   2.892902240000000e-01 -1.94308370e-01  -4.26769061e+00   7.18005460e-01
C     7.318495249350000e+00   2.516534169483735e+00   2.011268640000000e-01  1.91214496e+00   3.70540596e+00   7.32000440e-01
C     7.588152075600000e+00   3.208116526843629e+00   3.342428480000000e+00  3.73650478e+00  -6.36750840e-01  -3.01100560e-01
C     8.753242718925000e+00   4.010400131740603e+00   3.258645816000000e+00  4.15512722e+00  -5.37273740e-01   1.11243181e+00
C     2.378412733800000e+00   4.041417169365577e+00   1.878112400000000e-01  1.79436693e+00   5.39564830e-01   2.45714810e-01
C     3.727840206000000e+00   4.673508326101415e+00   1.918178000000000e-01 -3.01783867e+00   1.62907076e+00   5.95689070e-01
C     3.954809542650000e+00   5.343137015602387e+00   3.555950112000000e+00  3.05282132e+00   4.85764378e+00  -7.59817400e-02
C     5.212297900875000e+00   6.091593345526690e+00   3.473125024000000e+00  8.44971570e-01  -8.24474680e-01  -1.06478670e-01
C     4.900438586100000e+00   3.930275244845150e+00   3.464594560000000e-01  1.35238963e+00   3.95729903e+00  -5.29969870e-01
C     6.148329676350000e+00   4.683491027083269e+00   4.441647120000000e-01 -1.89962094e+00   1.23242748e+00  -7.43319190e-01
C     6.458459189699999e+00   5.307073358741154e+00   3.453649552000000e+00 -1.75804508e+00   1.52511219e+00  -2.37227730e-01
C     7.642943294475000e+00   6.132065949669060e+00   3.378278488000000e+00 -7.51730440e-01  -4.57094072e+00   1.10418561e+00
C     7.343231080650000e+00   3.923403476161370e+00   4.198923840000000e-01 -7.38834320e-01   2.63148325e+00  -1.10153912e+00
C     8.495254315275000e+00   4.730136631334315e+00   3.845979360000000e-01  3.51699309e+00  -8.63484340e-01  -8.93403790e-01
C     8.881509622499999e+00   5.383517526516730e+00   3.538642616000000e+00 -2.77162900e-02   1.84799230e+00  -1.17600882e+00
C     1.019538385740000e+01   6.065217473572858e+00   3.632269368000000e+00 -5.16223663e+00   2.30869109e+00  -1.06337324e+00
C     7.391219491124999e+00   1.806175552759578e-01   6.338963671999999e+00 -2.31205304e+00   2.87448034e+00   1.50460936e+00
C     1.185959148450000e+00   9.631159740254053e-01   6.379298688000000e+00 -7.67192350e-01   7.92679490e-01   8.25026400e-02
C     1.096479796350000e+00   3.308129644395576e-01   1.040191933600000e+01 -5.44968080e-01  -1.05975418e+00  -9.91010450e-01
C     2.338270603200000e+00   1.006908801612714e+00   1.001456400000000e+01 -2.32420818e+00   8.15213320e-01   1.20449880e+00
C     2.414000394825000e+00   2.724570466063446e-01   6.558251024000000e+00  6.01538800e-02  -8.88920210e-01   3.09880570e-01
C     3.746489952300000e+00   8.765489801059992e-01   6.565652008000000e+00 -1.63177856e+00   1.64322104e+00   9.28973900e-02
C     3.555401266575000e+00   3.372879893489106e-01   9.951302648000000e+00 -3.43209900e+00  -4.11082968e+00   2.94990220e-01
C     4.687790184600000e+00   9.602992533334200e-01   1.010317180800000e+01  7.82213054e+00   4.61537514e+00   2.08794828e+00
C     5.032267550249999e+00   2.518794616338000e-01   6.647385423999999e+00 -3.77391248e+00  -8.45117040e-01  -6.06139550e-01
C     6.149725075875001e+00   1.041649530927806e+00   6.512334160000000e+00  3.16613604e+00  -3.65677623e+00  -7.75270400e-01
C     6.068940986624999e+00   3.527743814504910e-01   1.038785856800000e+01 -3.14887876e+00   8.85521300e-01  -1.08009946e+00
C     7.252598700149999e+00   1.092583298156750e+00   1.052812992000000e+01  1.59390258e+00  -1.37664798e+00  -1.08172559e+00
C     8.477994237375000e+00   2.464459163504138e+00   6.309716871999999e+00  3.26661263e+00  -4.10605847e+00   3.21387880e-01
C     2.376398372775000e+00   3.008381621429785e+00   6.386190624000000e+00  1.35301860e+00   4.02381900e-02   1.86190800e-02
C     2.362429772400000e+00   2.421184632505439e+00   1.001586348000000e+01 -2.13043644e+00   1.01925101e+00   1.00955396e+00
C     3.588973272450000e+00   3.138530934980641e+00   1.014489103200000e+01 -2.66253154e+00   1.38360252e+00   3.16310350e-01
C     3.675531747450000e+00   2.303448499836884e+00   6.475790008000000e+00 -8.13479250e-01   6.47049840e-01   5.20791210e-01
C     4.859068478775000e+00   3.092982764356485e+00   6.589871295999999e+00  9.08014830e-01  -9.64005820e-01  -7.15573610e-01
C     4.758274369950000e+00   2.416178552221434e+00   1.028333318400000e+01  1.48109028e+00  -1.47584910e-01  -6.41988800e-01
C     6.045292220324999e+00   3.165259681542559e+00   1.039536277600000e+01 -2.44100381e+00  -1.64824785e+00  -1.18492500e-01
C     6.166538532750000e+00   2.404968539263290e+00   6.446200488000000e+00 -2.81753455e+00   2.66436906e+00   6.67337900e-01
C     7.326074791575000e+00   3.190602226490679e+00   6.288874328000000e+00 -9.39379670e-01   1.71736354e+00   1.44414834e+00
C     7.265661080250000e+00   2.497523514281796e+00   1.041758735200000e+01  4.43015960e-01  -4.77619590e-01  -4.62562150e-01
C     8.464127207324999e+00   3.170839839501134e+00   1.019362146400000e+01  2.64743741e+00   1.36630491e+00   4.01418800e-02
C     9.787728825224999e+00   4.386642467821014e+00   6.383503944000000e+00 -1.16419691e+00   3.20375735e+00   8.06482940e-01
C     3.549834088725000e+00   5.180693719451851e+00   6.439007584000000e+00  2.94187782e+00  -2.21054710e-01   5.64651670e-01
C     3.454337388150000e+00   4.610092596260752e+00   1.032710614400000e+01  4.87010661e+00  -3.33685755e+00  -2.12935760e-01
C     4.690466361149999e+00   5.235932941154917e+00   1.040392180000000e+01  3.06905470e+00   2.81774377e+00  -4.74376580e-01
C     4.810453452974999e+00   4.517121792779396e+00   6.625463992000000e+00 -1.23129071e+00  -1.22035634e+00  -4.99489820e-01
C     5.976301085475000e+00   5.239520414280353e+00   6.699597184000000e+00  4.35260472e+00   2.48015021e+00  -1.35408646e+00
C     5.975509857450000e+00   4.526847490893328e+00   1.031019277600000e+01  4.78299350e-01   3.28162957e+00  -6.29075480e-01
C     7.233106478474999e+00   5.307604848100956e+00   1.007610971200000e+01 -7.37386660e-01  -1.08915133e+00   1.12712523e+00
C     7.312521605324999e+00   4.689040508646695e+00   6.481846632000000e+00 -1.50613485e+00  -4.95061670e+00   4.06845560e-01
C     8.595112217099999e+00   5.217958879130197e+00   6.520347144000000e+00  1.05253810e+00   8.04495280e-01  -1.51918900e-01
C     8.479981569674999e+00   4.657161906211815e+00   1.018411193600000e+01  1.68326980e-01  -1.47147510e+00  -6.32426960e-01
C     9.776733458549998e+00   5.390151569148747e+00   1.024815991200000e+01 -5.15051060e+00  -1.39202267e+00   1.55054520e-01
