72
Lattice="7.395 0 0 3.6975 6.40425786098592 0 0 0 13.6 " PBC="1 1 1" Properties=species:S:1:pos:R:3:force:R:3 Energy="-575.53595499"
C     3.692755368000000e+00   6.288242679503585e+00   1.349849993600000e+01 -1.16842689e+00  -2.27966780e+00   6.24822710e-01
C     1.121790293100000e+00   6.240401080097184e-01   1.354411352000000e+01  4.86291518e+00  -3.60722636e+00  -1.65641130e-01
C     1.354602641100000e+00   9.173620345962074e-01   3.669475568000000e+00 -6.31525880e-01  -1.04677640e-01   7.11734300e-02
C     2.593970882924999e+00   1.613552447614107e+00   3.773480616000000e+00 -1.12093994e+00   1.39541484e+00   3.35547200e-01
C     6.058269077249999e+00   6.241394636661584e+00   1.342871235200000e+01  3.10422013e+00   8.61612650e-01  -1.59154710e-01
C     3.638653511025000e+00   6.155080354757334e-01   1.342612576800000e+01  1.17530973e+00  -1.67475513e+00   9.83640800e-01
C     3.779687808150000e+00   8.777002094989129e-01   3.711967408000000e+00  1.81824185e+00   3.77232796e+00  -1.06740370e+00
C     4.982098132425000e+00   1.674254052973702e+00   3.499256200000000e+00  2.51225219e+00  -1.62242647e+00   1.50018206e+00
C     8.672454710324999e+00   6.233849844519297e+00   1.332291305600000e+01 -2.77603629e+00   1.74357937e+00   1.46320009e+00
C     6.223706060925000e+00   5.865139107809982e-01   1.339312740800000e+01 -4.45579306e+00   1.38505910e-01  -3.26851460e-01
C     6.300967283099999e+00   9.749573187233881e-01   3.465546832000000e+00 -1.86004021e+00  -1.70190898e+00   1.75530090e-01
C     7.522215926175000e+00   1.673268053433577e+00   3.661077704000000e+00 -3.49463220e-01  -1.88396205e+00  -5.85105700e-01
C     1.215422455350000e+00   1.965792073533288e+00   1.359426882400000e+01 -2.30945100e-01   3.43748749e+00  -8.17859800e-02
C     2.453633009925000e+00   2.703002014314802e+00   7.627587199999999e-02 -7.38200150e-01   4.43937920e-01   3.64855720e-01
C     2.626904922150000e+00   3.091124056597777e+00   3.826067736000000e+00 -2.59832175e+00  -9.04567400e-01  -1.71043651e+00
C     3.828495288825000e+00   3.788451609641299e+00   3.457963744000000e+00 -1.63007339e+00  -2.44645643e+00   2.53519259e+00
C     3.696816332250000e+00   2.088998339010383e+00   1.243324240000000e-01 -1.09833369e+00  -4.89399370e+00  -2.96960221e+00
C     4.861176534449999e+00   2.717610959046984e+00   1.331923004000000e+01  2.43546848e+00  -1.01254242e+00   1.44995523e+00
C     5.044285571474999e+00   3.097672090046734e+00   3.603372360000000e+00 -9.80996800e-02  -1.96362611e+00  -1.87479353e+00
C     6.290993055000000e+00   3.724629017298790e+00   3.548719944000000e+00 -1.25686955e+00   3.97818374e+00   5.44503070e-01
C     6.130647713699999e+00   2.017504534475430e+00   1.329377900000000e+01  1.51301540e+00  -6.18711370e-01   6.93423870e-01
C     7.411056800474999e+00   2.715877262401704e+00   1.342860314400000e+01 -1.73113406e+00  -6.43927320e-01  -1.47866714e+00
C     7.473924172800000e+00   3.066446785956153e+00   3.720406888000000e+00  1.47185090e+00  -2.81213050e-01   3.43371510e-01
C     8.668474240649999e+00   3.808594857845778e+00   3.836833360000000e+00  4.08925541e+00  -1.12843271e+00  -1.99879871e+00
C     2.450443324575000e+00   4.108245664177255e+00   2.734171200000000e-02 -1.12937550e-01   1.18942472e+00   2.06947470e-01
C     3.702272252325000e+00   4.837683845917923e+00   3.471903200000000e-02 -1.89904190e-01  -1.85649710e-01  -1.68260850e+00
C     3.796032311100000e+00   5.135232518649433e+00   3.441761384000000e+00  7.95223580e-01   3.90710991e+00  -4.29824440e-01
C     5.031772602900000e+00   5.874702329902006e+00   3.520886184000000e+00  5.30497040e-01   1.60553742e+00   3.36116030e-01
C     4.923522300449999e+00   4.083536052033439e+00   1.335975382400000e+01 -6.04509190e-01   2.65249544e+00   5.58856880e-01
C     6.170050824975000e+00   4.771791461477640e+00   1.324877578400000e+01 -1.42481369e+00   2.88675006e+00   1.09233870e-01
C     6.299730765149999e+00   5.247356343984955e+00   3.572044624000000e+00 -1.59624769e+00  -3.54777473e+00   2.03093520e-01
C     7.501303420799999e+00   5.929582849122332e+00   3.677903488000000e+00  1.02596445e+00  -2.20484225e+00  -1.55876201e+00
C     7.423695225225000e+00   4.114733177389435e+00   1.317500734400000e+01 -1.27290678e+00  -3.91245050e-01   2.56981854e+00
C     8.582881922399999e+00   4.808031299472601e+00   1.349816592000000e+01  2.72153282e+00   1.91195931e+00  -1.81300357e+00
C     8.728873198950000e+00   5.169497091392635e+00   3.475792528000000e+00  8.35236800e-02   1.48330285e+00   2.05473796e+00
C     9.990833794349999e+00   5.872187249755227e+00   3.396650864000000e+00 -1.20511075e+00   1.61975938e+00   4.76238810e-01
C     7.410654401550000e+00   9.615237474362522e-02   6.803825544000000e+00  4.41353490e-01   2.36753496e+00   2.96717820e-01
C     1.262190764775000e+00   8.186905450233509e-01   6.955071552000000e+00 -8.29169950e-01   1.39810946e+00  -1.73737770e-01
C     1.115990579475000e+00   5.209699179682998e-01   1.000910346400000e+01 -6.67183880e-01   5.36189500e-02  -1.06441218e+00
C     2.381947432875000e+00   1.246332173836550e+00   1.014398445600000e+01 -1.69027301e+00  -2.22916712e+00  -7.25389800e-01
C     2.460229497825000e+00   8.713639648573861e-02   7.022178167999999e+00  2.25295441e+00   1.76015354e+00  -6.21753180e-01
C     3.758418272175000e+00   8.446167740328319e-01   7.039659607999999e+00 -2.40599261e+00  -3.24757100e-02  -6.47154100e-02
C     3.601380307650000e+00   5.384456646889321e-01   9.974332479999999e+00 -2.47208878e+00  -2.56373890e+00   1.13016070e+00
C     4.775467892850000e+00   1.157477258796659e+00   1.005337527200000e+01  4.25112359e+00   3.20555387e+00  -1.58361842e+00
C     4.974924316875001e+00   1.407578386107894e-01   6.895062911999999e+00 -1.31240758e+00  -8.56061170e-01  -3.58237890e-01
C     6.160301035125000e+00   8.346585373160035e-01   6.786855192000000e+00  2.39363560e+00  -7.77466600e-02   9.66433630e-01
C     6.068914401600000e+00   4.689763741486824e-01   9.836889383999999e+00 -1.97751329e+00   3.23078611e+00   8.79085900e-01
C     7.239275498400000e+00   1.224970323446470e+00   9.850222688000001e+00  2.49338213e+00  -8.62449950e-01   1.66407831e+00
C     8.653333902524999e+00   2.333932959378220e+00   7.011091720000000e+00  1.30982113e+00  -4.07840557e+00   6.82457960e-01
C     2.458798269525000e+00   3.044517774489992e+00   7.188962176000000e+00  1.94070578e+00  -3.27894392e+00  -2.07980212e+00
C     2.353101275700000e+00   2.621394157469287e+00   1.021614401600000e+01 -1.15399468e+00   1.68843164e+00  -9.34745170e-01
C     3.575973971700000e+00   3.334422068869492e+00   1.020057500800000e+01  3.35396660e-01   1.32695060e+00  -1.39591953e+00
C     3.719730479250000e+00   2.280166332727483e+00   7.104963136000000e+00  1.57883770e-01   7.27180400e-02  -5.74300000e-03
C     4.968270000075000e+00   3.001975314207270e+00   7.030564063999999e+00 -4.20716900e-01  -2.12747206e+00  -4.20304160e-01
C     4.790921483175000e+00   2.613214575287917e+00   1.000458935200000e+01  6.97551150e-01   6.29663690e-01   9.40337690e-01
C     6.068133082875001e+00   3.365501227795707e+00   9.862178992000000e+00 -2.10265255e+00  -1.79561607e+00   1.28642507e+00
C     6.219916123424999e+00   2.216340538256044e+00   6.975849360000001e+00 -1.18682926e+00   2.44449768e+00  -6.55584110e-01
C     7.453079590500000e+00   2.953749523371847e+00   7.012014888000000e+00 -2.57587758e+00   2.20814848e+00  -6.86584200e-01
C     7.258562028150000e+00   2.620593753321945e+00   9.971242695999999e+00  2.16719070e-01   9.11012620e-01  -1.13467995e+00
C     8.471601185925000e+00   3.319227134543120e+00   9.964906456000000e+00  2.04398980e+00   1.56385107e+00   1.73253308e+00
C     9.884185803525000e+00   4.376009734666370e+00   6.898433944000000e+00  2.45604820e-01   2.76990280e+00   9.59618840e-01
C     3.722689995225000e+00   5.121870995263222e+00   6.882508208000001e+00 -7.18705660e-01  -1.55102843e+00  -5.34123260e-01
C     3.544392958650000e+00   4.815980392413591e+00   1.000769355200000e+01  1.94795277e+00  -3.34617930e+00   1.11922900e-01
C     4.735251035775000e+00   5.491179185188297e+00   9.883200240000001e+00  4.52361096e+00   3.27555010e-01   1.24034351e+00
C     4.917582451574999e+00   4.398973097819500e+00   6.922198448000001e+00  2.51321558e+00   1.74204660e-01   3.43337700e-01
C     6.201756000074999e+00   5.085293204580990e+00   6.930580944000000e+00 -2.30806076e+00   8.81123070e-01   2.30206710e-01
C     6.057076633499999e+00   4.737504794044823e+00   9.900321416000001e+00 -6.80299180e-01   3.10862554e+00  -2.16706860e-01
C     7.326335058600000e+00   5.502979094337926e+00   9.890207504000001e+00 -2.87931855e+00  -5.63855380e-01   4.21401540e-01
C     7.410952013325000e+00   4.431286677448231e+00   6.981537560000000e+00  2.05649167e+00  -2.28261637e+00  -3.33263110e-01
C     8.681819627399999e+00   5.114206955839582e+00   6.896368512000000e+00 -1.79680090e+00   1.12117660e-01   1.72420900e-02
C     8.508718835474999e+00   4.796781772243461e+00   9.938674639999999e+00  1.45127545e+00  -1.34519763e+00  -1.50311570e-01
C     9.801209984174999e+00   5.533812970188103e+00   9.901680055999998e+00 -4.12674469e+00  -3.13204099e+00   5.32497550e-01
