72
Lattice="7.395 0 0 3.6975 6.40425786098592 0 0 0 13.6 " PBC="1 1 1" Properties=species:S:1:pos:R:3:force:R:3 Energy="-581.97272493"
C     3.720791476875000e+00   6.342022755095829e+00   1.339926359200000e+01 -1.67006397e+00   3.75721400e-01   4.26508010e-01
C     1.204500114300000e+00   6.687153142449781e-01   1.344330732800000e+01  8.74138670e-01   3.46115140e-01  -3.15053030e-01
C     1.274347331325000e+00   7.925483644388310e-01   3.606245631999999e+00  1.82907790e-01   2.75987220e-01  -4.91561630e-01
C     2.516961053775000e+00   1.507672389436614e+00   3.595594520000000e+00 -8.60454470e-01   8.15035220e-01  -2.07788200e-01
C     6.102443553450000e+00   6.370207957980266e+00   1.341100488000000e+01  2.89534772e+00  -1.39952075e+00   9.55455200e-02
C     3.689235384975000e+00   6.835471271506879e-01   1.344736257600000e+01  4.33936800e-02  -1.30764782e+00  -2.30401890e-01
C     3.722788459649999e+00   7.865608316377812e-01   3.530414480000000e+00  4.12279530e-01   4.51635980e-01  -7.54679400e-02
C     4.936391781975000e+00   1.501904458637583e+00   3.481419800000000e+00  1.77216044e+00   3.45461430e-01   4.92309220e-01
C     8.652025690049999e+00   6.325809543769717e+00   1.343561421600000e+01 -1.54973302e+00   1.10155724e+00   9.46962200e-02
C     6.187300401975000e+00   6.681379703988990e-01   1.339931336800000e+01 -1.26437376e+00  -1.25482595e+00  -1.70737820e-01
C     6.211711999499999e+00   8.135897457655968e-01   3.517554048000000e+00 -4.54097650e-01  -1.16447091e+00  -7.15859200e-02
C     7.453655143350000e+00   1.528515110684562e+00   3.582206136000000e+00 -1.01141675e+00  -1.53744994e+00  -1.77020460e-01
C     1.218058107300000e+00   2.101438994158904e+00   1.344030920800000e+01  1.02959520e-01  -1.13511336e+00   3.05752200e-02
C     2.439018345375000e+00   2.788475545247192e+00   1.352791143200000e+01  7.39114950e-01   6.95006940e-01  -5.36647200e-01
C     2.516793778875000e+00   2.962747441622569e+00   3.572251480000000e+00 -5.96161860e-01  -1.24204415e+00  -1.80416270e-01
C     3.774088277175000e+00   3.653542587606311e+00   3.497623248000000e+00 -1.80109193e+00  -5.69324410e-01   3.06197820e-01
C     3.696021665550000e+00   2.114071520872912e+00   1.345077481600000e+01 -8.97466020e-01  -1.66228372e+00   3.29614390e-01
C     4.915453948725000e+00   2.790503517541140e+00   1.335014175200000e+01  3.96405080e-01  -1.22317210e-01  -7.32786800e-02
C     4.964429850525000e+00   2.936099068496794e+00   3.519145112000000e+00  7.44166540e-01  -6.61670150e-01  -2.74390140e-01
C     6.208699313474999e+00   3.649342419131409e+00   3.543218200000000e+00 -6.55144880e-01  -1.09446416e+00  -8.44692800e-02
C     6.135510554775000e+00   2.074580241162429e+00   1.328221410400000e+01  1.24106075e+00   1.10745390e-01   6.21092510e-01
C     7.402552439549999e+00   2.787303630101391e+00   1.328316637600000e+01 -1.60831139e+00  -6.60517820e-01   4.58188330e-01
C     7.417377861599999e+00   2.918465264692177e+00   3.585307344000000e+00  7.90743460e-01   1.03660772e+00  -1.28243170e-01
C     8.631720572999999e+00   3.637824297327621e+00   3.576798232000000e+00  1.66586098e+00   7.08409430e-01  -2.96980600e-02
C     9.822764745299999e+00   4.212438520621531e+00   1.351280360000000e+01  1.42564369e+00  -1.37764360e-01  -1.95544710e-01
C     3.688795604325000e+00   4.937040911294693e+00   1.344597646400000e+01 -9.36759300e-02  -1.14425538e+00  -2.02754930e-01
C     3.757953163650000e+00   5.052552781165891e+00   3.496081824000000e+00 -8.56726280e-01   6.93237580e-01  -7.84213000e-03
C     4.948524388725000e+00   5.771757279059171e+00   3.511459072000000e+00  2.10695587e+00   2.00483860e-01   3.28902740e-01
C     4.924070565750000e+00   4.196217303973095e+00   1.332701332000000e+01 -8.97675700e-01   8.12603760e-01   6.02800100e-01
C     6.141523244399999e+00   4.886013001475206e+00   1.330828340000000e+01  6.29345900e-02   2.22163060e+00   2.04191810e-01
C     6.215991596925000e+00   5.042257872613361e+00   3.530022800000000e+00 -7.38230030e-01   1.70785142e+00  -4.69462700e-02
C     7.445209018050000e+00   5.782855153462187e+00   3.534562480000000e+00 -1.10079149e+00  -4.43178240e-01   4.32653600e-02
C     7.372150965975001e+00   4.174844310174338e+00   1.328766484800000e+01  4.49776270e-01   1.64850942e+00   8.05860950e-01
C     8.603632847025001e+00   4.887135347665171e+00   1.345844984000000e+01 -2.66858600e-01   1.42256793e+00  -4.89438520e-01
C     8.650124768325000e+00   5.080660748700537e+00   3.550584504000000e+00  1.27813060e+00  -9.80968650e-01  -2.31855330e-01
C     9.920222378024999e+00   5.756739678632943e+00   3.514564088000000e+00 -9.12688900e-01   1.37281939e+00   2.21062100e-02
C     7.402127337974999e+00   5.724401058355981e-02   6.652272584000000e+00  1.24944444e+00  -6.18744470e-01   1.01914559e+00
C     1.250658558075000e+00   7.853289726384103e-01   6.814083480000000e+00  5.09565010e-01  -1.56397872e+00   5.76734000e-02
C     1.175371800900000e+00   6.472149397573861e-01   1.023925150400000e+01  6.18335130e-01  -1.17391522e+00  -4.22430490e-01
C     2.441544884100000e+00   1.332363579671124e+00   1.018696780000000e+01 -1.93648072e+00   6.98171250e-01   4.54939490e-01
C     2.514431594025000e+00   3.753900574444020e-02   6.937331983999999e+00 -1.95373114e+00   8.92743270e-01  -3.29232620e-01
C     3.730530950700000e+00   7.357096152926520e-01   7.006410600000001e+00  4.31457720e-01   1.30487493e+00  -5.30445060e-01
C     3.634213996724999e+00   6.215617242604771e-01   1.008248974400000e+01  1.11833863e+00   5.71919850e-01   3.15656910e-01
C     4.884942030824999e+00   1.326354784733979e+00   1.014939752800000e+01 -7.90484150e-01   8.95642740e-01   3.18637540e-01
C     4.973525922374999e+00   3.817238684679420e-02   6.863415440000000e+00 -3.73658590e-01   8.40247070e-01  -4.99335600e-02
C     6.192814409775000e+00   7.587954918986443e-01   6.732538560000000e+00 -4.76615560e-01   7.36388000e-01   4.24958930e-01
C     6.096822022350000e+00   6.416904988421929e-01   1.016099588000000e+01  1.31280382e+00  -3.67420910e-01   1.76289100e-02
C     7.344821671199999e+00   1.357569329671355e+00   1.024685716800000e+01 -4.68714150e-01  -7.73393860e-01  -1.57966500e-01
C     1.263463703100000e+00   2.185633594796652e+00   6.865974823999999e+00 -1.09543491e+00   8.05901120e-01  -5.93263000e-02
C     2.484624530550000e+00   2.891732611532965e+00   6.956815208000000e+00  2.61282580e-01   3.65112240e-01  -4.73768210e-01
C     2.415124656675000e+00   2.765456593135837e+00   1.028774135200000e+01  1.54313990e-01  -9.91488900e-02  -5.09507480e-01
C     3.637313130300000e+00   3.498147561486178e+00   1.030732535200000e+01  6.33655680e-01  -1.84056211e+00  -2.67188720e-01
C     3.714570728925000e+00   2.196388713319000e+00   7.023228632000000e+00  7.46117660e-01  -1.03304671e+00  -4.76001590e-01
C     4.966301377125000e+00   2.905483769967379e+00   6.950592936000000e+00 -1.12898351e+00   2.80670200e-02  -4.06045620e-01
C     4.899909547800000e+00   2.749861264608058e+00   1.029032834400000e+01 -1.24950194e+00   4.67372530e-01  -6.51615300e-01
C     6.125202849150000e+00   3.446365806473991e+00   1.023252045600000e+01 -8.26692340e-01   1.86655199e+00  -2.26031800e-02
C     6.182477493900000e+00   2.194471854898924e+00   6.819645199999999e+00  2.68610240e-01  -2.30847900e-02   1.98016150e-01
C     7.402332623174999e+00   2.933494712995447e+00   6.813605303999999e+00  9.21993310e-01  -1.70711418e+00   1.83389320e-01
C     7.333628894999999e+00   2.759003086532894e+00   1.024910334400000e+01  1.23948879e+00   4.13694550e-01  -3.69499250e-01
C     8.576159053949999e+00   3.476637196356324e+00   1.022497803200000e+01  3.28001740e-01   2.88516700e-01  -1.12716690e-01
C     9.885805900125000e+00   4.317550259983561e+00   6.800414392000000e+00 -3.66651670e-01  -6.88741740e-01   4.18578780e-01
C     3.703848755400000e+00   5.004308866280724e+00   6.735779304000000e+00  3.73075330e-01   1.98066832e+00   2.38433230e-01
C     3.616823101275000e+00   4.887919228827235e+00   1.026256040800000e+01  1.09348251e+00   1.01217259e+00  -2.85516150e-01
C     4.855794268575000e+00   5.595697441974440e+00   1.022675990400000e+01  8.19281680e-01   1.03295568e+00  -1.00205900e-01
C     4.932301163775000e+00   4.341010465461470e+00   6.868789071999999e+00  4.82070820e-01  -1.33411931e+00   4.34883000e-02
C     6.155969524800000e+00   5.032430474884613e+00   6.906074016000001e+00  1.43491589e+00   1.42037800e-01  -3.23939960e-01
C     6.113183718675000e+00   4.908954398023877e+00   1.016666980000000e+01 -3.71649560e-01  -8.07594510e-01  -3.57245000e-03
C     7.336329142275000e+00   5.633232156866114e+00   1.004013662400000e+01  6.95302720e-01  -1.71350346e+00   6.89882660e-01
C     7.412232679424999e+00   4.327278840013530e+00   6.867690192000000e+00 -1.02084800e-02   9.24862590e-01   1.16893860e-01
C     8.674332300825000e+00   5.044381396434581e+00   6.831127816000000e+00 -1.26676383e+00  -9.77951620e-01  -9.33082000e-03
C     8.617383701625000e+00   4.909783108990961e+00   1.010301132800000e+01 -2.66014547e+00  -4.99866980e-01   1.84960810e-01
C     9.807741470025000e+00   5.620118286131349e+00   1.014148763200000e+01  3.94104150e-01   1.78040300e-01   2.80655330e-01
