72
Lattice="7.395 0 0 3.6975 6.40425786098592 0 0 0 13.6 " PBC="1 1 1" Properties=species:S:1:pos:R:3:force:R:3 Energy="-579.36599169"
C     3.683318719425000e+00   6.275841794796374e+00   1.353621273600000e+01  5.02548240e-01  -1.90562057e+00  -3.74036470e-01
C     1.213351374675000e+00   5.575862622828498e-01   1.355564836000000e+01  5.81112200e-01  -1.78010770e+00  -2.24600000e-05
C     1.344209079525000e+00   9.851288812695330e-01   3.563698440000000e+00  9.64624580e-01  -1.36992360e+00  -2.46637410e-01
C     2.611668744825000e+00   1.624898102753726e+00   3.611853184000000e+00 -1.80543283e+00   3.35657055e+00  -7.20710060e-01
C     6.137857247099999e+00   6.219158156775564e+00   1.354558368000000e+01  8.78577170e-01   2.11488378e+00  -3.08031280e-01
C     3.690849750450000e+00   5.639270539474572e-01   1.350611335200000e+01 -1.32721610e-01  -6.37644720e-01   1.49717270e-01
C     3.805660822950000e+00   9.260122656877092e-01   3.571424600000000e+00  1.95755610e+00   3.93250452e+00   3.84675170e-01
C     5.053639285125000e+00   1.676428682772644e+00   3.610804080000000e+00  3.39821200e-01  -3.37883110e-01  -9.82808700e-01
C     8.623725875474999e+00   6.209291308818398e+00   1.353253448000000e+01 -1.31671574e+00   1.19692404e+00  -6.56817290e-01
C     6.158392348650000e+00   4.935944694476797e-01   1.355952109600000e+01 -9.20745270e-01   3.11512760e+00   1.71207310e-01
C     6.322125302474999e+00   9.444702974789082e-01   3.525787624000000e+00 -2.43478297e+00   6.88371670e-01   4.24772040e-01
C     7.511103385724999e+00   1.669505167685355e+00   3.519646272000000e+00  1.25920111e+00   1.16244644e+00   1.61792160e-01
C     1.247085552900000e+00   1.909329062195755e+00   1.357824190400000e+01 -1.83105042e+00   4.66095195e+00  -1.93709650e-01
C     2.465018536800000e+00   2.679011856498978e+00   1.354593048000000e+01 -7.53514810e-01  -2.45542270e-01  -4.77533330e-01
C     2.604834063975000e+00   3.111413578051779e+00   3.554306688000000e+00  1.65054100e-02  -1.17065886e+00   4.56857350e-01
C     3.836606420625000e+00   3.836482006569412e+00   3.625094688000000e+00 -1.30097411e+00  -1.37184881e+00  -1.03722860e+00
C     3.689347715025000e+00   2.014668921222758e+00   1.348029892000000e+01 -2.90718600e-01  -2.45144635e+00   1.21859776e+00
C     4.887218470650000e+00   2.700047666121406e+00   5.251803200000000e-02  1.51823701e+00  -1.39558918e+00  -8.11956070e-01
C     5.052549594899999e+00   3.136465561820791e+00   3.565339279999999e+00 -7.79567370e-01  -3.78279119e+00   9.08425790e-01
C     6.270993610274999e+00   3.724491389797378e+00   3.602050712000000e+00  2.88601504e+00   5.32437044e+00  -6.54778700e-01
C     6.141109346250000e+00   1.962223364883382e+00   3.683111200000000e-02 -1.69443410e-01   8.34668800e-02  -2.15190490e-01
C     7.349610451349999e+00   2.708830977691238e+00   1.358946829600000e+01  1.78687982e+00  -1.63555311e+00   5.83886820e-01
C     7.547186918475000e+00   3.104889048229168e+00   3.539561840000000e+00 -2.29115651e+00  -1.75852382e+00  -2.89276000e-02
C     8.741292620774999e+00   3.828345268873126e+00   3.507817672000000e+00  1.41957531e+00  -1.40054082e+00   7.52184440e-01
C     2.456591786400000e+00   4.082026056115208e+00   1.349368635200000e+01 -1.08526513e+00   1.95545099e+00  -4.34138680e-01
C     3.681023126550000e+00   4.851693736369881e+00   1.346608882400000e+01 -2.19601670e-01  -2.09021288e+00   1.07698337e+00
C     3.816792220650000e+00   5.212587756148173e+00   3.529782624000000e+00  1.21920451e+00   1.75306459e+00   3.82094130e-01
C     5.055275798625000e+00   5.964562841511074e+00   3.537820768000000e+00  3.30152510e-01  -9.34514200e-01   1.21928220e-01
C     4.888642932525000e+00   4.073488219749149e+00   2.958720800000000e-02  1.03331278e+00   3.42605924e+00  -8.01540850e-01
C     6.151864116600000e+00   4.838751243575450e+00   1.357406765600000e+01 -1.03921814e+00  -1.69731674e+00   8.20961130e-01
C     6.312142496174999e+00   5.257668031693077e+00   3.569906296000000e+00 -1.88422344e+00  -1.62900982e+00  -6.96720200e-02
C     7.505721304724999e+00   6.000117872213065e+00   3.551570504000000e+00  1.25528271e+00  -5.59155798e+00   4.66979370e-01
C     7.395366755025000e+00   4.160800413113144e+00   2.200276000000000e-02 -2.99629065e+00  -3.06140891e+00  -9.93469700e-01
C     8.556662025525000e+00   4.809559803696048e+00   1.343886828800000e+01  4.47099075e+00   4.09096380e-01   1.24997387e+00
C     8.740947422175001e+00   5.202196015216801e+00   3.606362320000000e+00  6.34658710e-01   3.20822956e+00  -1.05800331e+00
C     1.001080288260000e+01   5.920869984388960e+00   3.539255160000000e+00 -1.80451933e+00  -1.09605610e-01   2.50471780e-01
C     7.412049468300000e+00   1.417273792082148e-01   7.079367936000000e+00  2.02939210e-01   4.80099660e-01  -7.35596250e-01
C     1.263399033825000e+00   8.411761505401255e-01   6.982066736000000e+00 -1.17198133e+00   1.73411817e+00  -1.44080140e-01
C     1.075840092525000e+00   4.684293864848598e-01   9.901861887999999e+00  2.15172589e+00   4.43921180e-01   9.17922650e-01
C     2.345283688425000e+00   1.187362151717141e+00   9.982460112000000e+00 -6.43289210e-01  -2.22674410e-01  -2.97351000e-03
C     2.469372601875000e+00   1.755356485788906e-01   6.839879008000000e+00  1.26691011e+00  -2.37249065e+00   3.35018380e-01
C     3.742716209850000e+00   8.519028341575753e-01   6.793935352000000e+00 -1.67924056e+00  -1.68965800e-02   3.90057800e-01
C     3.596688512925000e+00   4.974092937271458e-01   1.010026290400000e+01 -3.95036851e+00  -1.54019367e+00  -5.91746000e-01
C     4.740581462700000e+00   1.174379504225928e+00   9.999341383999999e+00  5.47338438e+00   2.06622052e+00  -9.87403900e-02
C     4.953300042750000e+00   1.749749558032476e-01   6.919214744000000e+00  5.31668030e-01  -1.95572879e+00   2.32658600e-01
C     6.168456906675000e+00   9.024727114549147e-01   7.048961056000000e+00  4.77968490e-01  -3.91292035e+00  -6.97166690e-01
C     6.055636494225000e+00   4.473377317338930e-01   9.961584384000000e+00 -1.45080141e+00   2.00201897e+00   2.57840100e-01
C     7.270966290224999e+00   1.193233959578661e+00   9.899985768000001e+00 -1.03113384e+00  -4.50698900e-02  -8.16963600e-02
C     8.639074419825000e+00   2.303065205003964e+00   6.995672991999999e+00  9.60751160e-01  -1.42867484e+00  -1.06147562e+00
C     2.483246287425000e+00   3.013817043160724e+00   6.851233647999999e+00 -4.25893050e-01  -2.55221998e+00   8.11222530e-01
C     2.341339491225000e+00   2.604947703071914e+00   9.920125056000000e+00 -9.15041000e-03  -7.36982410e-01   3.65474020e-01
C     3.551537637900000e+00   3.319365530555475e+00   9.872062928000000e+00  1.27614329e+00   9.38675320e-01   5.48838340e-01
C     3.692662634700000e+00   2.244937663006038e+00   6.806650264000000e+00  1.83975561e+00   3.22649234e+00   1.00377050e-01
C     4.947378570450000e+00   3.041200561046248e+00   6.860863535999999e+00 -3.53123970e-01  -3.85650643e+00   7.07178500e-02
C     4.801920473399999e+00   2.634747931703488e+00   9.904701840000000e+00 -4.42841580e-01  -1.14553718e+00   2.50850950e-01
C     6.073733464275000e+00   3.342511094844722e+00   9.917629592000001e+00 -2.06939400e+00  -2.28459044e+00  -2.74119360e-01
C     6.184147876499999e+00   2.240430602494485e+00   6.944893176000001e+00 -4.21030730e-01   4.79084343e+00  -1.87033150e-01
C     7.429434817500000e+00   2.970199628196200e+00   6.968323664000000e+00 -1.30823142e+00   1.65327173e+00  -2.33221860e-01
C     7.269169674974999e+00   2.627834727471353e+00   9.857348271999999e+00  9.59368740e-01  -1.33970225e+00   1.25560423e+00
C     8.506820095275000e+00   3.286706953555826e+00   9.968625648000000e+00 -8.43124910e-01   2.57923768e+00  -3.34522510e-01
C     9.865916345100000e+00   4.376610774266531e+00   6.999025255999999e+00  1.43707177e+00   2.75418992e+00  -7.65304700e-01
C     3.747391107000000e+00   5.136192388817491e+00   7.005662056000000e+00 -2.39817455e+00  -3.71923340e-01  -1.43589060e-01
C     3.547842467325000e+00   4.773715684794257e+00   9.876083632000000e+00  2.15466308e+00  -2.31839543e+00   5.15150300e-01
C     4.784337603750000e+00   5.458204750190993e+00   9.932903071999998e+00  6.41500090e-01  -8.60909590e-01  -1.97027110e-01
C     4.960560490724999e+00   4.431575509477717e+00   6.919081056000000e+00 -5.05860130e-01  -1.55784070e-01  -1.85303520e-01
C     6.171006739650000e+00   5.114943701663797e+00   6.888431416000000e+00  9.44245160e-01   2.40652349e+00  -2.59878740e-01
C     6.035770935975000e+00   4.694810104552769e+00   9.950973936000000e+00 -2.15967140e-01   4.51377484e+00   7.68679250e-01
C     7.252955582849999e+00   5.472985008820929e+00   1.009415188000000e+01  2.73916910e-01  -1.26370946e+00  -4.90756010e-01
C     7.411928855849999e+00   4.450332492025820e+00   6.902255000000000e+00 -3.21820700e-01  -2.68837544e+00   1.49686790e-01
C     8.640244013025001e+00   5.102603657406255e+00   6.960406560000000e+00  6.79763020e-01   2.09215515e+00  -1.51793340e-01
C     8.465892135000001e+00   4.756985265603372e+00   1.004427224800000e+01  2.00922911e+00  -9.51035340e-01  -2.05827550e-01
C     9.778309554900000e+00   5.457996355640228e+00   9.974415984000000e+00 -4.05084400e+00   3.36143380e-01   3.60516310e-01
