72
Lattice="7.395 0 0 3.6975 6.40425786098592 0 0 0 13.6 " PBC="1 1 1" Properties=species:S:1:pos:R:3:force:R:3 Energy="-578.22944579"
C     3.697620020850000e+00   6.277650165088303e+00   1.353911252800000e+01 -4.73229320e-01  -1.72474100e+00  -5.09387630e-01
C     1.228446566325000e+00   5.457269856628590e-01   1.355998499200000e+01  2.71051370e-01  -1.06941097e+00  -2.91264300e-02
C     1.339597446600000e+00   9.945999460909514e-01   3.579934392000000e+00  1.17772730e+00  -1.93753421e+00  -3.17986220e-01
C     2.610915157350000e+00   1.625046617493499e+00   3.645390240000000e+00 -2.05034901e+00   3.62639776e+00  -9.21744300e-01
C     6.157571170874999e+00   6.226920821770249e+00   1.353239929600000e+01  5.27122100e-02   1.93255401e+00  -1.95078990e-01
C     3.691109536800000e+00   5.652003484951824e-01   1.350345414400000e+01  6.63863700e-02  -6.03762710e-01  -1.96211100e-02
C     3.799488179475000e+00   9.256798206621967e-01   3.577052416000000e+00  1.93741008e+00   4.31620064e+00   4.68759290e-01
C     5.043086324324999e+00   1.658313342819533e+00   3.611327952000000e+00  6.62247970e-01   1.38097410e-01  -1.11570760e+00
C     8.610465198449999e+00   6.200614884312249e+00   1.352047182400000e+01 -9.64970100e-01   2.20621828e+00  -6.39085600e-01
C     6.138711665399999e+00   4.757642470544965e-01   1.354371354400000e+01  4.24191890e-01   3.46384641e+00   2.90989290e-01
C     6.328434642524999e+00   9.297987831474344e-01   3.511481648000000e+00 -3.01905051e+00   1.11156284e+00   5.31078130e-01
C     7.503722177400000e+00   1.667356090875275e+00   3.526242272000000e+00  1.79162748e+00   8.28621810e-01   1.75111820e-01
C     1.247764302975000e+00   1.900265692429705e+00   1.359200401600000e+01 -1.56706934e+00   5.25141758e+00  -3.61401280e-01
C     2.467647644175000e+00   2.681758322482239e+00   1.357383428000000e+01 -7.67453820e-01   8.88053000e-03  -7.34214160e-01
C     2.603518567425000e+00   3.108353367475957e+00   3.570033048000000e+00 -1.47605160e-01  -5.01457980e-01   5.46204450e-01
C     3.832536286574999e+00   3.855196144632433e+00   3.631898087999999e+00 -1.22761996e+00  -2.45168478e+00  -1.20239405e+00
C     3.701195059650000e+00   2.005552011860998e+00   1.347438876800000e+01 -1.64802643e+00  -2.08067922e+00   1.40969800e+00
C     4.878897357825000e+00   2.680896949800069e+00   4.723511200000000e-02  2.49990102e+00  -1.56798320e-01  -9.05037320e-01
C     5.034129759150000e+00   3.125509029388746e+00   3.554927664000000e+00  2.85049600e-02  -3.55599247e+00   1.14966702e+00
C     6.272871200775000e+00   3.693544606881129e+00   3.607163768000000e+00  2.47509145e+00   5.85836132e+00  -6.91533470e-01
C     6.127071047999999e+00   1.939359395812239e+00   1.745152000000000e-02  5.68586470e-01   9.63170760e-01  -2.49288550e-01
C     7.354459907474999e+00   2.725515542395846e+00   1.355912044000000e+01  1.09309598e+00  -2.52715528e+00   9.57005660e-01
C     7.559197692599999e+00   3.088986955749895e+00   3.558537920000000e+00 -3.14679746e+00  -1.25779806e+00  -1.39034730e-01
C     8.729303550975001e+00   3.835539043642106e+00   3.519242488000000e+00  2.12180451e+00  -1.50892946e+00   8.58053780e-01
C     2.444074565700000e+00   4.103593162969701e+00   1.351367114400000e+01 -5.69471720e-01   1.09559909e+00  -6.39391270e-01
C     3.680889868650000e+00   4.868573823066954e+00   1.346582539200000e+01  4.38082100e-02  -2.92598986e+00   1.17531902e+00
C     3.824474479425000e+00   5.219689117476234e+00   3.506041920000000e+00  1.18187714e+00   1.66561062e+00   5.15856180e-01
C     5.057642124675000e+00   5.966721332580208e+00   3.527877944000000e+00  6.29844530e-01  -8.36802590e-01   1.91839240e-01
C     4.898594642850000e+00   4.073673751099353e+00   1.422736800000000e-02  4.42664480e-01   3.08089501e+00  -7.68984860e-01
C     6.150067575300000e+00   4.850277242616406e+00   1.354566650400000e+01 -9.39102950e-01  -2.11971558e+00   9.15024590e-01
C     6.319417142550000e+00   5.251151251022478e+00   3.573522264000000e+00 -2.14680770e+00  -1.60927007e+00  -1.38569200e-01
C     7.504393643400000e+00   6.013809086793909e+00   3.552890656000000e+00  1.24643762e+00  -6.74217316e+00   5.39424570e-01
C     7.392983827200000e+00   4.182427399778629e+00   7.278720000000001e-04 -3.04962907e+00  -3.86854513e+00  -1.10330767e+00
C     8.550118374899998e+00   4.832180346925933e+00   1.342267164000000e+01  4.51110850e+00  -8.81503980e-01   1.43055578e+00
C     8.741311995675000e+00   5.215455006434674e+00   3.616027840000000e+00  5.63070400e-01   2.68907856e+00  -1.27002311e+00
C     1.001894115405000e+01   5.914508763141780e+00   3.523410344000000e+00 -2.09668653e+00   1.35563630e-01   3.22989320e-01
C     7.419897966674999e+00   1.409873672124918e-01   7.067254008000000e+00  1.73361680e-01   4.40710980e-01  -6.44398960e-01
C     1.277561087400000e+00   8.447412087630516e-01   6.989350215999999e+00 -2.18916849e+00   1.77597252e+00  -3.59360500e-02
C     1.082821342275000e+00   4.628598595943322e-01   9.897039464000001e+00  1.59263404e+00   9.28532560e-01   9.76128590e-01
C     2.350016488425000e+00   1.179549213298256e+00   9.992473927999999e+00 -9.91963690e-01   9.31558700e-02  -3.00028000e-03
C     2.465752971225000e+00   1.818492221475930e-01   6.843625808000000e+00  2.00321417e+00  -2.51480412e+00   2.99413170e-01
C     3.752063009175000e+00   8.408853972332815e-01   6.800175032000000e+00 -1.93702332e+00  -5.31142300e-02   3.70020880e-01
C     3.586032502800000e+00   4.930996764854160e-01   1.010902511200000e+01 -3.25621909e+00  -1.42002490e+00  -7.10817970e-01
C     4.731561744225000e+00   1.176252941777714e+00   9.990899727999999e+00  5.70391878e+00   1.99608550e+00   9.19135200e-02
C     4.965490367475000e+00   1.812741197917650e-01   6.917854744000000e+00  6.87712500e-01  -2.28444438e+00   2.87235290e-01
C     6.178089744599999e+00   9.155103074785668e-01   7.050840984000000e+00  5.01843240e-01  -4.13808663e+00  -8.25084380e-01
C     6.067107359400000e+00   4.460646293139037e-01   9.945806752000001e+00 -1.71300306e+00   2.28840122e+00   2.89299320e-01
C     7.276358354475000e+00   1.220959400791330e+00   9.891824136000000e+00 -8.42484760e-01  -1.38141534e+00  -1.71367160e-01
C     8.637473180475000e+00   2.302268131070708e+00   7.024212592000000e+00  9.01716120e-01  -1.49259023e+00  -1.30213310e+00
C     2.480890869000000e+00   2.989151876566456e+00   6.869363264000000e+00 -1.51805720e-01  -1.96615668e+00   8.88424360e-01
C     2.346981876225000e+00   2.598901699396603e+00   9.940010568000000e+00 -4.26094590e-01  -2.94535120e-01   3.03873110e-01
C     3.548936853375000e+00   3.329633669310148e+00   9.885294640000000e+00  1.56277014e+00   4.31767220e-01   5.64591550e-01
C     3.698060134275000e+00   2.218806817957931e+00   6.823633943999999e+00  1.59786764e+00   4.13049545e+00   6.08199700e-02
C     4.945976700300000e+00   3.037121048789428e+00   6.873550432000000e+00 -4.03817590e-01  -3.93404287e+00   4.51437800e-02
C     4.805422264724999e+00   2.649589607166302e+00   9.921357896000000e+00 -7.25058450e-01  -1.80549540e+00  -4.19689300e-02
C     6.082360212449999e+00   3.347717308186851e+00   9.902378007999999e+00 -2.58082384e+00  -3.16403313e+00  -2.37828570e-01
C     6.184471666575000e+00   2.257041518233702e+00   6.947059928000000e+00 -2.70070430e-01   4.11490066e+00  -1.01390500e-01
C     7.428969782925000e+00   2.974264602787679e+00   6.972511784000001e+00 -1.50503796e+00   1.98658218e+00  -1.78929440e-01
C     7.272318244125000e+00   2.645693384769435e+00   9.833693655999999e+00  1.12609389e+00  -1.79875333e+00   1.49365067e+00
C     8.501812497074999e+00   3.290598821057348e+00   9.980317568000000e+00 -1.95146110e-01   2.64215703e+00  -5.61995040e-01
C     9.862073866124998e+00   4.357674216328033e+00   7.008236535999999e+00  1.47262770e+00   3.12495053e+00  -9.64315520e-01
C     3.753334172700000e+00   5.125537368845494e+00   6.992232327999999e+00 -3.10970603e+00  -2.23353500e-02   1.00088320e-01
C     3.556160991900000e+00   4.776447805239911e+00   9.869052840000000e+00  1.62087834e+00  -2.62565992e+00   5.85279960e-01
C     4.776708515025000e+00   5.450845041100860e+00   9.928094928000000e+00  1.33392993e+00  -5.70094770e-01  -2.67054280e-01
C     4.950698370825000e+00   4.420818533720589e+00   6.933583415999999e+00  3.82990710e-01   4.76679490e-01  -3.76085960e-01
C     6.168434499825000e+00   5.136150184758193e+00   6.896171584000000e+00 -1.07431580e-01   1.41617874e+00  -3.15780460e-01
C     6.032656901475000e+00   4.673457412251429e+00   9.932764215999999e+00 -3.41930900e-01   6.26797306e+00   9.91866690e-01
C     7.238883822225000e+00   5.470016955515713e+00   1.008871800000000e+01  5.30796360e-01  -1.31786110e+00  -5.53514740e-01
C     7.383800716200000e+00   4.460683309749467e+00   6.902697000000000e+00  1.50443249e+00  -2.57036760e+00   2.43305140e-01
C     8.643383375399999e+00   5.111324143206481e+00   6.959870447999999e+00  2.17963970e-01   1.33986381e+00  -1.60312740e-01
C     8.454100955400000e+00   4.764697657173855e+00   1.003816802400000e+01  2.58197891e+00  -1.17581350e+00  -1.35084050e-01
C     9.790166734874999e+00   5.451341242999852e+00   9.961893375999999e+00 -4.74664301e+00   1.08692159e+00   4.29499550e-01
