72
Lattice="7.395 0 0 3.6975 6.40425786098592 0 0 0 13.6 " PBC="1 1 1" Properties=species:S:1:pos:R:3:force:R:3 Energy="-579.14255987"
C     1.103342404417500e+01   6.313737453661037e+00   1.359374631200000e+01  1.20345409e+00  -2.65829746e+00   2.47610700e-02
C     1.211444130225000e+00   5.277073253221770e-01   1.352421590400000e+01 -3.32128990e-01   8.48322900e-01   4.89178660e-01
C     1.264102409250000e+00   8.934471268102381e-01   3.329681744000000e+00  2.26241705e+00  -1.51235153e+00   6.43500540e-01
C     2.575289338125000e+00   1.499837932711318e+00   3.232975136000000e+00 -1.79249602e+00   3.12219281e+00   9.91691370e-01
C     6.158582658975000e+00   6.242471000280116e+00   3.691339200000000e-02 -6.07764480e-01   1.71216509e+00  -1.44988530e-01
C     3.692637491700000e+00   5.516594418463129e-01   4.001296800000000e-02 -1.54480252e+00   6.67107660e-01  -2.56042510e-01
C     3.809461963875000e+00   8.646117636678522e-01   3.385085016000000e+00  9.44929600e-02   2.45260234e+00  -1.03140400e-01
C     5.016843022275000e+00   1.608979551331753e+00   3.482020104000000e+00  8.19818150e-01   7.01267800e-02   2.93368400e-02
C     8.574289450049999e+00   6.252630522821483e+00   3.780840800000000e-02  1.76915503e+00   1.35906629e+00   2.38267440e-01
C     6.102895905599999e+00   5.401924900628257e-01   4.042994400000000e-02  5.71821360e-01   3.28108329e+00   2.03035040e-01
C     6.272350666724999e+00   8.776760654467806e-01   3.562134848000000e+00 -1.61197671e+00   3.78434800e-01  -5.96821270e-01
C     7.476001206450000e+00   1.613398809468046e+00   3.426092688000000e+00 -4.47269260e-01  -5.59140070e-01   4.76061200e-02
C     1.227338721375000e+00   1.915471321866703e+00   1.347945776000000e+01 -7.27368180e-01   3.99229303e+00   6.92537760e-01
C     2.489775961500000e+00   2.659578904533751e+00   1.335331177600000e+01 -2.45616863e+00   1.28707324e+00   1.41761115e+00
C     2.563580280000000e+00   2.953004195842101e+00   3.323920920000000e+00 -4.74647480e-01   1.08711832e+00   1.27670610e-01
C     3.750165637049999e+00   3.749260945794765e+00   3.450320408000000e+00  4.57999050e-01  -2.58487293e+00   1.55642260e-01
C     3.691496295300000e+00   1.967664038105766e+00   1.354999606400000e+01 -6.10893510e-01   1.27063160e-01  -6.74010400e-01
C     4.867349066999999e+00   2.702208846978841e+00   3.867296000000000e-02  1.97264740e+00   7.04134680e-01   5.92306330e-01
C     4.999447246124999e+00   3.050547255180025e+00   3.479082096000000e+00  7.88222900e-01  -1.17149124e+00  -5.38253940e-01
C     6.267615833100000e+00   3.697591521465442e+00   3.413261360000000e+00 -8.52926030e-01   3.20884142e+00   6.15535650e-01
C     6.107646157799999e+00   2.007529134347537e+00   1.524576320000000e-01  1.48201664e+00  -6.90778300e-02  -6.20686170e-01
C     7.378341394424999e+00   2.757591652143128e+00   1.588867600000000e-01  6.33097390e-01  -1.76727011e+00  -1.32211322e+00
C     7.496960078474999e+00   3.010042885918669e+00   3.371665896000000e+00 -7.60646930e-01   6.00946230e-01   1.39138890e-01
C     8.722050498000000e+00   3.719446819923635e+00   3.369067752000000e+00  3.18724990e-01  -7.29015120e-01  -4.02505940e-01
C     2.433424730400000e+00   4.126984970973665e+00   1.343112295200000e+01  1.15232551e+00  -1.29818650e-01   9.25658380e-01
C     3.681093748800000e+00   4.872413175654025e+00   1.356596953600000e+01 -6.30396180e-01  -1.35667788e+00  -3.35456380e-01
C     3.717425716575000e+00   5.121990626800048e+00   3.593759608000000e+00  2.11075053e+00   1.36556122e+00  -6.18278560e-01
C     4.943163753225000e+00   5.889410156375546e+00   3.523430336000000e+00  1.86194271e+00  -1.32187965e+00  -6.27781690e-01
C     4.912486963800000e+00   4.121979146859975e+00   6.138985600000000e-02  1.48561640e-01   1.51259222e+00   9.86035500e-02
C     6.185164504125000e+00   4.887262664311428e+00   1.912410240000000e-01 -1.77475256e+00  -2.49343632e+00  -6.96410570e-01
C     6.249928324199999e+00   5.206377291131016e+00   3.446696688000000e+00 -1.00072454e+00  -1.47016575e+00  -4.25374000e-03
C     7.498060343550000e+00   5.929199234076519e+00   3.419337296000000e+00 -6.05996120e-01  -5.09686171e+00  -2.08629670e-01
C     7.434878757675000e+00   4.244977209914041e+00   1.795296560000000e-01 -2.95778810e+00  -5.13485951e+00   1.85046000e-03
C     8.603366442150000e+00   4.887550023361606e+00   4.149659200000000e-02  2.73802886e+00  -1.82573382e+00  -9.17968490e-01
C     8.704409688525001e+00   5.138803853045062e+00   3.396538800000000e+00  2.75172530e-01   6.07151880e-01   9.09547150e-01
C     9.937311076799999e+00   5.832967958876059e+00   3.558463936000000e+00 -1.41984726e+00   1.48965913e+00  -4.64483120e-01
C     7.436257740300000e+00   1.262170351822380e-01   7.043022072000000e+00 -7.88739270e-01  -3.73989680e-01  -1.15077820e+00
C     1.278156421875000e+00   8.049863297990514e-01   6.852932696000000e+00 -1.07006124e+00   9.80171950e-01  -1.63611600e-02
C     1.138564889250000e+00   5.734463428305612e-01   1.008116755200000e+01  7.25289570e-01   2.68266200e-02   1.62117750e-01
C     2.392107127575000e+00   1.289013350344520e+00   9.997297575999999e+00 -1.42321840e+00  -8.49956000e-03   4.65646800e-02
C     2.478062429400000e+00   1.150855384254576e-01   6.835239504000000e+00  9.78492810e-01  -1.23589886e+00  -1.58086870e-01
C     3.688230182625000e+00   8.590435176288967e-01   6.796938367999999e+00 -5.96132000e-02  -5.58311140e-01  -5.46290900e-02
C     3.601795056225000e+00   5.962720784822803e-01   1.007745869600000e+01 -3.30051370e-01  -1.22407182e+00   4.51950610e-01
C     4.789785241425000e+00   1.288480259920253e+00   1.011483856800000e+01  3.54849522e+00   6.70869830e-01  -2.44802300e-01
C     4.891251555750000e+00   1.658150738712468e-01   6.911337624000000e+00  1.09386851e+00  -2.52616244e+00  -8.47284400e-02
C     6.128824402499999e+00   8.369768146187448e-01   6.953930239999999e+00  1.89404642e+00  -2.35608127e+00   2.63541940e-01
C     6.093338607600000e+00   5.149595860092684e-01   1.020902183200000e+01 -1.33951346e+00   1.75846090e+00  -2.57449690e-01
C     7.304309975475000e+00   1.285211014367881e+00   1.014391863200000e+01 -7.86876980e-01  -8.68701630e-01   2.51174430e-01
C     8.680325023949999e+00   2.240404473122416e+00   6.721766816000000e+00  1.23132910e-01  -9.36291880e-01   8.79350800e-01
C     2.477431598925000e+00   3.006971916189642e+00   6.711541520000000e+00  1.13604159e+00  -1.08167922e+00   7.73383700e-02
C     2.373871205475000e+00   2.691362531824567e+00   9.914319215999999e+00 -5.06625670e-01   9.52145740e-01   6.63818860e-01
C     3.605973268200000e+00   3.441405324505949e+00   9.936587992000000e+00 -4.81451000e-02  -4.30053580e-01   6.08605000e-01
C     3.711001606125000e+00   2.252762833557436e+00   6.702068440000000e+00  4.91751900e-01   2.15476271e+00   4.32614460e-01
C     4.969681335825000e+00   2.973245044936366e+00   6.760279704000000e+00  5.56537000e-03  -1.34926730e+00   4.56555750e-01
C     4.831274888925000e+00   2.758657576821346e+00   9.999756047999998e+00  5.36688920e-01  -2.03863817e+00   9.10928430e-01
C     6.102219078225000e+00   3.458967016367063e+00   1.016312659200000e+01 -2.52777872e+00  -2.83523245e+00  -2.71641220e-01
C     6.188949930675000e+00   2.195668362394908e+00   6.891186096000000e+00 -3.99635960e-01   2.51224417e+00  -6.57515770e-01
C     7.458482303549999e+00   2.853605887044713e+00   6.857901728000000e+00 -1.54019675e+00   3.47201460e+00  -2.10425760e-01
C     7.270983668475000e+00   2.719338507604719e+00   1.017793604000000e+01  1.07513071e+00  -1.92114942e+00  -7.31797580e-01
C     8.485327008450000e+00   3.366048855885316e+00   1.003439878400000e+01  1.82827823e+00   2.23560018e+00   6.14225680e-01
C     9.906105729749999e+00   4.401914893667492e+00   6.869942760000000e+00 -5.29923100e-02   1.01139847e+00   2.20324410e-01
C     3.805495951425000e+00   5.105395017237115e+00   6.985770016000000e+00 -2.50230911e+00   2.36038000e-03  -8.48000550e-01
C     3.640226575425000e+00   4.860380279603449e+00   1.010799124000000e+01  7.48605700e-02  -1.88040214e+00  -4.02644710e-01
C     4.855179855000000e+00   5.544288991152913e+00   1.011637400800000e+01  4.78445650e-01   6.53022460e-01   2.77033250e-01
C     5.023420615950000e+00   4.394469431564612e+00   6.826059775999999e+00 -2.12304283e+00  -9.09311330e-01   2.94595270e-01
C     6.213067059300000e+00   5.075772955059207e+00   6.841246760000000e+00  1.42255243e+00   9.31626180e-01   3.51651060e-01
C     6.088900572300000e+00   4.802847180820089e+00   1.018412417600000e+01 -2.41547220e-01   4.14541830e+00  -4.01191920e-01
C     7.296399433050000e+00   5.569993889010751e+00   1.019301259200000e+01  3.57641640e-01  -7.80325680e-01  -3.02168490e-01
C     7.438833862499999e+00   4.334770732985894e+00   6.880262439999999e+00 -2.43951380e-01  -4.62128680e-01  -3.70269900e-01
C     8.620398754049999e+00   5.094745697054615e+00   6.915466720000000e+00  1.56818938e+00   6.61423400e-01  -1.68979930e-01
C     8.489715164474999e+00   4.819828390748771e+00   1.014914674400000e+01  2.49641297e+00  -3.24638540e-01  -2.06749700e-02
C     9.828748557450000e+00   5.494469116493558e+00   1.020243644000000e+01 -3.91131857e+00   1.92964258e+00  -4.20606880e-01
