72
Lattice="7.395 0 0 3.6975 6.40425786098592 0 0 0 13.6 " PBC="1 1 1" Properties=species:S:1:pos:R:3:force:R:3 Energy="-573.52047941"
C     3.644775461775000e+00   6.201055689380753e+00   1.351443179200000e+01  4.26496830e-01   1.91157917e+00   9.03064410e-01
C     1.163668030200000e+00   5.591100273554797e-01   1.353136760000000e+01  1.17180614e+00  -6.19255460e-01   5.08788000e-03
C     1.388374496850000e+00   9.199215602925349e-01   3.463273184000000e+00 -1.49835557e+00   2.72101516e+00   1.82486540e-01
C     2.586188421900000e+00   1.706460873623906e+00   3.403561296000000e+00  2.24086441e+00  -4.38610183e+00   9.86884700e-01
C     6.092368124775000e+00   6.240256151741812e+00   5.858199999999999e-03  1.75333608e+00  -9.34457550e-01  -1.67186940e-01
C     3.673979869725000e+00   5.328669797096647e-01   1.353712801600000e+01  4.58647000e-03  -1.31594940e-01   8.42717070e-01
C     3.886193778000000e+00   1.014059283598561e+00   3.547925160000000e+00 -2.21620994e+00  -2.50133955e+00  -5.84461090e-01
C     5.104179155474999e+00   1.744465725085083e+00   3.577583088000000e+00 -1.67706556e+00  -1.76819607e+00   3.44499300e-01
C     8.649821980050000e+00   6.271770544032194e+00   1.357918152800000e+01 -2.51735710e-01  -1.41876307e+00   3.07532880e-01
C     6.185807499375000e+00   6.669088652304078e-01   4.768309600000000e-02 -2.25699534e+00  -5.32656399e+00  -9.80650290e-01
C     6.254428662374999e+00   1.022539737814195e+00   3.617603128000000e+00  4.03171597e+00  -2.72120758e+00  -4.20491280e-01
C     7.555469910075000e+00   1.710106497410712e+00   3.490308624000000e+00 -2.33139108e+00  -1.34293919e+00   3.38923630e-01
C     8.574234135450000e+00   2.052472550901974e+00   1.349889148000000e+01  3.02296372e+00  -6.33588239e+00   1.46047800e-02
C     2.426551336725000e+00   2.652924688489476e+00   1.337841479200000e+01  1.18612768e+00   1.08126990e-01   8.53615540e-01
C     2.609160656625000e+00   3.068048939144990e+00   3.475804360000000e+00 -1.64472510e-01   6.73727060e-01  -3.24965340e-01
C     3.833207789550000e+00   3.733222506665652e+00   3.557093736000000e+00  1.42589843e+00   3.34202385e+00   1.01869193e+00
C     3.664386558075000e+00   1.964227577380669e+00   1.355190740800000e+01  1.49353224e+00   2.10093900e-02  -8.36241980e-01
C     4.946964154650000e+00   2.729345993064491e+00   5.492047200000000e-02 -2.47606154e+00  -8.72966520e-01   2.20274360e-01
C     5.119858182374999e+00   3.105260367099891e+00   3.646020600000000e+00 -1.24932529e+00   4.08337253e+00  -1.27348678e+00
C     6.326563115925000e+00   3.992810453272641e+00   3.549578240000000e+00 -2.05670036e+00  -1.17099228e+01   1.85304800e-01
C     6.170037624899999e+00   2.046390427212331e+00   1.399850720000000e-01 -1.48918741e+00  -2.17314474e+00  -4.73918500e-02
C     7.412205909524999e+00   2.617436390154386e+00   1.681902480000000e-01 -2.24791198e+00   3.98210047e+00  -7.59023010e-01
C     7.468225474875000e+00   3.137407436024262e+00   3.435877344000000e+00  4.34416265e+00   7.18514460e-01   5.82692870e-01
C     8.809450856774999e+00   3.760633690945132e+00   3.467400784000000e+00 -3.09628831e+00   2.02527905e+00  -2.61151420e-01
C     2.474765701425000e+00   4.048892539352662e+00   1.337584507200000e+01 -4.79961660e-01  -2.42577500e-01   9.73312530e-01
C     3.661752902775000e+00   4.739852659018878e+00   1.350386160000000e+01  3.69135420e-01   4.27580486e+00  -1.28498140e-01
C     3.806438000475000e+00   5.224614247940888e+00   3.671219088000000e+00 -1.06028771e+00  -7.67850960e-01  -9.19596860e-01
C     5.033042731125000e+00   5.923001257362190e+00   3.597463024000000e+00 -1.16478276e+00   1.51364431e+00  -1.50687540e-01
C     4.894752237824999e+00   4.163748164920944e+00   8.647995200000000e-02  1.14157880e-01  -3.76193143e+00  -3.95637570e-01
C     6.126762380700000e+00   4.755810340456375e+00   1.587915600000000e-01  1.53266524e+00   3.35238346e+00  -8.43147350e-01
C     6.238814970300000e+00   5.261890038687282e+00   3.548616720000000e+00  2.84292372e+00   4.62527451e+00   1.20796040e-01
C     7.545487621425000e+00   5.833498551639759e+00   3.556145136000000e+00 -1.28061941e+00   6.82887200e+00  -4.81491490e-01
C     7.347195540150000e+00   3.985164601941324e+00   1.059886080000000e-01  2.72130681e+00   5.16043838e+00   1.63531060e-01
C     8.699148589724999e+00   4.734381501529080e+00   1.357580832000000e+01 -4.61189175e+00   3.06006902e+00  -3.06297050e-01
C     8.765227573575000e+00   5.215929433856942e+00   3.518703928000000e+00  5.23996500e-02  -2.31699790e+00   5.07334640e-01
C     9.929731386674998e+00   5.964471901049462e+00   3.635956328000000e+00  2.87548002e+00   8.40265090e-01  -2.54337660e-01
C     7.374609692549999e+00   1.645709827393632e-01   7.112804488000000e+00  7.03703240e-01  -8.41086700e-02  -9.53357610e-01
C     1.195135862775000e+00   8.688518947118011e-01   6.927040728000000e+00  2.75459832e+00  -1.35885180e+00  -4.71242070e-01
C     1.113470252550000e+00   4.901204157289440e-01   9.961712631999999e+00 -1.59055766e+00  -1.37759938e+00  -1.35988710e-01
C     2.309998815675000e+00   1.208360432388509e+00   9.926220167999999e+00  1.34767436e+00  -8.28065680e-01   1.67281080e-01
C     2.498168510025000e+00   8.951122338538381e-02   6.833638376000000e+00 -1.52608168e+00   3.51655220e+00   5.02899000e-02
C     3.652776334125000e+00   9.152216675768168e-01   6.776648391999999e+00  1.61572855e+00  -7.24734320e-01   3.68117380e-01
C     3.550911873000000e+00   4.799568585051240e-01   1.002948469600000e+01  2.40948635e+00   4.99355410e-01   2.33975140e-01
C     4.890534536549999e+00   1.213814874765293e+00   1.003834890400000e+01 -8.03525022e+00  -9.04788460e-01  -7.23802360e-01
C     4.885919132175000e+00   9.898363310095261e-02   6.930430528000000e+00 -5.02035220e-01   3.42710284e+00  -3.82208470e-01
C     6.131279653425000e+00   7.562132951294922e-01   7.009628087999999e+00 -3.33545250e-01   4.98986805e+00  -3.11850270e-01
C     5.971341665700000e+00   4.915652163021600e-01   1.006124287200000e+01  3.99370748e+00  -3.83664174e+00   6.42109400e-02
C     7.219968891224999e+00   1.088953428844281e+00   9.952069008000000e+00  2.20879238e+00   3.12036037e+00   8.10745900e-01
C     8.669901771450000e+00   2.265166408052949e+00   6.803795760000000e+00 -9.81993730e-01   1.01448480e+00   9.44315160e-01
C     2.477790885000000e+00   3.070278709604106e+00   6.776455272000001e+00  1.96119740e-01   5.12146420e-01  -9.79434300e-02
C     2.323829166525000e+00   2.616133251765033e+00   9.823849296000001e+00  3.09320250e-01   5.43327630e-01   5.08156830e-01
C     3.585842968950000e+00   3.302704725647527e+00   9.819660224000000e+00 -1.48639181e+00   8.38429500e-02   3.59712600e-01
C     3.717683654175000e+00   2.432868496502644e+00   6.717615688000000e+00 -2.15357324e+00  -5.88464997e+00   5.25244080e-01
C     4.957442536875000e+00   2.973868051140987e+00   6.793961056000001e+00  1.05713318e+00   4.13969375e+00   2.71750440e-01
C     4.792680531824999e+00   2.551424374177279e+00   9.834878624000000e+00  1.16870094e+00   3.63313546e+00   1.25748471e+00
C     5.984177906700000e+00   3.278008370317481e+00   9.995460352000000e+00  2.82945439e+00   2.02811519e+00   1.91564340e-01
C     6.160796943824999e+00   2.283243258416320e+00   6.924207848000000e+00  3.41072470e-01  -2.79812705e+00  -2.27771680e-01
C     7.404086273474999e+00   2.978296467366020e+00   6.929867352000000e+00  1.02645678e+00  -2.99355844e+00  -6.57457510e-01
C     7.262168199899999e+00   2.511875712316371e+00   1.002898353600000e+01 -1.34348455e+00   2.99931222e+00  -9.51514290e-01
C     8.494828437225001e+00   3.329033846518981e+00   9.901815784000000e+00 -9.72444800e-02  -3.30726097e+00   1.00056519e+00
C     9.913998376275000e+00   4.533525786947157e+00   6.919690880000000e+00 -2.78027060e+00  -4.35562641e+00  -8.06656500e-02
C     3.686502710625000e+00   5.171233605911373e+00   7.060948232000000e+00  4.61132382e+00  -2.47591930e-01  -1.30594339e+00
C     3.570785676674999e+00   4.706930674893447e+00   9.936677888000000e+00 -3.98456600e-01   2.11978755e+00   1.35595450e-01
C     4.825388321025000e+00   5.475301108675999e+00   9.959573760000000e+00 -1.25795658e+00   2.87109590e-01   6.46611190e-01
C     4.966076532150000e+00   4.453864696405925e+00   6.838706960000000e+00  1.17856000e-03  -1.18705181e+00   7.85762130e-01
C     6.247614798450000e+00   5.094078117215287e+00   6.839115639999999e+00 -9.20629170e-01  -9.11377800e-01   4.81757240e-01
C     6.053507843475000e+00   4.870663596449251e+00   1.007375296800000e+01  3.11665740e-01  -6.27013902e+00  -6.96473080e-01
C     7.326402685874999e+00   5.460113283075851e+00   1.010764675200000e+01 -1.71588018e+00   1.15191814e+00  -7.58469100e-02
C     7.493236880850001e+00   4.319840742807190e+00   6.900633336000000e+00 -2.37753172e+00   4.52407189e+00  -3.21630500e-01
C     8.657553600450001e+00   5.138103547448072e+00   6.955511240000000e+00 -9.19992450e-01  -1.67426123e+00  -3.69724070e-01
C     8.557707604575000e+00   4.695987975658380e+00   1.006900820000000e+01 -4.47899047e+00   1.23141610e+00  -1.53410510e-01
C     9.639159836550000e+00   5.469398240163859e+00   1.005404575200000e+01  6.01791514e+00  -1.04630597e+00  -3.01102860e-01
