72
Lattice="7.395 0 0 3.6975 6.40425786098592 0 0 0 13.6 " PBC="1 1 1" Properties=species:S:1:pos:R:3:force:R:3 Energy="-578.961877"
C     3.728485567650000e+00   6.282292483525859e+00   1.323952302400000e+01 -9.80107820e-01   3.17457583e+00   1.02530785e+00
C     1.259598521475000e+00   6.450504927284418e-01   1.332349513600000e+01 -1.86477969e+00  -2.53541170e-01  -3.85998010e-01
C     1.308198979125000e+00   8.635708155952879e-01   3.744181999999999e+00 -4.37186500e-02  -2.71823870e-01  -7.46704570e-01
C     2.548081284375000e+00   1.585750155307118e+00   3.714157008000000e+00 -1.67174957e+00   1.03476780e+00  -1.29720690e-01
C     6.140467682100000e+00   6.342085837035749e+00   1.330117141600000e+01  1.66012189e+00  -1.03934493e+00  -5.94701200e-02
C     3.702558032100000e+00   6.649222003996572e-01   1.330547636000000e+01 -2.02357780e-01  -1.93530187e+00   5.17535060e-01
C     3.728254769700000e+00   8.321759267565745e-01   3.624250944000000e+00  1.44489485e+00   2.05562031e+00  -2.41086180e-01
C     4.969654307099999e+00   1.524396020114167e+00   3.524751575999999e+00  7.59436650e-01   1.20289061e+00   1.57853103e+00
C     8.628361616099999e+00   6.305102913001293e+00   1.333340749600000e+01 -1.44980968e+00  -1.80999650e-01   1.35959180e-01
C     6.149601505424999e+00   5.851245710808498e-01   1.327439165600000e+01  1.18827924e+00   6.46780550e-01  -4.51763380e-01
C     6.243314495024999e+00   8.360609417021863e-01   3.621238680000000e+00 -1.44229295e+00   1.76838810e-01  -1.80274060e-01
C     7.451051955450000e+00   1.538446961859007e+00   3.712392816000000e+00  1.53653505e+00   1.87862107e+00  -3.28822560e-01
C     1.228847153475000e+00   2.071387974789534e+00   1.333614408800000e+01 -1.48770144e+00  -2.37098720e-01  -5.24900260e-01
C     2.413819771950000e+00   2.783443399633697e+00   1.343392156000000e+01  2.70945746e+00  -3.74175270e-01  -2.87987280e-01
C     2.513362942575000e+00   3.044862451648017e+00   3.687767432000000e+00  1.77606948e+00  -2.19612773e+00  -5.21728630e-01
C     3.802559470875000e+00   3.699595862047886e+00   3.556660304000000e+00 -2.69631939e+00   1.27530846e+00   1.13595014e+00
C     3.706276164150000e+00   2.053270265261015e+00   1.337165287200000e+01 -1.41987449e+00   9.02812290e-01  -4.16646140e-01
C     4.926066439274999e+00   2.748303428883613e+00   1.318009768800000e+01 -3.30543320e-01  -3.82058540e-01   5.28666820e-01
C     4.971057397425000e+00   2.989518392243784e+00   3.666091751999999e+00  1.10653121e+00  -2.78251066e+00  -1.46529087e+00
C     6.202553328975000e+00   3.663247215711884e+00   3.661683312000000e+00  2.23619598e+00   7.23719350e-01  -1.11690420e-01
C     6.137589326250000e+00   2.010987561677094e+00   1.310838992000000e+01  6.81207130e-01   6.03757860e-01   7.20761300e-01
C     7.373781785325000e+00   2.775921662819706e+00   1.308887936000000e+01  2.77947050e-01  -2.79441971e+00   1.02768058e+00
C     7.499168114550000e+00   3.002616572546791e+00   3.685909264000000e+00 -3.92596017e+00  -2.75755584e+00   2.19389050e-01
C     8.659144043100000e+00   3.701814489098326e+00   3.699790240000000e+00  2.10588463e+00   1.51500568e+00  -3.65727790e-01
C     2.438632548225000e+00   4.194359748980802e+00   1.342682032000000e+01 -5.46611970e-01   5.72878410e-01  -8.50190800e-02
C     3.688685751600000e+00   4.928686364788587e+00   1.332791459200000e+01 -2.50709040e-01  -3.30528984e+00  -2.02641070e-01
C     3.821562328425000e+00   5.136938676985916e+00   3.597013816000000e+00 -1.81455473e+00  -6.86209040e-01  -1.13899860e-01
C     5.006659922399999e+00   5.845131821999871e+00   3.600613600000000e+00  1.96583983e+00  -3.96849880e-01   5.69665540e-01
C     4.897505137500000e+00   4.163630390618899e+00   1.316993073600000e+01  5.19365870e-01   1.22811580e+00   8.60844050e-01
C     6.109986194625000e+00   4.894561596994469e+00   1.317293538400000e+01  1.33349079e+00  -1.41530400e-02  -3.87531370e-01
C     6.256220433899999e+00   5.068440207894664e+00   3.620951040000000e+00 -1.57581308e+00   2.28181537e+00   2.30600850e-01
C     7.450666269225000e+00   5.863797864086362e+00   3.660100680000000e+00  1.87081030e-01  -3.51867674e+00  -4.20481930e-01
C     7.383676221375000e+00   4.147955777378813e+00   1.308172739200000e+01 -1.69058045e+00   2.45774231e+00   1.90398205e+00
C     8.561277947550000e+00   4.862246160130960e+00   1.340126646400000e+01  1.92456994e+00   9.40917910e-01  -1.36955319e+00
C     8.670769094024999e+00   5.120308356345383e+00   3.652134752000000e+00  1.41475273e+00   1.45584521e+00   2.20349080e-01
C     9.964148234325000e+00   5.830123379662382e+00   3.657682872000000e+00 -1.37581564e+00  -9.53431530e-01  -6.27119230e-01
C     7.403106583875000e+00   8.940875525962381e-02   6.600105432000000e+00  3.01871582e+00  -1.01199468e+00   1.58955270e+00
C     1.271138382000000e+00   8.210139457323804e-01   6.844133088000000e+00 -6.81451240e-01  -1.92805054e+00  -3.61856770e-01
C     1.128964515375000e+00   5.722276766023818e-01   1.026077078400000e+01  1.97590829e+00  -4.26907800e-02  -1.10692219e+00
C     2.376904190775000e+00   1.253706036336554e+00   1.014443964800000e+01  1.47106470e-01   1.39404758e+00   7.09279740e-01
C     2.510883473025000e+00   1.153793017334958e-01   7.010860248000000e+00 -1.65220504e+00  -2.19212289e+00  -5.94055210e-01
C     3.750240548400000e+00   7.454542059672709e-01   7.084310720000000e+00  9.35751490e-01   1.23411177e+00  -4.19557140e-01
C     3.619554740325000e+00   5.385238606774027e-01   9.973789296000000e+00 -1.41302216e+00   3.11296770e+00   1.39681233e+00
C     4.837831037099999e+00   1.278978710831422e+00   1.013808885600000e+01  9.60455780e-01   4.58075730e-01  -2.54823210e-01
C     5.019680446799999e+00   5.711342776579441e-02   6.941507184000000e+00 -3.19262660e-01   1.15787467e+00  -8.66478710e-01
C     6.257200419300000e+00   8.342684539697508e-01   6.711618224000000e+00 -3.63866691e+00  -1.42285138e+00   1.21977342e+00
C     6.083567446200000e+00   6.233165549566957e-01   1.011830656800000e+01  4.90027260e-01  -1.70038182e+00   2.19334410e-01
C     7.342181360400000e+00   1.321442398742466e+00   1.024928966400000e+01 -2.24084291e+00  -6.39420400e-01  -5.95443000e-02
C     8.647852395750000e+00   2.193935946601199e+00   6.894348640000000e+00 -2.23234470e-01   2.81501705e+00   4.45764390e-01
C     2.511462834300000e+00   2.899716543636713e+00   7.071577039999999e+00 -1.74361692e+00  -6.06927700e-02  -1.61946480e+00
C     2.381692453275000e+00   2.734677217520048e+00   1.029447362400000e+01  1.02643157e+00  -2.75199464e+00  -7.69949280e-01
C     3.591479807700000e+00   3.439805028551893e+00   1.033894684800000e+01  2.01161585e+00  -1.17143931e+00  -5.88879930e-01
C     3.700696747575000e+00   2.175358411358332e+00   7.113262536000001e+00  2.90388284e+00   1.26323574e+00  -3.95201110e-01
C     4.988110193474999e+00   2.963711282430499e+00   7.033686488000000e+00 -2.79690302e+00  -2.64377629e+00  -4.25670140e-01
C     4.891288234950000e+00   2.702330912133653e+00   1.030558101600000e+01 -4.06969900e+00  -6.29023720e-01  -6.26226580e-01
C     6.066985970475001e+00   3.382270264661488e+00   1.022626772000000e+01  1.73091040e+00   2.07323980e+00   1.01247620e-01
C     6.178840226174999e+00   2.232586859595292e+00   6.854789368000000e+00  1.55865794e+00   1.55753901e+00  -7.82348000e-03
C     7.407167363249999e+00   2.988868808369044e+00   6.819773584000000e+00  5.44847300e-01  -1.78554924e+00   4.50053230e-01
C     7.309853600250000e+00   2.720346217578991e+00   1.027821060800000e+01  1.87832416e+00   3.98386750e-01  -1.12716303e+00
C     8.600591912100001e+00   3.431371389461215e+00   1.019887160800000e+01 -3.22771440e+00   1.14235407e+00   1.11133790e-01
C     9.865940009099999e+00   4.308936597204440e+00   6.792610304000000e+00  1.79864846e+00  -7.99134200e-02   1.10275505e+00
C     3.709614784800000e+00   5.027252376234489e+00   6.725666616000000e+00 -1.33568189e+00   1.67405692e+00   2.55370560e-01
C     3.573152335500000e+00   4.829308805786666e+00   1.026889501600000e+01  1.93175939e+00   1.01440665e+00  -4.88419200e-01
C     4.838922760950000e+00   5.561440746468407e+00   1.021183580800000e+01 -7.59231940e-01  -1.26214892e+00   2.28832280e-01
C     4.919093250075000e+00   4.358166703757467e+00   6.932330584000000e+00  1.01014557e+00  -5.93054900e-02  -1.58872750e-01
C     6.138330046425000e+00   5.064265208153151e+00   6.966064159999999e+00  1.68124945e+00   1.85918138e+00  -2.68366540e-01
C     6.059924780775000e+00   4.822737973179727e+00   1.015508096800000e+01  6.60128000e-03   1.20268374e+00  -4.68375330e-01
C     7.266237150749999e+00   5.590370444329070e+00   9.962070040000000e+00  2.08931399e+00  -4.21364865e+00   9.33387680e-01
C     7.399666688700000e+00   4.404406278060189e+00   6.909611783999999e+00  8.08902300e-02  -1.20078106e+00   7.75576700e-02
C     8.682028647075001e+00   5.050143051060908e+00   6.868195839999999e+00 -1.25822895e+00   8.12261100e-01  -3.49955000e-02
C     8.589339421275000e+00   4.866003474174843e+00   1.004672908800000e+01 -3.11135064e+00  -9.22119120e-01   1.68032480e-01
C     9.776330652900000e+00   5.544052417867564e+00   1.008938331200000e+01  5.90784890e-01   2.53581085e+00   3.86348930e-01
