72
Lattice="7.395 0 0 3.6975 6.40425786098592 0 0 0 13.6 " PBC="1 1 1" Properties=species:S:1:pos:R:3:force:R:3 Energy="-574.55497521"
C     1.100577406522500e+01   6.353372893215949e+00   1.327074345600000e+01  2.59799357e+00  -9.47872820e-01  -1.93565930e-01
C     1.208544439800000e+00   6.278853525140196e-01   1.319283544800000e+01 -1.20752937e+00  -4.63355000e-02   2.35311170e-01
C     1.253856895575000e+00   7.722472512781027e-01   3.470407880000000e+00  7.32128140e-01   1.07193329e+00   3.86732160e-01
C     2.493245066925000e+00   1.498746006746188e+00   3.422474816000000e+00  2.33335942e+00  -3.59757841e+00   9.21237950e-01
C     6.172760574825000e+00   6.309356557029326e+00   1.324833011200000e+01 -2.11709825e+00   1.27334520e+00   8.76069540e-01
C     3.669979322624999e+00   6.210374717120575e-01   1.330890532800000e+01 -1.78400490e-01   9.03498300e-01  -1.42554579e+00
C     3.826025617650000e+00   8.562902631323041e-01   3.632302960000000e+00 -3.58727101e+00  -3.24980168e+00  -8.20848200e-01
C     5.042740977825000e+00   1.563958387086896e+00   3.737277416000000e+00 -2.73968984e+00  -1.58482980e-01  -1.08301150e+00
C     8.579702035425001e+00   6.375130078443727e+00   1.321729464000000e+01  2.57605792e+00  -1.71442156e+00   1.07046617e+00
C     6.118800221175000e+00   6.903187332415375e-01   1.332157658400000e+01 -3.83318000e-03   2.75679220e-01  -1.88470800e-02
C     6.176422356975000e+00   8.321977652758770e-01   3.722882360000000e+00  3.90701733e+00  -1.52018358e+00  -1.06702118e+00
C     7.444115149649999e+00   1.530450733580168e+00   3.515632367999999e+00 -1.56652406e+00  -2.48880720e-01   7.43197140e-01
C     8.554915696275000e+00   2.067599600095029e+00   1.313769846400000e+01  3.34379176e+00  -9.75331560e-01   8.12142110e-01
C     2.463809417325000e+00   2.751131805324903e+00   1.301069064800000e+01 -1.19935253e+00   3.77827650e-01   5.24070580e-01
C     2.523421991325000e+00   2.837597996225593e+00   3.506968896000000e+00 -1.16493920e+00   4.77602676e+00   2.87827210e-01
C     3.657404310000000e+00   3.620374359766164e+00   3.714434040000000e+00  4.82039274e+00   3.67201450e-01  -9.13687630e-01
C     3.675931743000000e+00   2.028584797169330e+00   1.309145139200000e+01  1.28832425e+00   1.55867711e+00   2.64960549e+00
C     4.905127903499999e+00   2.789647076137522e+00   1.346538162400000e+01 -3.16661850e-01   8.70847130e-01  -1.79845661e+00
C     5.013445352550000e+00   2.937144563592439e+00   3.616403335999999e+00 -9.91329450e-01   3.87538257e+00   1.03159212e+00
C     6.251997112425000e+00   3.753598357515607e+00   3.605295128000000e+00 -2.88722313e+00  -3.84883335e+00   1.77050620e-01
C     6.183948026625000e+00   2.125680711223469e+00   1.351465728000000e+01 -2.29686168e+00  -1.78662030e+00  -1.49542480e-01
C     7.422952286549999e+00   2.758085996807341e+00   1.352872865600000e+01 -6.29034470e-01   3.30052287e+00  -5.93807790e-01
C     7.425405873599999e+00   2.975976268785920e+00   3.523595984000000e+00  2.78674978e+00   2.60333820e-01  -2.85330530e-01
C     8.757351898574999e+00   3.650838069512033e+00   3.502283696000000e+00 -3.61284040e+00  -1.61773468e+00   3.94768370e-01
C     2.502695174400000e+00   4.187034366712798e+00   1.302882012800000e+01 -1.74472875e+00  -1.45747077e+00   1.00853460e+00
C     3.673664805750000e+00   4.875062745215864e+00   1.321031117600000e+01  1.21050980e-01   3.71385404e+00  -2.64838100e-02
C     3.693795141974999e+00   5.078829899463520e+00   3.786668807999999e+00  4.12900230e-01  -8.77126440e-01  -1.21193991e+00
C     4.987812840525000e+00   5.780559803402585e+00   3.687759544000000e+00 -4.98465368e+00   1.46689492e+00  -1.94541710e-01
C     4.889133479849999e+00   4.270003704736770e+00   1.339124176800000e+01  1.97250002e+00  -3.52748050e+00   7.82964780e-01
C     6.160239952425000e+00   4.941302944900523e+00   1.349553976000000e+01  5.13011640e-01  -8.84064100e-01  -2.27363940e-01
C     6.153223206674999e+00   5.141573694569512e+00   3.680965800000000e+00  4.48577342e+00  -2.14357030e+00  -8.88762170e-01
C     7.435554180000000e+00   5.722952287142891e+00   3.590693760000000e+00  8.17740420e-01   4.79042708e+00   8.14548770e-01
C     7.441868844449999e+00   4.256348930383150e+00   1.358104772000000e+01  9.78688300e-02  -1.80987945e+00  -2.06913049e+00
C     8.685676156874999e+00   4.913378587438721e+00   1.317346306400000e+01 -2.78685023e+00   9.41793160e-01   1.77375252e+00
C     8.683958372325000e+00   5.049922232249895e+00   3.639200608000000e+00 -8.49514580e-01  -6.06546960e-01  -8.09219510e-01
C     9.853313379374999e+00   5.793275073128143e+00   3.663510880000000e+00  2.14248776e+00   1.22048823e+00   1.07607440e+00
C     6.283830997499999e-02   6.023121261977820e-02   7.226367207999999e+00 -3.51958569e+00   7.30534630e-01  -8.09266600e-01
C     1.242820671525000e+00   7.090577198250546e-01   6.933419807999999e+00  1.00065026e+00   3.08108305e+00  -7.37275770e-01
C     1.194682586250000e+00   6.126452681697349e-01   1.015883565600000e+01 -2.28162875e+00   4.77200300e-01   7.17512790e-01
C     2.375652217275000e+00   1.350234725272033e+00   1.021223823200000e+01  2.45198389e+00  -2.45484300e-01   3.21926590e-01
C     2.434151400075000e+00   2.444473203872700e-02   6.700737272000000e+00  2.72332862e+00   1.42420338e+00   4.77013450e-01
C     3.651548579250000e+00   8.350172397987420e-01   6.610703367999999e+00  1.11004632e+00  -1.28089025e+00   4.75431670e-01
C     3.646068033825000e+00   6.920221377471403e-01   1.052613276000000e+01  7.14966290e-01  -2.32604627e+00  -2.93646932e+00
C     4.910882359725000e+00   1.371068672686713e+00   1.025222495200000e+01 -2.91610461e+00  -1.80110129e+00   1.67400534e+00
C     4.886831712150000e+00   7.525758687927481e-02   6.818057128000000e+00 -7.57010830e-01  -2.38561210e-01   9.08360050e-01
C     6.089298016574999e+00   7.358594108839974e-01   7.126142279999999e+00  3.09890404e+00   1.39918979e+00  -1.25564384e+00
C     6.101287049400000e+00   5.853787560753133e-01   1.037832170400000e+01 -5.79828090e-01   5.96041480e-01  -1.17475182e+00
C     7.287712896300000e+00   1.277615884758814e+00   1.016785721600000e+01  3.05123323e+00   1.12598177e+00   6.81499900e-02
C     1.293887546550000e+00   2.194208383730563e+00   6.799939888000000e+00 -4.55981210e-01  -1.59395506e+00   3.60134560e-01
C     2.476586054625000e+00   2.998488451972814e+00   6.592431223999999e+00  1.12198867e+00  -9.80677870e-01   2.11592262e+00
C     2.400745522875000e+00   2.751287813046373e+00   1.004664191200000e+01 -2.18515900e-01   1.32020644e+00   3.49377130e-01
C     3.673842766425000e+00   3.454684617221238e+00   9.968507872000000e+00 -3.88422738e+00   1.70324962e+00   1.34805097e+00
C     3.744677992425000e+00   2.280335213007251e+00   6.563669944000000e+00 -4.33060706e+00  -3.07944073e+00   2.52997200e-01
C     4.931386180424999e+00   2.869534621236684e+00   6.687398256000000e+00  4.37170576e+00   3.36228781e+00   1.22240733e+00
C     4.816600066050000e+00   2.769043810090959e+00   1.010711132000000e+01  4.96044454e+00  -5.27701780e-01   3.90065900e-02
C     6.080915710125000e+00   3.490361969248355e+00   1.021895772000000e+01  6.74139020e-01  -6.03870320e-01  -2.85269510e-01
C     6.182231905949999e+00   2.166762296245747e+00   6.932189416000000e+00 -1.50206353e+00  -1.89582625e+00   1.37840440e-01
C     7.437858498974999e+00   2.797315086201036e+00   6.964973304000001e+00  1.14763100e-02   3.34085394e+00  -9.86159490e-01
C     7.338362582400000e+00   2.719639059426089e+00   1.016477314400000e+01 -2.32166335e+00   6.94021930e-01   4.79249140e-01
C     8.533762964325000e+00   3.467876747987051e+00   1.018936561600000e+01  1.32811158e+00  -2.23099694e+00  -7.08486980e-01
C     9.918831822224998e+00   4.377809715380502e+00   6.975827192000000e+00 -1.67039449e+00  -1.09392590e-01  -1.10991790e+00
C     3.754483355700000e+00   5.088545606935191e+00   7.127962095999999e+00  1.41526120e+00  -3.18676496e+00  -1.89615184e+00
C     3.689139471824999e+00   4.897889633633997e+00   1.014190229600000e+01 -1.97455752e+00  -1.64846520e-01   3.40803400e-01
C     4.914238506524999e+00   5.619689457025044e+00   1.022509771200000e+01 -1.17562077e+00  -2.77931400e-02  -1.62607280e-01
C     5.016399174375000e+00   4.319610765907437e+00   6.804642360000000e+00 -1.54310164e+00   8.18172620e-01   1.04691104e+00
C     6.276208934025000e+00   5.033725736036798e+00   6.779755583999999e+00 -2.85250390e+00  -1.83544808e+00   2.12026320e-01
C     6.113992546800000e+00   4.927792970817117e+00   1.033755325600000e+01  1.30512322e+00  -2.34856756e+00  -2.06267580e-01
C     7.385165759250000e+00   5.542201587346025e+00   1.051918044000000e+01 -3.67063125e+00   4.64030950e+00  -5.67709710e-01
C     7.458594596625000e+00   4.263504727903021e+00   6.848747432000000e+00 -5.15412510e-01  -4.76625300e-02  -9.66799000e-03
C     8.610073078574999e+00   5.038009800289666e+00   6.908866776000000e+00  2.14881122e+00   1.56862930e-01   1.14228410e-01
C     8.520707239724999e+00   4.835757573238793e+00   1.039947922400000e+01  3.88512629e+00   1.02147006e+00  -5.37156870e-01
C     9.796420205699999e+00   5.578620808603643e+00   1.037651317600000e+01  6.62480210e-01  -1.29057327e+00  -1.03051126e+00
