26
Lattice="8.88768389401873 1.33226762955019e-15 0 4.44384194700937 7.69696003302603 0 0 0 30 " PBC="1 1 1" Properties=species:S:1:pos:R:3:force:R:3 Energy="-208.5155282"
C     7.165925332318299e-01   7.686258176774288e-01   3.603191700000000e+00 -1.45453727e+00   3.05024334e+00  -8.76363260e-01
C     3.062967876193722e+00   2.066930101016155e-01   3.637791600000000e+00  2.36500230e-01  -5.94640600e-01  -5.65469800e-01
C     4.434101177165219e+00   6.055968921300002e-01   3.614839800000000e+00 -1.03053052e+00  -5.97537840e-01   4.23938740e-01
C     9.880042416690145e+00   7.297897436655797e+00   3.609100200000000e+00 -3.39727980e-01  -1.98690449e+00   4.11637240e-01
C     1.124307726005793e+01   7.630390100274934e+00   3.611714100000000e+00  1.01625970e+00   1.39789664e+00  -1.26573850e-01
C     1.232695768389595e+01   6.685411688329346e+00   3.621865800000000e+00 -1.17507787e+00   6.31193530e-01  -7.10265760e-01
C     4.778251054652227e+00   7.152938356292398e+00   3.576112500000000e+00  7.75543960e-01  -3.84547980e+00   1.83421330e-01
C     5.782146145101812e+00   6.080955485675791e+00   3.546013200000000e+00  6.97950850e-01   1.74725257e+00   3.30097460e-01
C     7.160504555385291e+00   6.493506616624568e+00   3.604480500000000e+00 -7.61473450e-01   3.51430870e-01  -5.90099000e-03
C     8.145815587729297e+00   5.470125892238996e+00   3.645426000000000e+00  1.49746838e+00   6.97454890e-01  -3.78706760e-01
C     9.537154682512881e+00   5.862144997459747e+00   3.651403800000000e+00  2.46739360e-01   1.94787066e+00  -1.26394920e-01
C     1.062624622206261e+01   4.942552699085104e+00   3.632951700000000e+00 -1.36467318e+00  -9.87967650e-01  -5.05816090e-01
C     3.111647012882242e+00   5.300272303141767e+00   3.545536500000000e+00 -4.76791160e-01   1.08577544e+00   9.53137080e-01
C     4.110055691683015e+00   4.312805671225775e+00   3.563187900000000e+00 -2.48956120e-01   5.49625520e-01  -5.13188730e-01
C     5.459533750908033e+00   4.707527256082659e+00   3.538628400000000e+00 -3.60688200e-02  -1.05804350e-01  -4.74055170e-01
C     6.458803735137504e+00   3.693767808704187e+00   3.462222600000000e+00  8.10474790e-01   9.76741810e-01   1.56860305e+00
C     7.815033234561408e+00   4.101858397376378e+00   3.569064900000000e+00  1.04625832e+00  -7.31206650e-01  -8.23635900e-02
C     8.889445297651692e+00   3.109496960698908e+00   3.615710400000000e+00 -6.51365580e-01   1.70574130e+00  -8.87225090e-01
C     1.027551550682994e+01   3.555668643967526e+00   3.598631700000000e+00 -1.00400844e+00  -2.16278830e-01   8.93502660e-01
C     2.412845177421673e+00   2.586701732453239e+00   3.674622000000000e+00 -1.54836593e+00   5.59169700e-02  -1.51026136e+00
C     3.738818023488058e+00   2.961150063378305e+00   3.544746300000000e+00  5.41409120e-01   4.80438080e-01   1.16751658e+00
C     4.712291549692522e+00   1.989411784435616e+00   3.641878500000000e+00  3.15516350e+00  -1.25782054e+00  -4.22516620e-01
C     6.129106479307712e+00   2.343920524646165e+00   3.643255500000000e+00 -1.50407489e+00  -5.60364400e-01  -1.34224413e+00
C     7.125695315945604e+00   1.341732840915995e+00   3.561426000000000e+00  1.06607011e+00  -2.11867180e-01   3.59090650e-01
C     8.509528050685214e+00   1.758140071870202e+00   3.502830000000000e+00  1.10205975e+00  -1.15206788e+00   1.27166691e+00
C     2.070778309782663e+00   1.234344315790233e+00   3.584171100000000e+00 -5.96246890e-01  -2.42964143e+00   9.64734440e-01
