26
Lattice="8.88768389401873 1.33226762955019e-15 0 4.44384194700937 7.69696003302603 0 0 0 30 " PBC="1 1 1" Properties=species:S:1:pos:R:3:force:R:3 Energy="-208.780033"
C     1.308933738698219e+01   7.355025428542461e+00  -1.657602000000011e-01 -1.46059496e+00   5.36916300e-01  -2.87403020e-01
C     9.336522596346434e+00   7.205532530842991e+00  -1.889898000000017e-01 -2.24520993e+00   1.95536330e-01   9.10562890e-01
C     1.066180926829570e+01   6.837393475024117e+00  -1.772130000000018e-01  5.18151840e-01  -3.51709665e+00  -6.07137400e-01
C     1.103803243653604e+01   5.426927011949022e+00  -2.117834999999992e-01 -2.19714354e+00  -3.17446500e-02   1.77217310e-01
C     6.924564011101723e+00   6.574651817740843e+00  -1.764434999999978e-01 -6.85013300e-02   1.60792648e+00   1.09940535e+00
C     8.307748522120381e+00   6.226853364254049e+00  -7.065929999999909e-02 -4.80008550e-01  -8.98606350e-01  -1.32705456e+00
C     8.655539100847777e+00   4.846492636701096e+00  -1.296023999999996e-01 -1.32464350e+00  -1.25613990e+00   1.37460350e-01
C     9.982868118078173e+00   4.419279335682372e+00  -1.910904000000002e-01  1.44592274e+00   7.37997570e-01   9.75924700e-02
C     1.031731952755413e+01   3.026154739311670e+00  -1.798067999999979e-01  1.50766237e+00   1.25877041e+00   6.39718560e-01
C     4.534034209432182e+00   5.969826622823451e+00  -1.524278999999993e-01 -1.10209120e-01   1.50901484e+00  -5.96759620e-01
C     5.891261173110918e+00   5.595689172113997e+00  -1.752827999999980e-01  1.09575945e+00  -8.02846120e-01   1.41124680e-01
C     6.258834891841479e+00   4.206083394960210e+00  -1.729754999999997e-01 -2.26010160e-01  -2.68448060e-01  -1.43117380e-01
C     7.628026588859926e+00   3.788433874657161e+00  -1.447643999999997e-01  7.38867000e-03   2.72575994e+00  -6.54325600e-02
C     7.986184117611674e+00   2.450713228096004e+00  -1.581702000000007e-01 -1.02876612e+00  -2.11096590e+00   1.39793580e-01
C     9.354190597548222e+00   2.038070657262071e+00  -9.080909999999776e-02 -2.50541406e+00   7.46986110e-01  -9.50264080e-01
C     3.479200735053561e+00   5.033668388285040e+00  -2.220363000000027e-01  1.36461179e+00  -1.22297018e+00   7.21821250e-01
C     3.843172719888629e+00   3.645494861453636e+00  -1.404963000000023e-01 -2.33772630e-01  -6.78740710e-01  -7.52800530e-01
C     5.229482451578449e+00   3.215341783521053e+00  -2.021780999999976e-01 -8.58337930e-01   1.13715252e+00   5.51316900e-01
C     5.549429427589304e+00   1.842012228955505e+00  -2.001324000000011e-01  5.82848310e-01  -1.53730930e-01  -1.92083000e-03
C     6.930918746177328e+00   1.426671796661457e+00  -2.063391000000010e-01 -3.55350400e-02   1.62483610e+00  -1.36044700e-02
C     7.222741490845622e+00   4.930064535375629e-02  -2.292126000000003e-01  3.57626430e+00   1.70196845e+00   5.65974670e-01
C     2.796975674546188e+00   2.662770172672927e+00  -1.240299000000000e-01  1.13632677e+00  -5.45590920e-01  -1.49658510e-01
C     3.147904094490561e+00   1.253458484511133e+00  -9.654749999999979e-02  2.64267490e-01   1.48625196e+00  -1.53387090e-01
C     4.511561830718467e+00   8.696547295784033e-01  -1.611027000000007e-01  5.41961480e-01   2.69617930e-01  -8.40113600e-02
C     7.444288035599859e-01   6.858934264333675e-01  -1.546395000000018e-01  1.54667634e+00  -1.97076676e+00   6.92456540e-01
C     2.133781989311850e+00   3.006467993734138e-01  -9.604679999999988e-02 -8.13694670e-01  -2.08108780e+00  -7.41893150e-01
