26
Lattice="8.88768389401873 1.33226762955019e-15 0 4.44384194700937 7.69696003302603 0 0 0 30 " PBC="1 1 1" Properties=species:S:1:pos:R:3:force:R:3 Energy="-208.8775686"
C     5.431014330072073e-01   6.813636115165118e-01   3.578801400000000e+00  1.17761476e+00  -1.67292082e+00   9.07920770e-01
C     2.991751531666325e+00   6.334474953329521e-02   3.538537800000000e+00 -1.40469956e+00   1.25627170e-01   3.11946970e-01
C     4.337600971761315e+00   4.737095589855506e-01   3.532028400000000e+00  8.35970610e-01  -9.72748600e-02   2.72700320e-01
C     9.808507848667350e+00   7.195010632542780e+00   3.536003700000000e+00  3.99325550e-01   3.52485970e-01   5.93654550e-01
C     1.116647933412325e+01   7.587031662003538e+00   3.641104800000000e+00  4.37323770e-01   2.96798610e-01  -1.18650800e-01
C     1.218433604280586e+01   6.589930745217995e+00   3.697452300000000e+00  2.96518900e-01   4.91363950e-01  -4.73032870e-01
C     4.676382688145722e+00   6.970187663999301e+00   3.666053700000000e+00 -8.50548860e-01   1.32877823e+00  -3.04710360e-01
C     5.709296333207641e+00   6.022842898662089e+00   3.634169700000000e+00 -2.32286600e-01  -1.23191345e+00   9.67956800e-02
C     7.076028764159794e+00   6.381798249651569e+00   3.551657700000000e+00  2.65015920e-01   7.96125660e-01   7.79820500e-01
C     8.109840598558941e+00   5.439542098529391e+00   3.670071300000000e+00  2.45860360e-01  -1.17472918e+00  -1.09347915e+00
C     9.471917527400063e+00   5.838227540832125e+00   3.600259500000000e+00 -2.73919220e-01  -1.26154501e+00  -4.62921610e-01
C     1.047022964149558e+01   4.820293493242181e+00   3.524816400000000e+00  5.00490660e-01   2.11501180e-01   1.46482927e+00
C     1.184028166684961e+01   5.226265801544517e+00   3.635564700000000e+00 -1.28862580e-01  -8.76094630e-01  -1.60319770e-01
C     3.982260973697150e+00   4.242427362647465e+00   3.680974500000000e+00  4.13594500e-02  -1.34341986e+00  -4.93391280e-01
C     5.363299953862731e+00   4.627975325692594e+00   3.689184300000000e+00  1.16612260e-01   2.55966120e-01  -7.24131600e-02
C     6.420333617595976e+00   3.669504142814416e+00   3.672926400000000e+00 -5.27338110e-01  -8.63308710e-01  -1.92770810e-01
C     7.797717271118081e+00   4.034740290157975e+00   3.633636900000000e+00 -1.63048993e+00   1.52499507e+00   6.15221290e-01
C     8.775626507033552e+00   3.058023386559082e+00   3.632549100000000e+00  4.30458880e-01  -1.22912059e+00  -1.74047800e-02
C     1.012535622101617e+01   3.434664427457494e+00   3.637232400000000e+00  8.89297150e-01   1.01482170e-01  -1.35282005e+00
C     2.246654509573045e+00   2.425410626541384e+00   3.518303400000000e+00  1.07139909e+00  -3.05048500e-01   1.54888810e+00
C     3.627232085638062e+00   2.824175270562826e+00   3.590617500000000e+00  1.28611969e+00   2.27670000e-01   1.91114930e-01
C     4.723529537041141e+00   1.823662137456783e+00   3.624766800000000e+00 -1.58933115e+00   2.38579018e+00  -4.47283680e-01
C     6.098189026626971e+00   2.270253151107835e+00   3.653441700000000e+00 -1.76937804e+00   1.39881200e-01   1.81697870e-01
C     7.084192009623209e+00   1.282238495637707e+00   3.667607100000000e+00  6.28831300e-02  -8.90127860e-01  -4.57411030e-01
C     8.434643936802221e+00   1.664253861907467e+00   3.609415800000000e+00  1.53325980e-01   5.81166670e-01   2.86395290e-01
C     1.928101698282205e+00   1.007222342255393e+00   3.636026400000000e+00  1.97277870e-01   2.12587127e+00  -1.60437618e+00
