26
Lattice="8.88768389401873 1.33226762955019e-15 0 4.44384194700937 7.69696003302603 0 0 0 30 " PBC="1 1 1" Properties=species:S:1:pos:R:3:force:R:3 Energy="-208.97761383"
C     1.038512709537398e+00   1.174640921077530e+00   3.632450400000000e+00 -2.75390840e-01  -6.07171230e-01  -2.62422660e-01
C     3.405704474610077e+00   5.704745089691058e-01   3.500244300000000e+00  1.70212364e+00  -3.96238820e-01   7.40552300e-02
C     4.796200617006608e+00   9.494016239660282e-01   3.461730600000000e+00  4.73190330e-01   2.35587780e-01  -4.88031200e-02
C     1.031069882821813e+01   7.681544173603914e+00   3.531648900000000e+00 -1.39321175e+00  -2.40844330e-01   1.94128500e-01
C     7.220752116357803e+00   4.121360338943589e-01   3.566916900000000e+00 -4.52500740e-01  -4.46287440e-01  -4.89465080e-01
C     1.265324313502653e+01   7.100050619686260e+00   3.550843500000000e+00  5.31771080e-01  -5.88588710e-01   6.41392430e-01
C     5.137188745379614e+00   7.483574744061100e+00   3.600331200000000e+00  6.26779130e-01  -1.59501330e-01   4.85972200e-02
C     6.198100416648185e+00   6.502292773468414e+00   3.654780900000000e+00 -1.37098232e+00  -1.96159340e-01   5.60742300e-02
C     7.550342634434969e+00   6.889529988331326e+00   3.655934700000000e+00 -2.98996440e-01   3.56003030e-01  -6.91406460e-01
C     8.568213652304335e+00   5.916583209694327e+00   3.650426400000000e+00  1.74570620e-01  -1.24648707e+00   1.22345129e+00
C     9.935090463682691e+00   6.277710104017070e+00   3.631886700000000e+00  1.81654050e-01   1.13326555e+00  -3.79025610e-01
C     1.092153134285538e+01   5.276141717690915e+00   3.643048200000000e+00  1.34674746e+00  -9.68187400e-02  -2.47820990e-01
C     3.416492837473256e+00   5.704166047388001e+00   3.589839000000000e+00  1.26054050e-01  -5.38328600e-01  -2.33292840e-01
C     4.462232476882831e+00   4.714210449507108e+00   3.557623800000000e+00  9.81590000e-02   3.82910800e-02   4.19982550e-01
C     5.858989237142186e+00   5.116920016452726e+00   3.672963900000000e+00 -1.28942102e+00  -2.74935050e-01  -3.79482020e-01
C     6.865653063365405e+00   4.121601253792529e+00   3.733922700000000e+00  1.33114960e-01  -1.87800530e-01   2.74667000e-02
C     8.239377346376159e+00   4.510078448916274e+00   3.837285300000000e+00 -9.76527040e-01   1.20656624e+00  -1.27689342e+00
C     9.228778935253176e+00   3.521542786221715e+00   3.765249000000000e+00  9.05703770e-01   2.04123380e-01   1.15146360e-01
C     1.058362240033980e+01   3.876321612759716e+00   3.641377800000000e+00  1.13579677e+00   1.36841698e+00   2.36943150e-01
C     2.741567187033421e+00   2.913167214551285e+00   3.531505200000000e+00 -5.04196400e-02   4.76537490e-01  -1.92406250e-01
C     4.109976590644177e+00   3.308788497066075e+00   3.498417900000000e+00  5.93031840e-01   1.01357403e+00  -1.25934930e-01
C     5.155657304721350e+00   2.336980791543916e+00   3.433218600000000e+00 -1.37023500e-02  -1.97879160e-01   8.14063210e-01
C     6.536999266034362e+00   2.728104432434776e+00   3.600229500000000e+00 -1.25263440e+00   1.51006070e+00  -3.18711830e-01
C     7.572620588446711e+00   1.803728858249491e+00   3.586740300000000e+00 -8.59007590e-01  -2.07273138e+00   7.64740980e-01
C     8.909219193854021e+00   2.161854861795738e+00   3.742326000000000e+00  3.70891940e-01  -4.66670290e-01  -7.94526260e-01
C     2.396993237073720e+00   1.544523569252001e+00   3.487068600000000e+00 -1.66794540e-01   1.74015760e-01   8.24149620e-01
