26
Lattice="8.88768389401873 1.33226762955019e-15 0 4.44384194700937 7.69696003302603 0 0 0 30 " PBC="1 1 1" Properties=species:S:1:pos:R:3:force:R:3 Energy="-208.28795889"
C     1.225532739546779e+01   6.505766796377954e+00  -1.199343000000006e-01 -2.40857366e+00  -4.17734580e-01  -1.21052239e+00
C     8.484814559843155e+00   6.265866791618909e+00  -2.568731999999976e-01 -1.07807781e+00  -5.17665610e-01   3.02284780e-01
C     9.833825792977464e+00   5.899532134139868e+00  -2.798172000000001e-01 -1.67920860e-01  -2.93421915e+00   1.34886840e-01
C     1.018962808545318e+01   4.492262526443634e+00  -2.239350000000009e-01 -2.93297926e+00   3.60332770e-01   2.83486530e-01
C     6.080172271553094e+00   5.657799021380079e+00  -2.995820999999985e-01 -6.93636080e-01   2.37416171e+00   1.17797040e+00
C     7.448059478795420e+00   5.281457315257233e+00  -2.249997000000015e-01  1.17935400e-02  -1.33070721e+00  -7.95153620e-01
C     7.781862220646103e+00   3.862833998790347e+00  -2.298515999999999e-01 -1.29257993e+00   1.05490471e+00   3.30048530e-01
C     9.115696000419424e+00   3.465012694190182e+00  -2.274774000000015e-01  2.52211756e+00   1.88763372e+00   2.83157700e-02
C     9.533073144572704e+00   2.123035012975632e+00  -1.887816000000022e-01 -1.40688332e+00  -4.38060920e-01  -1.08640320e-01
C     3.649844354681563e+00   5.130901159499220e+00  -6.806339999999977e-02  7.81324900e-01   1.14166830e-01  -4.59825200e-02
C     5.002317162922411e+00   4.741572141808954e+00  -1.322150999999998e-01  1.54612385e+00  -2.28110141e+00   3.85310450e-01
C     5.362780912263387e+00   3.303842353581197e+00   3.615000000000000e-03  3.37059530e-01   1.49594918e+00  -1.29681221e+00
C     6.719523897084755e+00   2.881768620652904e+00  -1.343259000000003e-01  4.68579460e-01   2.78509349e+00   1.35467020e-01
C     7.081218679605215e+00   1.573161956314023e+00  -1.666598999999991e-01  9.99815580e-01  -4.25056444e+00  -8.73026000e-03
C     8.501270369873678e+00   1.151500549534538e+00  -2.109161999999998e-01 -2.08574483e+00   1.16112768e+00  -3.51794000e-02
C     2.617608883082121e+00   4.143616483718336e+00  -2.706059999999866e-02  1.42425161e+00  -7.06041810e-01  -2.89923420e-01
C     2.976744145916647e+00   2.772091096583821e+00   3.889980000000000e-02  1.30679475e+00  -1.99558312e+00  -1.03317140e+00
C     4.383136043724616e+00   2.318075903166232e+00  -2.612939999999853e-02 -2.04421393e+00   1.78423210e-01   1.13124271e+00
C     4.723240997792472e+00   9.136039865017018e-01  -4.544160000000019e-02 -1.17538290e+00   4.48412880e-01  -6.25627440e-01
C     6.050365020602996e+00   5.003259546476918e-01  -1.537875000000000e-01  1.52687012e+00   2.39792906e+00  -4.25641000e-02
C     1.082398750227206e+01   6.839675854581812e+00  -2.498831999999993e-01  3.11215521e+00   1.48506982e+00   9.57753860e-01
C     1.991882162469515e+00   1.745514209545791e+00  -1.185015000000007e-01  8.95853040e-01   2.84372740e-01   6.68309640e-01
C     2.334766606362275e+00   3.465313799266555e-01  -1.312181999999993e-01  6.26425620e-01   1.02673941e+00  -4.25732290e-01
C     8.147080484292403e+00   7.612774221793473e+00  -1.271936999999994e-01 -6.25493790e-01   1.63985039e+00  -2.43347800e-02
C     4.364963177644026e+00   7.492573490940973e+00  -2.302806000000004e-01  1.00840896e+00  -5.95559060e-01   3.76025320e-01
C     5.752199317104956e+00   7.125280638907797e+00  -2.566193999999982e-01 -6.56087350e-01  -3.22693030e+00   3.12723200e-02
