26
Lattice="8.88768389401873 1.33226762955019e-15 0 4.44384194700937 7.69696003302603 0 0 0 30 " PBC="1 1 1" Properties=species:S:1:pos:R:3:force:R:3 Energy="-208.78097055"
C     1.767418595532154e-01   1.934591649044347e-01   3.583632300000000e+00 -5.77703880e-01   1.81919594e+00   3.43868240e-01
C     7.029246485301583e+00   7.285820983338327e+00   3.682410000000000e+00  2.79549070e-01   6.47706020e-01  -1.17287500e-01
C     3.972455367073657e+00   2.244064090666560e-02   3.670710300000000e+00 -1.78403023e+00   4.25569950e-01   1.94105360e-01
C     9.386838574161995e+00   6.734242357303670e+00   3.645682500000000e+00  5.37794390e-01  -1.13767383e+00   1.82619460e-01
C     1.074233759481334e+01   7.090547183137219e+00   3.595143300000000e+00  1.08253769e+00   2.15506605e+00   2.84925170e-01
C     1.178584784762653e+01   6.147675737030243e+00   3.611235300000000e+00  2.48321520e-01  -4.59014900e-01  -4.77521430e-01
C     4.258596931580460e+00   6.549345290736607e+00   3.569925000000000e+00  9.97411480e-01  -1.51411600e+00   1.43729700e-01
C     5.322800556493610e+00   5.522102693625583e+00   3.579365100000000e+00 -1.67798141e+00   1.88306525e+00  -7.20883200e-02
C     6.670480015116114e+00   5.895742151021096e+00   3.631411500000000e+00  1.84891030e-01   2.03441786e+00   4.67774070e-01
C     7.691226865322608e+00   4.957311081155427e+00   3.727904100000000e+00  1.54888630e-01  -5.24565930e-01  -7.63336860e-01
C     9.025785747293430e+00   5.340475603557666e+00   3.709142400000000e+00  1.11787071e+00   2.21726414e+00  -1.72259880e-01
C     1.006741341092702e+01   4.431428756180926e+00   3.666626400000000e+00  6.52360030e-01  -3.15921061e+00   1.32632720e-01
C     1.145729479220062e+01   4.766855731872300e+00   3.608448900000000e+00 -2.25826430e-01  -1.05114310e-01   2.80960450e-01
C     3.592678682139942e+00   3.769614037687808e+00   3.608183400000000e+00 -3.89100780e-01  -7.92399640e-01  -6.16844000e-02
C     4.973067261615762e+00   4.181810107870402e+00   3.559995000000000e+00 -5.70966360e-01  -1.61600384e+00   2.08921830e-01
C     6.023828264680575e+00   3.208888652231901e+00   3.562288200000000e+00 -5.21587580e-01  -2.78888870e-01   1.84836580e-01
C     7.382971146876709e+00   3.606339271237022e+00   3.623148600000000e+00 -1.26925502e+00  -1.24482742e+00   3.12155760e-01
C     8.367405098142839e+00   2.593437111266691e+00   3.650937300000000e+00  1.29512440e-01   1.14912823e+00  -2.25718220e-01
C     9.707366447669553e+00   3.017422615127235e+00   3.687363300000000e+00  1.65752658e+00  -8.70649100e-01  -1.71269060e-01
C     1.827583771648048e+00   1.969287697589180e+00   3.682234500000000e+00  1.69903691e+00   8.66507270e-01   1.64682010e-01
C     3.233168579420433e+00   2.344184299466393e+00   3.665793000000000e+00  2.03245500e-02   1.94864180e+00  -6.31571000e-02
C     4.305920823146585e+00   1.414547006434999e+00   3.675048000000000e+00 -1.55415580e-01  -3.25149840e-01  -4.62320320e-01
C     5.697353371938501e+00   1.825393106797930e+00   3.591190200000000e+00 -1.99686822e+00  -8.82918500e-02   2.69815670e-01
C     6.672081705771387e+00   8.204245114089216e-01   3.599831700000000e+00 -1.57240240e-01  -9.98659910e-01  -3.87008990e-01
C     8.012617466309617e+00   1.247033908943693e+00   3.574065600000000e+00  1.64446477e+00  -2.73306891e+00   3.46644960e-01
C     1.555953576340957e+00   5.659625509995198e-01   3.688453200000000e+00 -1.08051407e+00   7.01072450e-01  -5.44019890e-01
