26
Lattice="8.88768389401873 1.33226762955019e-15 0 4.44384194700937 7.69696003302603 0 0 0 30 " PBC="1 1 1" Properties=species:S:1:pos:R:3:force:R:3 Energy="-207.79124269"
C     1.279413994329669e+01   7.184156533447674e+00  -2.029788000000003e-01 -7.70354810e-01  -4.83176835e+00   2.27207000e-03
C     9.090346550598994e+00   6.806457160545138e+00  -8.169450000000111e-02 -1.74701680e+00   3.41522268e+00  -6.40574830e-01
C     1.041142477092205e+01   6.455188686568019e+00  -8.008230000000083e-02  1.74689711e+00   3.53768810e-01   6.04097340e-01
C     1.077345368589020e+01   5.103248060290637e+00  -5.196900000001392e-03 -1.31924901e+00   3.30956500e-01  -1.76745710e-01
C     6.697173729565462e+00   6.311264847328656e+00  -1.841925000000018e-01 -1.59522693e+00   4.87939040e-01  -2.60530990e-01
C     8.032206324568691e+00   5.895594831206122e+00  -1.028477999999993e-01  8.84449400e-01  -2.12038924e+00   2.57796230e-01
C     8.415392282126735e+00   4.492214805291448e+00  -4.699409999999915e-02 -3.34586224e+00   3.90902800e-02  -2.59034700e-01
C     9.743020458831385e+00   4.118137467839828e+00   1.704090000000000e-02  8.63077290e-01   2.20592590e-01  -3.15498310e-01
C     1.009228306022547e+01   2.772263354549292e+00  -7.931970000000277e-02 -7.54245530e-01  -3.00130936e+00  -1.04184143e+00
C     4.198734913867224e+00   5.752911587984394e+00  -2.194661999999994e-01  2.58488984e+00   9.56945940e-01   8.22703410e-01
C     5.611995391575100e+00   5.354372387922230e+00  -1.581773999999996e-01 -1.74688140e-01  -1.21273720e-01  -3.69918440e-01
C     5.959029850601377e+00   3.982974231537010e+00  -1.107650999999983e-01 -7.21687560e-01  -2.77367841e+00  -2.14246880e-01
C     7.326087703537278e+00   3.476970383414388e+00  -1.267262999999978e-01  2.54179200e-02   3.62285135e+00   5.13485700e-01
C     7.636757537372109e+00   2.137564102606661e+00  -1.498823999999992e-01  2.78506123e+00  -1.98134151e+00   3.11479210e-01
C     9.066964561889170e+00   1.724165690297782e+00  -1.993875000000003e-01 -1.17763429e+00   3.46035941e+00   6.81473020e-01
C     3.214046462477743e+00   4.772054412615763e+00  -8.505029999999891e-02  1.46227998e+00  -2.52521592e+00  -1.29587788e+00
C     3.555577623158737e+00   3.335733552921497e+00  -2.757093000000026e-01  1.99410990e-01   1.34008121e+00   1.72393932e+00
C     4.886802778812668e+00   2.905836091031511e+00  -1.416177000000012e-01  2.48375804e+00   2.34422142e+00  -7.06619670e-01
C     5.278924769287562e+00   1.543229633301358e+00  -1.392722999999982e-01  1.65196184e+00  -2.62920940e-01   3.86000040e-01
C     6.684981068158883e+00   1.100049296578799e+00  -6.638279999999952e-02 -3.10732845e+00   3.88803454e+00  -7.04033380e-01
C     1.142737045112934e+01   7.481944912774748e+00  -1.024518000000008e-01  2.54976960e-01  -1.48737556e+00  -1.34830660e-01
C     2.552748653499539e+00   2.359343462245478e+00  -2.483132999999995e-01  4.05023020e-01  -3.66355180e-01   1.88457220e-01
C     2.967354173398866e+00   9.667873633425917e-01  -2.871674999999989e-01 -1.52650418e+00   4.06516750e-01   1.47235500e-01
C     4.318749527701736e+00   5.466802037019640e-01  -1.915754999999990e-01 -9.42213180e-01  -1.15671084e+00   1.20025910e-01
C     4.827056213232423e-01   3.832381823097255e-01  -2.605907999999992e-01  3.77751506e+00   8.11237460e-01  -1.53415440e-01
C     1.939472600401064e+00   6.606146854548399e-03  -2.967759000000001e-01 -1.94270755e+00  -1.04947896e+00   5.14203360e-01
