26
Lattice="8.88768389401873 1.33226762955019e-15 0 4.44384194700937 7.69696003302603 0 0 0 30 " PBC="1 1 1" Properties=species:S:1:pos:R:3:force:R:3 Energy="-208.26569988"
C     4.162179247641473e-01   5.370668545636946e-01   3.226462800000000e+00  3.28141920e-01  -2.95373476e+00   9.01586260e-01
C     7.228364200089240e+00   7.603788405806450e+00   3.291075900000000e+00 -4.17841250e-01  -1.11908721e+00   1.38305110e-01
C     4.123869460657428e+00   3.281541181590275e-01   3.338025900000000e+00  9.68252110e-01  -4.13653066e+00   1.07118431e+00
C     9.586122799620661e+00   6.918789674006970e+00   3.475981800000000e+00  4.42336970e-01   3.49254591e+00  -2.10984220e-01
C     1.097466240731079e+01   7.336414794946723e+00   3.461314800000000e+00 -5.46636990e-01   2.15577440e-01   2.86460570e-01
C     1.203759064964022e+01   6.393071833068309e+00   3.461494500000000e+00  9.15779330e-01   7.35518980e-01  -1.06759816e+00
C     4.532143221928667e+00   6.830872071699499e+00   3.305652000000000e+00 -1.62281303e+00   1.16746570e-01   4.18262700e-02
C     5.506090817174552e+00   5.832546799481984e+00   3.267535500000000e+00  3.39500210e-01  -1.61367110e+00  -5.74924640e-01
C     6.867297152908199e+00   6.181925900680538e+00   3.282079800000000e+00  1.36017645e+00   6.07724640e-01   1.39231974e+00
C     7.857021409126165e+00   5.158483523645125e+00   3.565630200000000e+00  1.09259704e+00   9.94395260e-01  -2.17337791e+00
C     9.270771687626707e+00   5.581191178201489e+00   3.576616500000000e+00 -1.02378138e+00  -1.49664526e+00  -5.20020360e-01
C     1.033553679200527e+01   4.608840452149213e+00   3.454976100000000e+00 -1.39330980e-01   1.08657232e+00   6.57747560e-01
C     1.173775778920873e+01   5.029549514064187e+00   3.370158600000000e+00 -2.17160125e+00  -1.31628016e+00   3.73108730e-01
C     3.821702919898483e+00   3.998399555193933e+00   3.264666300000000e+00  2.16459100e-02   1.62462563e+00  -1.38354300e-01
C     5.173004642993826e+00   4.413032559891624e+00   3.192521700000000e+00  2.82213260e-01   2.03009190e-01   1.04464521e+00
C     6.174334970105570e+00   3.403726111768908e+00   3.281001000000000e+00  1.60767160e-01  -4.01956800e-02  -4.57697690e-01
C     7.545996066166897e+00   3.774957960067037e+00   3.357157800000000e+00 -6.37896000e-03   9.04746430e-01   1.21763480e+00
C     8.581824027206288e+00   2.814562768090160e+00   3.399121500000000e+00  3.51612180e-01   1.54346140e-01  -4.22721410e-01
C     9.967318136709338e+00   3.252341532202865e+00   3.449100900000000e+00 -8.37519330e-01  -6.00979980e-01  -9.56427320e-01
C     2.094122301024476e+00   2.284386001236520e+00   3.293619900000000e+00 -1.88821980e-01  -8.16948240e-01   7.69928460e-01
C     3.431631805163052e+00   2.656948730893437e+00   3.282499200000000e+00  1.64674293e+00  -5.34950940e-01   3.81580010e-01
C     4.464580556540684e+00   1.654720946001511e+00   3.399270300000000e+00 -2.90952810e-01   1.26323115e+00  -1.34047887e+00
C     5.819324790642736e+00   2.018827333551867e+00   3.322828500000000e+00  1.28808593e+00   3.59499100e-01   8.22995430e-01
C     6.857915665949575e+00   1.022353257191168e+00   3.428053800000000e+00  3.54249370e-01   4.45634080e-01  -1.26523576e+00
C     8.253006074354003e+00   1.421384139060047e+00   3.270629700000000e+00 -1.38847607e+00   2.09687698e+00   1.07115462e+00
C     1.785354696402365e+00   8.986741931315109e-01   3.311933400000000e+00 -9.17946740e-01   3.27974210e-01  -1.04265643e+00
