26
Lattice="8.88768389401873 1.33226762955019e-15 0 4.44384194700937 7.69696003302603 0 0 0 30 " PBC="1 1 1" Properties=species:S:1:pos:R:3:force:R:3 Energy="-208.77455664"
C     1.314558624966780e+01   7.447337764118261e+00  -2.171723999999990e-01 -8.25147200e-02  -9.30871900e-01   3.99294660e-01
C     9.356951293309098e+00   7.258094609070259e+00  -1.591416000000017e-01  3.51377670e-01   5.27434260e-01  -6.73728710e-01
C     1.071931262751851e+01   6.862165140275867e+00  -5.341200000000157e-03  6.65027650e-01  -2.01288300e-02  -3.72193030e-01
C     1.106735401668632e+01   5.483400300415535e+00  -3.728669999999923e-02  8.95517450e-01  -6.00484000e-01  -3.91886780e-01
C     6.981508468347812e+00   6.637447158267197e+00  -3.795929999999998e-01  3.79242000e-03   1.30015086e+00  -3.74354690e-01
C     8.350660393018709e+00   6.278073862348088e+00  -2.517870000000002e-01 -4.01306040e-01  -1.41743471e+00   6.95466100e-01
C     8.667228671541491e+00   4.875696981234124e+00  -9.599640000000065e-02  9.92121140e-01   1.86341850e-01  -1.16395096e+00
C     1.006568448979922e+01   4.461181201237690e+00  -1.600427999999994e-01 -1.12831772e+00   2.40785098e+00   6.74078670e-01
C     1.039813923669600e+01   3.137532983668982e+00  -3.253440000000012e-01 -6.02103500e-02  -2.90750028e+00   4.32217500e-02
C     4.604847230815145e+00   6.036964511229130e+00  -1.849926000000011e-01 -3.16322130e-01   1.93037092e+00  -5.77801000e-02
C     5.959686340458404e+00   5.655513563038371e+00  -2.695779000000016e-01  2.30604170e-01   9.15862550e-01  -1.08147800e-01
C     6.306974498442389e+00   4.316547702283560e+00  -2.002389000000022e-01 -5.53193400e-01  -2.05280294e+00   6.25473710e-01
C     7.644718903546417e+00   3.888996658658719e+00  -1.579248000000000e-01  1.14480493e+00   4.52541780e-01   2.81444160e-01
C     8.012153707782867e+00   2.507226232876272e+00  -1.358753999999998e-01 -2.98015620e-01   6.58940000e-04  -6.28277910e-01
C     9.358051718540068e+00   2.101331740839840e+00  -3.269918999999994e-01  1.01401822e+00   1.27186048e+00   4.76398810e-01
C     3.585944662663783e+00   5.083665069734310e+00  -9.757259999999945e-02 -1.55718733e+00  -1.82066840e-01  -4.42046320e-01
C     3.929305841941103e+00   3.716546731004171e+00  -2.446574999999989e-01 -1.49526326e+00  -1.04403752e+00   6.78623900e-01
C     5.274901449253185e+00   3.309477759836762e+00  -1.410080999999970e-01  1.57456180e-01   6.63659590e-01  -1.06339149e+00
C     5.586283097672396e+00   1.941793155757216e+00  -1.850966999999990e-01  1.45741845e+00  -1.23024925e+00   8.69069500e-02
C     6.992952380122281e+00   1.530432975433881e+00  -1.093362000000013e-01 -1.26918516e+00  -3.03927970e-01   6.18038500e-02
C     7.337951470650469e+00   1.429649519588263e-01  -5.244959999999921e-02 -4.74848450e-01   1.67407290e-01  -4.93507360e-01
C     2.874005097530875e+00   2.701741035848821e+00  -3.561341999999996e-01  6.88601770e-01   2.03661803e+00   1.26837500e-02
C     3.232064995068989e+00   1.354627711993455e+00  -4.432475999999994e-01 -1.34991672e+00  -1.64676399e+00  -5.64460030e-01
C     4.569235389116894e+00   9.392568767072876e-01  -3.464613000000014e-01  1.19529891e+00   3.21750800e-01   1.11975121e+00
C     8.360933089786842e-01   7.292741858888502e-01  -3.818343000000013e-01 -3.44843610e-01   1.33201000e-02  -3.26089110e-01
C     2.193698443591334e+00   3.311117520201553e-01  -5.510565000000014e-01  5.35085550e-01   1.40439810e-01   1.50466675e+00
