26
Lattice="8.88768389401873 1.33226762955019e-15 0 4.44384194700937 7.69696003302603 0 0 0 30 " PBC="1 1 1" Properties=species:S:1:pos:R:3:force:R:3 Energy="-208.81959534"
C     1.240434772460484e+01   6.647984450487468e+00  -2.943450000000070e-02  5.26131860e-01   2.69147200e-01  -4.58633330e-01
C     8.679589041200673e+00   6.481040081372778e+00  -1.154384999999998e-01 -1.89606325e+00   2.40964260e-01   4.96905600e-02
C     1.000513607782948e+01   6.082081704867381e+00  -1.064993999999970e-01  7.53649940e-01  -4.13577080e-01  -4.62342200e-02
C     1.033452235184090e+01   4.724051166844663e+00  -1.081554000000011e-01  2.09513252e+00  -1.05477252e+00   2.47428430e-01
C     6.237516894336551e+00   5.858814984672367e+00  -9.179969999999926e-02  9.64159820e-01   2.33974353e+00   7.15688400e-01
C     7.638510101963698e+00   5.532415773400180e+00  -8.036489999999930e-02 -7.53956500e-01  -2.28088240e+00  -6.85934200e-01
C     7.991374703845975e+00   4.126901919256388e+00  -1.551135000000023e-01 -1.34768016e+00  -4.91801720e-01   9.30856850e-01
C     9.348930422939365e+00   3.733618126533109e+00  -1.139643000000028e-01 -7.11111790e-01  -2.54245580e-01  -3.12324260e-01
C     9.671077678406744e+00   2.351510112083746e+00  -9.948659999999876e-02  5.81741600e-01  -7.71892810e-01  -2.27766830e-01
C     3.861190366980998e+00   5.261127873517196e+00  -4.523640000000029e-02  9.42467060e-01   1.67563180e+00   3.90234800e-02
C     5.226289952170404e+00   4.883521710800623e+00  -5.960190000000054e-02  6.51490490e-01  -1.00850299e+00   5.16301570e-01
C     5.594341206149862e+00   3.483891105025362e+00   2.971770000000000e-02 -1.71356350e-01   1.46599250e-01  -1.82048978e+00
C     6.960739415256606e+00   3.084351300159299e+00  -8.170829999999896e-02  4.76304540e-01   1.34600187e+00   3.59069100e-01
C     7.319729808831453e+00   1.693932800995945e+00  -5.460180000000037e-02 -1.17114403e+00   1.65913386e+00  -1.57722230e-01
C     8.666798771976000e+00   1.341665030698131e+00  -7.602330000000279e-02  9.06323700e-02   2.07432350e-01   2.87660600e-02
C     2.856792987769147e+00   4.320785571506478e+00  -6.422520000000276e-02 -1.99028542e+00  -7.36455260e-01  -1.25143810e-01
C     3.199608774323024e+00   2.951308345435945e+00  -9.139350000000235e-02 -9.33230300e-01  -1.68175328e+00  -7.17664390e-01
C     4.558014378154332e+00   2.505586780389882e+00  -1.447400999999999e-01 -1.00926740e-01   3.99857770e-01   1.32357272e+00
C     4.874073081326482e+00   1.111215584372721e+00  -1.403129999999990e-01  1.91176670e+00   1.05346445e+00   1.30791740e-01
C     6.292969283845849e+00   7.410366802066961e-01  -5.086920000000106e-02 -1.79938223e+00  -1.50810522e+00  -5.62293320e-01
C     1.104285342837940e+01   7.016328861199942e+00  -7.736009999999993e-02  5.57276120e-01   2.30577817e+00   3.27583180e-01
C     2.138525169516048e+00   1.941304013947309e+00  -1.488462000000013e-01  1.56497760e+00   5.82720150e-01   9.03591350e-01
C     2.515877651321245e+00   5.483499052412719e-01  -6.498899999999708e-02 -1.12826655e+00   9.40718930e-01  -6.75735850e-01
C     3.863017715900621e+00   1.402179069241193e-01  -1.483809000000029e-01  4.83300920e-01   4.98217680e-01   4.56943010e-01
C     4.532623290719914e+00   7.671270425295071e+00  -6.306269999999969e-02  9.45173940e-01  -9.45760000e-01   4.85300280e-01
C     5.916012796155233e+00   7.304594638547500e+00  -2.044829999999820e-02 -5.40802170e-01  -2.51766241e+00  -7.24664530e-01
