26
Lattice="8.88768389401873 1.33226762955019e-15 0 4.44384194700937 7.69696003302603 0 0 0 30 " PBC="1 1 1" Properties=species:S:1:pos:R:3:force:R:3 Energy="-207.69268577"
C     1.273229241736707e+01   6.949049810547313e+00  -1.212425999999986e-01  6.11076830e-01  -3.10697990e-01  -5.56231900e-01
C     8.903475308998933e+00   6.858419876494869e+00  -3.516365999999991e-01  1.74364864e+00  -1.50052801e+00   6.94864850e-01
C     1.028150047501620e+01   6.410823947742301e+00  -3.879381000000031e-01  2.09413965e+00   1.00224661e+00   4.52444250e-01
C     1.067613296955107e+01   5.035237490556757e+00  -3.684353999999992e-01  6.15808070e-01  -8.10139770e-01   3.66411440e-01
C     6.513346341827447e+00   6.183730452959572e+00  -2.336987999999991e-01  2.63005151e+00  -2.00217900e-01   7.39406050e-01
C     7.939529823033590e+00   5.867195511722631e+00  -2.693061000000014e-01 -2.47700389e+00  -3.10751546e+00  -1.12225882e+00
C     8.231373587012490e+00   4.394700325340171e+00  -3.812220000000011e-01  4.06775552e+00   4.27860909e+00   5.00033410e-01
C     9.672264985184198e+00   4.024194069464071e+00  -3.847296000000000e-01 -2.03991755e+00   6.05505810e-01   1.24813300e-02
C     9.965651206767543e+00   2.652273058584012e+00  -2.779518000000003e-01  1.22285956e+00   8.55684400e-02   5.01552360e-01
C     4.221520091150604e+00   5.519333327406789e+00  -8.714609999999823e-02 -1.37430888e+00   2.73008195e+00  -9.46996790e-01
C     5.552463907205683e+00   5.142831139667318e+00  -1.900739999999992e-01  6.19860640e-01   2.97246126e+00   6.47726600e-01
C     5.936037812232406e+00   3.842404265661119e+00  -1.650606000000003e-01 -1.31316969e+00  -1.82449536e+00  -8.92571990e-01
C     7.256703244067534e+00   3.476274270349275e+00  -2.797839000000018e-01  8.87930650e-01  -3.45793604e+00   1.65681200e-02
C     7.653854241548215e+00   2.042037901370334e+00  -2.684150999999986e-01 -3.51693315e+00   2.30090808e+00   4.42381050e-01
C     8.958009645154137e+00   1.668787448334737e+00  -1.848585000000007e-01  1.78215110e+00  -1.68467660e+00  -5.78642130e-01
C     3.215723168361196e+00   4.586072228623671e+00  -2.130866999999981e-01 -3.09747562e+00  -9.17412900e-02   2.31908890e-01
C     3.531634158229741e+00   3.195776265063994e+00  -1.288689000000005e-01 -1.28547223e+00   1.53169147e+00  -1.08818812e+00
C     4.907856368778557e+00   2.879762484990685e+00  -2.166198000000001e-01 -1.24132330e+00  -2.19233462e+00   1.48775497e+00
C     5.169853023943783e+00   1.481676813032647e+00  -1.619898000000006e-01  1.92064070e+00   4.87925000e-02  -7.40177750e-01
C     6.585566191364045e+00   1.125750061875771e+00  -2.216886000000002e-01 -3.94643050e-01  -2.93833720e+00  -2.72872130e-01
C     1.139933451886381e+01   7.381811927021265e+00  -2.799528000000002e-01 -2.60600937e+00   3.14788250e-01   4.80645240e-01
C     2.437317548109424e+00   2.250156080591104e+00  -1.606988999999999e-01  1.05721555e+00   7.23683650e-01   1.32298540e-01
C     2.783226204234518e+00   9.051809722320719e-01  -1.015034999999997e-01 -1.59765378e+00  -2.35129736e+00  -2.39426110e-01
C     4.108893668978049e+00   5.031682880475702e-01  -1.702020000000033e-01  2.12701881e+00   1.27219673e+00  -2.57461900e-01
C     4.269038091115612e-01   2.513089777027126e-01  -1.350873000000021e-01 -1.58416726e+00   6.51440350e-01   4.12924790e-01
C     6.193147088897134e+00   7.538216848766876e+00  -1.115241000000005e-01  1.14792054e+00   1.95194341e+00  -4.24574250e-01
