26
Lattice="8.88768389401873 1.33226762955019e-15 0 4.44384194700937 7.69696003302603 0 0 0 30 " PBC="1 1 1" Properties=species:S:1:pos:R:3:force:R:3 Energy="-209.18753561"
C     5.729080140016860e-01   6.367293251505434e-01   3.651975900000000e+00  1.82046530e-01   2.38895041e+00   4.17331100e-02
C     2.999416625760707e+00   6.379286654624179e-02   3.587409900000000e+00 -1.94682260e-01   9.94011800e-01   1.04049960e-01
C     4.380938873767179e+00   4.945571600748070e-01   3.547615200000000e+00 -1.17613082e+00   4.42158470e-01   3.85005600e-02
C     9.829845977861162e+00   7.212325021099865e+00   3.466698600000000e+00 -3.70057710e-01  -4.39352280e-01   1.06370784e+00
C     1.117538981492432e+01   7.589944730466092e+00   3.605879100000000e+00  6.33334610e-01   3.23014400e-01  -5.44863030e-01
C     1.219273734820194e+01   6.600638525102930e+00   3.651991200000000e+00 -2.19175940e-01  -4.04591490e-01  -9.44814800e-02
C     4.656258349972578e+00   7.001843336362684e+00   3.704459700000000e+00  6.25210770e-01  -1.58409576e+00  -3.84171470e-01
C     5.692010010217429e+00   5.997814001006136e+00   3.676308000000000e+00  2.89041200e-01   9.72714600e-01   3.65898310e-01
C     7.073169462948147e+00   6.398771047122523e+00   3.622635300000000e+00  2.12221970e-01  -2.93357600e-01  -4.27053800e-02
C     8.122375654591075e+00   5.422509572648605e+00   3.607448700000000e+00 -4.73504130e-01   1.26825045e+00  -6.72157800e-02
C     9.475035060274823e+00   5.833094438188118e+00   3.533065200000000e+00 -2.18104500e-02   1.49152030e-01  -3.54112780e-01
C     1.048630088478764e+01   4.852822847538570e+00   3.531606900000000e+00  3.85341000e-01  -1.03163786e+00   4.65715930e-01
C     1.185099208137945e+01   5.209731115038470e+00   3.600881700000000e+00  4.53812980e-01   5.05810070e-01   9.87057400e-02
C     3.980600887638786e+00   4.207067605239247e+00   3.660191400000000e+00  6.65220550e-01   1.06706832e+00   2.48877500e-01
C     5.362435137788438e+00   4.638172797127540e+00   3.729846300000000e+00 -6.78010400e-02  -1.03997628e+00  -8.24389800e-01
C     6.436736593668356e+00   3.669897072623947e+00   3.657172200000000e+00 -1.56361101e+00   2.66698530e-01   8.45112290e-01
C     7.778769751179025e+00   4.082115771869028e+00   3.660748500000000e+00  6.46345530e-01  -2.03482331e+00  -5.28687820e-01
C     8.799365021879968e+00   3.056238692436926e+00   3.603054300000000e+00 -3.66002080e-01   4.70299260e-01   3.16941300e-01
C     1.015937614192116e+01   3.462682901358701e+00   3.593690100000000e+00 -1.25459480e-01  -9.25464180e-01  -8.10417600e-02
C     2.269513454783761e+00   2.424354141807666e+00   3.637290000000000e+00  7.93217400e-01   9.13393370e-01  -2.28642010e-01
C     3.659564501991529e+00   2.834759206360878e+00   3.653094600000000e+00 -1.11691734e+00   1.51677990e-01  -3.22407200e-02
C     4.697086588910779e+00   1.897710356577397e+00   3.640255800000000e+00  7.91438240e-01  -1.21286867e+00  -1.56255100e-02
C     6.080141784617648e+00   2.302381339847460e+00   3.687923100000000e+00 -3.92915850e-01  -1.06081441e+00  -8.10375470e-01
C     7.081768382659955e+00   1.274740040206881e+00   3.616500300000000e+00 -1.56006700e-02   6.93855980e-01   4.64505810e-01
C     8.446557077173816e+00   1.677492941037468e+00   3.626448000000000e+00  3.93900280e-01  -7.56277410e-01   2.15252300e-02
C     1.947242792028359e+00   1.039853065515376e+00   3.636549300000000e+00  3.25377300e-02   1.76203600e-01  -6.67205900e-02
