26
Lattice="8.88768389401873 1.33226762955019e-15 0 4.44384194700937 7.69696003302603 0 0 0 30 " PBC="1 1 1" Properties=species:S:1:pos:R:3:force:R:3 Energy="-209.01309967"
C     1.290877697851000e+01   7.201510638318514e+00   1.651290000000000e-02  7.25642700e-02  -3.20743190e-01   8.50910100e-02
C     9.174484920958326e+00   6.999323274679261e+00   4.697850000000000e-02 -1.95072560e-01   4.43748570e-01   4.08467470e-01
C     1.054976134859809e+01   6.640368539446583e+00   3.611340000000000e-02 -2.22235069e+00  -3.22074429e+00  -3.84907000e-03
C     1.083816242381056e+01   5.209088187967164e+00   3.711870000000000e-02  6.52182240e-01   1.08417926e+00  -3.45625780e-01
C     6.786985597318855e+00   6.418631051270330e+00   1.953030000000000e-02 -5.58175910e-01   9.02713200e-02   7.19092190e-01
C     8.163474527203615e+00   6.013955372854649e+00   1.310451000000000e-01 -8.54842270e-01   3.41233620e-01  -1.18756644e+00
C     8.485108874442705e+00   4.645703733729693e+00   5.233950000000000e-02 -1.31745150e-01  -9.06965730e-01   3.45713980e-01
C     9.833136418682107e+00   4.214774802226087e+00   2.265060000000000e-02  3.33334200e-01   6.91327690e-01   2.74143650e-01
C     1.018333267125010e+01   2.840064336061556e+00   4.536000000000000e-02  2.80044600e-01  -8.40966000e-02   5.45315200e-02
C     4.365346813426324e+00   5.810304124387289e+00   3.826200000000000e-03 -3.02829580e-01   6.79336470e-01  -5.25303910e-01
C     5.743847648345358e+00   5.455036617856983e+00  -3.768960000000021e-02  1.40547200e-02  -2.30312778e+00   1.00738305e+00
C     6.070014803197141e+00   4.012824581925356e+00   6.742380000000001e-02  8.57618500e-01   1.45960242e+00  -1.43870748e+00
C     7.479168771023176e+00   3.646784333167462e+00   4.575840000000000e-02 -1.96597818e+00   2.95579220e-01   6.11346600e-02
C     7.788846650435671e+00   2.271399074517102e+00   1.893180000000000e-02 -1.15429690e-01  -6.11783270e-01   1.72629110e-01
C     9.154871487943947e+00   1.874550280816727e+00   6.768930000000001e-02 -3.68974570e-01  -9.91420700e-02  -3.73368450e-01
C     3.306522013495590e+00   4.824311845165044e+00  -2.173080000000027e-02  1.31589200e+00   2.14475200e-02   8.29653580e-01
C     3.672337437296626e+00   3.454492566190777e+00   5.828940000000000e-02  2.52407310e-01  -1.36380022e+00  -1.23891974e+00
C     5.049965457170084e+00   3.023549549250316e+00  -5.590380000000295e-02 -2.64140270e-01   1.55421209e+00   1.46742348e+00
C     5.399136337653195e+00   1.657317746376432e+00  -7.678199999997304e-03 -1.17119314e+00  -2.25133250e-01  -2.88315250e-01
C     6.742621653321127e+00   1.279023398463576e+00  -1.985400000002358e-03  1.34879456e+00  -3.22521400e-01   1.51365860e-01
C     1.153047656087220e+01   7.571433002806740e+00   2.475450000000000e-02  1.95402752e+00   2.47620946e+00  -1.74231920e-01
C     2.668236551159956e+00   2.422725619004519e+00   5.071650000000000e-02 -4.13597270e-01   1.88772105e+00   3.98886000e-01
C     2.995945097080990e+00   1.060883700314146e+00   1.008195000000000e-01  3.02705130e-01   6.01169700e-02  -4.49935290e-01
C     4.355901157402214e+00   6.695114476143164e-01   2.213610000000000e-02  7.51282250e-01   1.04437490e-01   3.23981860e-01
C     5.964797069371551e-01   5.051241625607935e-01   5.082360000000000e-02  1.13860940e-01  -9.96329480e-01   1.65534110e-01
C     1.962628394316870e+00   1.027845884838176e-01   9.148920000000001e-02  3.15561040e-01  -7.35035880e-01  -4.39208190e-01
