26
Lattice="8.88768389401873 1.33226762955019e-15 0 4.44384194700937 7.69696003302603 0 0 0 30 " PBC="1 1 1" Properties=species:S:1:pos:R:3:force:R:3 Energy="-209.01774523"
C     1.095989805662068e+00   1.211347723460601e+00   3.639883500000000e+00 -2.70862850e-01  -1.29871490e-01  -3.37700640e-01
C     3.523277289583236e+00   6.144696397741830e-01   3.712777500000000e+00 -1.09912002e+00  -4.66744000e-02  -8.55854600e-02
C     4.878987037246111e+00   1.011568045888331e+00   3.661733100000000e+00 -7.27405170e-01   8.54603330e-01   2.27500990e-01
C     5.872340579204429e+00   2.487034027933570e-02   3.638175300000000e+00  1.19403302e+00  -1.72819560e-01  -1.04772036e+00
C     7.241030966935763e+00   4.118647930229017e-01   3.514815900000000e+00  2.29692570e-01  -3.01016530e-01   4.73592700e-01
C     1.271952694821812e+01   7.101591089266664e+00   3.502713600000000e+00 -3.81176360e-01   1.39432717e+00   3.43203000e-01
C     5.191276123299754e+00   7.509038827837149e+00   3.578219700000000e+00 -9.57954500e-02   1.01503614e+00   2.14444920e-01
C     6.204202478243436e+00   6.546127191748065e+00   3.614551200000000e+00  1.07989569e+00  -6.46738540e-01  -2.63050450e-01
C     7.607085207926924e+00   6.929891076427839e+00   3.657709800000000e+00 -1.26533066e+00   4.97722990e-01  -4.35438190e-01
C     8.604701105338529e+00   5.963698995973968e+00   3.494734500000000e+00  1.75734023e+00  -4.58389130e-01   1.40251580e-01
C     1.000961782592364e+01   6.355116506798773e+00   3.513963300000000e+00 -8.58564500e-01  -8.50807450e-01   5.70427720e-01
C     1.106924531574123e+01   5.365048610271042e+00   3.538511400000000e+00 -3.72984280e+00  -2.13653670e-01  -1.92170590e-01
C     3.485876319316298e+00   5.733381244634671e+00   3.551198400000000e+00  1.83432122e+00   1.12427458e+00  -1.25156580e-01
C     4.502384499742892e+00   4.768011045572803e+00   3.574425900000000e+00 -1.34829120e-01  -6.05160330e-01  -1.42424650e-01
C     5.839473616441432e+00   5.152830722259893e+00   3.532644300000000e+00  1.15465834e+00   1.61535577e+00   4.12886710e-01
C     6.868544715816614e+00   4.212697931501191e+00   3.504391800000000e+00  1.84828161e+00  -1.41100155e+00  -5.99470700e-01
C     8.271836812216428e+00   4.590849038987889e+00   3.399004500000000e+00 -5.57489020e-01  -4.80904590e-01   1.13759135e+00
C     9.314246903050027e+00   3.602916894929283e+00   3.512484000000000e+00 -5.76689710e-01  -3.88597540e-01  -4.04045690e-01
C     1.069455371582294e+01   3.998000313877176e+00   3.565946100000000e+00 -2.15277370e-01  -1.15292539e+00  -1.61756010e-01
C     2.833318569579085e+00   2.982626275193212e+00   3.616745700000000e+00 -1.43855794e+00   1.23745270e-01   3.68365200e-01
C     4.175440515052390e+00   3.395732741808153e+00   3.607428900000000e+00  2.08892540e-01  -7.14451230e-01   6.38745300e-02
C     5.197871448009659e+00   2.409392483022951e+00   3.620700000000000e+00  2.05100990e-01  -2.32762930e-01  -1.93266850e-01
C     6.551715404202047e+00   2.819638682321144e+00   3.522408600000000e+00  3.09927000e-02  -6.31568560e-01   2.40204670e-01
C     7.554619473488356e+00   1.792108757692200e+00   3.506701200000000e+00  1.41892483e+00   1.01995992e+00  -2.86342000e-03
C     8.946932125174726e+00   2.198716680953812e+00   3.533043300000000e+00  2.55230080e-01   2.80393020e-01   1.74903770e-01
C     2.474522147898452e+00   1.591847635270053e+00   3.703711800000000e+00  1.33577170e-01   5.11924720e-01  -3.76597520e-01
