26
Lattice="8.88768389401873 1.33226762955019e-15 0 4.44384194700937 7.69696003302603 0 0 0 30 " PBC="1 1 1" Properties=species:S:1:pos:R:3:force:R:3 Energy="-208.81173359"
C     1.317087677636563e+01   7.525787797710431e+00  -2.641308000000002e-01  8.54687440e-01  -1.55197744e+00   6.36554800e-01
C     9.393730573413166e+00   7.258017793409160e+00  -2.380403999999992e-01  1.59936085e+00   1.18034697e+00  -4.69178960e-01
C     1.082230737453416e+01   6.877649422646619e+00  -2.650928999999991e-01 -2.63317921e+00   6.75715560e-01   3.13792180e-01
C     1.110134011995043e+01   5.505754966278666e+00  -2.371452000000005e-01  1.48641760e+00  -5.94286180e-01  -1.07387010e-01
C     7.026149393715640e+00   6.699628820170359e+00  -1.902521999999998e-01 -7.47438440e-01   9.95225800e-02  -7.75326210e-01
C     8.371308926804922e+00   6.272952382113727e+00  -2.848539000000017e-01  5.75581770e-01   1.19046441e+00   8.16507980e-01
C     8.687746023133318e+00   4.901102414174746e+00  -2.612930999999996e-01  2.71858449e+00   1.04504264e+00  -4.53218330e-01
C     1.009777800522777e+01   4.499542080331207e+00  -2.525730000000017e-01 -7.33603040e-01   8.87816290e-01   1.72488640e-01
C     1.046434790452040e+01   3.139229932446796e+00  -2.106093000000016e-01 -9.25538560e-01  -5.53815760e-01  -2.69416700e-01
C     4.620903142875288e+00   6.104576840251059e+00  -2.152031999999977e-01 -1.50115700e-01   1.80856246e+00  -1.03190940e-01
C     5.983828222901327e+00   5.750952942565560e+00  -2.056803000000009e-01 -2.45067370e-01  -1.79331917e+00  -1.47610910e-01
C     6.299009578349667e+00   4.343331968643956e+00  -2.492324999999980e-01  7.04883920e-01   6.97112600e-01   2.50166880e-01
C     7.676633154437562e+00   3.999182489968184e+00  -3.020345999999989e-01 -1.32991379e+00  -3.83679312e+00   7.49770750e-01
C     8.011183883752276e+00   2.561854021236392e+00  -2.362008000000024e-01  3.92980910e-01   1.29243701e+00  -3.63271680e-01
C     9.376719409833228e+00   2.179230210276261e+00  -2.290725000000009e-01  1.77795268e+00  -3.73392120e-01   2.87944540e-01
C     3.614650859565813e+00   5.115956664935371e+00  -2.136969000000022e-01 -1.25420497e+00   7.94823090e-01  -6.33450950e-01
C     3.952004231178616e+00   3.771323763419272e+00  -3.017268000000008e-01 -6.99532300e-02  -2.53654757e+00   1.46845570e+00
C     5.300084701568093e+00   3.328864093064322e+00  -1.935557999999986e-01  1.53643170e-01   1.96862894e+00  -9.15976150e-01
C     5.649473596947773e+00   1.979177213653326e+00  -2.058293999999989e-01 -6.23802930e-01  -1.16990789e+00  -1.10741910e-01
C     6.993489062950391e+00   1.586484624429950e+00  -2.289944999999989e-01  9.40189990e-01  -8.75603030e-01   5.81041000e-03
C     7.375851443283979e+00   1.880478171553432e-01  -2.481153000000020e-01 -7.76817520e-01   8.60346820e-01  -1.19319530e-01
C     2.957924208618167e+00   2.724540662971286e+00  -2.120205000000013e-01 -1.32746704e+00   1.96695542e+00  -2.22133640e-01
C     3.276408049679418e+00   1.367818916032069e+00  -1.614144000000017e-01 -6.98977700e-01  -8.27509860e-01  -8.28174340e-01
C     4.624943391769479e+00   9.855405446380848e-01  -2.293383000000020e-01  5.20022690e-01  -1.65746762e+00   4.72121620e-01
C     8.940766920332990e-01   7.923837932932288e-01  -2.065634999999979e-01 -2.32595503e+00   3.22568690e-01  -4.88290490e-01
C     2.216002841791860e+00   3.702742695007968e-01  -2.253591000000021e-01  2.11772902e+00   9.80276270e-01   8.33074260e-01
