32
Lattice="9.86 0 0 4.93 8.53901048131456 0 0 0 30 " PBC="1 1 1" Properties=species:S:1:pos:R:3:force:R:3 Energy="-255.01671317"
C     9.759961869700000e+00   6.387710111590807e-01   3.155170200000000e+00 -1.11823154e+00   2.22455266e+00  -7.27178200e-02
C     1.096026261000000e+00   1.381325497252501e+00   3.208040700000000e+00  1.93018625e+00  -2.37913579e+00   6.49050330e-01
C     2.322326786000000e+00   6.068218764976369e-01   3.413278200000000e+00  1.66839965e+00   3.02411773e+00  -1.11503732e+00
C     3.622235612700000e+00   1.371989882484822e+00   3.353785500000000e+00 -2.93017499e+00  -1.18779420e-01   6.73298740e-01
C     4.842855939600000e+00   6.700206300820032e-01   3.365327100000000e+00  3.36264290e-01   2.16284394e+00   1.96063700e-02
C     6.077964747700000e+00   1.458796438343244e+00   3.343800000000000e+00  8.49871600e-02  -2.74247124e+00   1.15789300e-02
C     7.278567549100000e+00   6.071179239909784e-01   3.232798200000000e+00  1.04563716e+00   3.06539338e+00   5.63769910e-01
C     8.550952235099999e+00   1.390803713495196e+00   3.192374700000000e+00 -8.65589440e-01  -1.01819081e+00  -1.08628483e+00
C     1.097237069000000e+01   2.766852529221580e+00   3.166089600000000e+00  6.14674530e-01   2.19959641e+00  -8.21525300e-02
C     2.318179423500000e+00   3.499596887734948e+00   3.332467800000000e+00  1.35788750e+00   4.83896590e-01  -3.44965360e-01
C     3.539802118000000e+00   2.814357606224965e+00   3.363787800000000e+00  2.75796448e+00  -1.06804461e+00  -9.49016280e-01
C     4.841850515400000e+00   3.547959196000419e+00   3.225846900000000e+00 -1.76980551e+00  -1.17125328e+00   2.62051488e+00
C     6.087277468400000e+00   2.912014170359694e+00   3.424904700000000e+00  7.99540070e-01  -3.83600169e+00  -2.23854587e+00
C     7.364232658799999e+00   3.517465364895081e+00   3.245343000000000e+00 -3.42466080e-01   8.25256100e-01   1.01768866e+00
C     8.636053845799999e+00   2.847675117315829e+00   3.063808800000000e+00 -4.38034774e+00  -2.30579038e+00   8.94859380e-01
C     9.801112974100000e+00   3.546756305594101e+00   2.996128500000000e+00  7.33354630e-01   1.83168713e+00   1.39992016e+00
C     1.228816027920000e+01   4.944842599567271e+00   3.335552100000000e+00 -5.14972275e+00  -1.93595809e+00   1.03601950e-01
C     3.588342799400000e+00   5.599965901185657e+00   3.418480500000000e+00  3.06879203e+00   2.41457976e+00  -8.29633550e-01
C     4.817374692300000e+00   4.915942233207605e+00   3.389619000000000e+00  1.57078263e+00   1.00755839e+00  -4.36119030e-01
C     6.096622332699999e+00   5.608191615371145e+00   3.423569100000000e+00 -2.35877157e+00   1.30820773e+00   2.38009830e-01
C     7.314184284800000e+00   4.914430059841702e+00   3.431841300000000e+00  9.51387580e-01   7.49723160e-01  -1.95450914e+00
C     8.499025629699998e+00   5.684669554933169e+00   3.238714200000000e+00  1.92938099e+00  -4.98935410e-01   1.13282929e+00
C     9.779438229100000e+00   5.035247067491441e+00   3.188887800000000e+00  5.48424100e-02  -3.29223308e+00  -8.05607870e-01
C     1.103136834510000e+01   5.669879647221389e+00   3.302046900000000e+00 -1.17131261e+00   9.50027870e-01  -3.16978900e-01
C     1.345754341190000e+01   7.021923169735874e+00   3.267535500000000e+00 -4.83218680e-01   6.62648450e-01   2.29523240e-01
C     4.799774592299999e+00   7.809237867913882e+00   3.176594700000000e+00  1.26476959e+00  -4.10669065e+00   1.38972460e+00
C     6.057463885000000e+00   7.048233824997165e+00   3.379043400000000e+00 -3.98076410e-01  -1.37820470e-01  -5.75500070e-01
C     7.302193144399999e+00   7.743596871942131e+00   3.411766800000000e+00 -1.80177051e+00   9.83168100e-01   8.35662200e-02
C     8.526526550100000e+00   7.084532219256491e+00   3.364834200000000e+00 -2.90292000e-02  -3.58987690e-01  -1.45293900e-02
C     9.743307047900000e+00   7.803844799674924e+00   3.371103000000000e+00 -1.37081190e-01   2.71036150e-01  -3.31644400e-01
C     1.094351934400000e+01   7.120586227035882e+00   3.316220400000000e+00  1.44485321e+00  -3.67582057e+00   3.02958120e-01
C     1.219729653380000e+01   7.678813619573096e+00   3.269983200000000e+00  1.32189405e+00   4.48181962e+00  -1.77258230e-01
