32
Lattice="9.86 0 0 4.93 8.53901048131456 0 0 0 30 " PBC="1 1 1" Properties=species:S:1:pos:R:3:force:R:3 Energy="-252.78178229"
C     9.764604549300000e+00   9.416946280798056e-01   3.587916900000000e+00  1.03416780e+00  -4.14819324e+00   2.62985340e-01
C     1.112840568300000e+00   1.603755534152772e+00   3.848918100000000e+00 -8.46408600e-01   3.94643920e-01  -9.48562180e-01
C     2.314333727700000e+00   9.322711468942871e-01   3.782053200000000e+00  3.58947112e+00  -2.42323903e+00   7.84943950e-01
C     3.625222206700000e+00   1.603151484551417e+00   3.922279500000000e+00  3.16778810e-01  -3.61304070e-01  -2.79970660e-01
C     4.938958943900000e+00   9.833438224762152e-01   3.760807800000000e+00 -2.06430089e+00  -2.53883153e+00   1.62823565e+00
C     6.182334425300000e+00   1.665289522253958e+00   3.866565900000000e+00 -2.01657086e+00   5.56695100e-02   4.41128040e-01
C     7.354468202200000e+00   9.438347602764079e-01   3.740954400000000e+00  1.29121178e+00  -3.46865212e+00   7.85984020e-01
C     8.592140314500000e+00   1.619442891865999e+00   3.602097300000000e+00 -1.33830381e+00   1.50426988e+00  -4.35415300e-02
C     1.094277422380000e+01   2.993549595048813e+00   4.017793500000000e+00  2.17370525e+00   2.67093167e+00  -4.65604530e-01
C     2.354911916800000e+00   3.629862993601645e+00   4.274032200000001e+00  6.98523980e-01   3.79109834e+00   7.09716640e-01
C     3.621974914300000e+00   2.973497180568314e+00   4.238022000000000e+00 -4.06119400e-02   4.07651150e-01  -3.74546240e-01
C     4.856664031499999e+00   3.706116442578149e+00   4.258426800000000e+00  2.11969813e+00   1.08581819e+00  -2.27952310e-01
C     6.184661040199999e+00   3.059654515459942e+00   4.114398899999999e+00 -1.61476876e+00   4.42271730e-01  -2.56844827e+00
C     7.381760435699999e+00   3.755443915198175e+00   3.652413300000000e+00 -9.16716900e-02  -1.69379382e+00   2.38922310e+00
C     8.648354294399999e+00   3.041807471216114e+00   3.563761800000000e+00 -1.77262615e+00   2.02329815e+00   1.42970300e-01
C     9.837281228900000e+00   3.843872370707169e+00   3.693048000000000e+00 -6.23881480e-01  -1.38380890e-01   2.37353778e+00
C     1.233084392340000e+01   5.146985740759263e+00   4.421099700000000e+00 -2.02205074e+00  -2.09033600e-02  -1.62666140e+00
C     3.730563094300000e+00   5.870603775651815e+00   4.112052900000000e+00 -4.55912890e+00  -1.41114981e+00   1.10533405e+00
C     4.876217545399999e+00   5.174537541193820e+00   4.139008200000000e+00  2.60832861e+00  -2.92490713e+00  -1.67200257e+00
C     6.066412525200000e+00   5.846652619766359e+00   3.677306700000000e+00  1.00559548e+00  -2.07254854e+00   2.33394076e+00
C     7.354104072399999e+00   5.119337278726070e+00   3.757642500000000e+00 -4.69906680e-01   4.18616294e+00  -1.62481835e+00
C     8.540183488199999e+00   5.964569864847193e+00   3.735532800000000e+00  1.72356802e+00  -1.30990152e+00   1.64303282e+00
C     9.807725731000000e+00   5.357047789490197e+00   4.029647100000000e+00  1.59845960e-01  -4.98056968e+00  -1.71970736e+00
C     1.106957485910000e+01   5.973651529443197e+00   4.330796100000000e+00 -4.32791290e-01  -3.37604820e+00  -9.97310420e-01
C     1.351199817060000e+01   7.208097422039113e+00   3.766148700000000e+00 -2.34195607e+00   3.59627439e+00   1.16187499e+00
C     4.783130271399999e+00   7.996738911665504e+00   3.532649700000000e+00  2.85292112e+00  -5.03310600e-02   8.81952290e-01
C     6.033293672599999e+00   7.226785900375641e+00   3.618215400000000e+00  1.65915059e+00   3.68869508e+00  -3.36061020e-01
C     7.312710904999999e+00   8.015351563588970e+00   3.737760000000000e+00 -1.25732190e+00   6.27928950e-01  -7.73131160e-01
C     8.596944155799999e+00   7.369880759417176e+00   3.825722100000000e+00 -2.91541359e+00   1.01307650e-01  -6.49212700e-01
C     9.825493845399999e+00   8.039704992258139e+00   3.885207000000000e+00 -4.24361990e-01   2.57697977e+00  -5.47410730e-01
C     1.099644703520000e+01   7.327928942489356e+00   4.079826600000000e+00  3.33089651e+00   1.42319380e+00   8.41941180e-01
C     1.227488625420000e+01   7.975641236912149e+00   4.012429500000000e+00  2.68212190e-01   2.34255888e+00  -2.63185948e+00
