76
Lattice="10.7446858958278 0 0 5.37234294791388 9.3051709414712 0 0 0 30 " PBC="1 1 1" Properties=species:S:1:pos:R:3:force:R:3 Energy="-605.30939767"
C     1.301663898886910e-01   2.134773706712920e-02  -4.557032999999997e-01  1.24585649e+00  -3.80103160e-01   5.65878480e-01
C     1.252888569158834e+01   8.562779836755519e+00  -8.078678999999980e-01  5.28893790e-01  -4.72907295e+00   1.19605669e+00
C     1.399109840634280e+01   8.282510135180326e+00  -7.676181000000000e-01 -2.45142483e+00   8.07432970e+00  -9.64054960e-01
C     1.445569217784726e+01   7.071649084341031e+00  -5.363994000000005e-01  2.77882174e+00  -2.30628588e+00   9.78754460e-01
C     8.305991295544892e+00   8.987379811540025e+00  -2.596929000000010e-01 -1.27579313e+00   4.68645950e-01  -3.23128400e-02
C     9.684501725222898e+00   8.880629215585577e+00  -4.205172000000026e-01  1.03803642e+00   4.92229620e-01   2.67898340e-01
C     1.020040018998441e+01   7.553675363271492e+00  -4.376817000000024e-01  1.53753803e+00   7.67569000e-03   1.10870048e+00
C     1.163676312450692e+01   7.409319779997221e+00  -4.095656999999981e-01  3.89170560e-01   2.11351450e-01  -1.04734325e+00
C     1.218199334613655e+01   6.132965865375795e+00  -9.633090000000166e-02  1.56064416e+00  -8.68951240e-01   6.39390300e-01
C     1.364479519201891e+01   6.032906245637464e+00  -1.757355000000018e-01 -2.60437894e+00  -5.64260684e+00   1.05948384e+00
C     6.060826965008530e+00   7.953049391844497e+00  -4.760510999999994e-01 -3.28370792e+00   1.75153960e+00   1.03083320e-01
C     7.422574019256221e+00   7.825458655897696e+00  -3.717548999999991e-01  1.52992969e+00   6.94984020e-01   1.06168530e-01
C     7.944968183878578e+00   6.526519323422412e+00  -3.307184999999997e-01  1.64248377e+00  -1.01594300e-01   1.74444980e-01
C     9.391089871922908e+00   6.418360669001323e+00  -1.835837999999974e-01 -8.79907950e-01  -2.64477466e+00  -1.27575010e-01
C     9.934881165216813e+00   5.035621851643390e+00   7.430580000000001e-02  7.43085790e-01   2.81587839e+00  -1.43546470e-01
C     1.136486019833527e+01   4.901760547103541e+00   2.797818000000000e-01 -1.68608518e+00   4.50037810e+00  -2.66657812e+00
C     1.189573020098299e+01   3.668646738271494e+00   1.764546000000000e-01  2.32263189e+00  -4.03174560e+00   1.30714958e+00
C     5.124702330441993e+00   6.841805965123886e+00  -4.502270999999993e-01  1.10418841e+00   2.10004341e+00  -8.70953490e-01
C     5.664160775423293e+00   5.585459191592265e+00  -3.875045999999998e-01  4.42781670e-01  -3.11271621e+00   1.49227171e+00
C     7.063775970869508e+00   5.417381656885524e+00  -3.500021999999987e-01  2.14521968e+00  -1.69212698e+00   1.21186744e+00
C     7.699463178090054e+00   4.079414018143435e+00  -1.381064999999992e-01 -1.17242760e+00  -3.80849300e-02  -1.30450846e+00
C     9.108174448555202e+00   3.893548253409243e+00  -4.184130000000152e-02 -2.10912860e-01   1.53768573e+00  -3.39735000e-02
C     9.713480089371767e+00   2.626603262383799e+00  -1.851713999999980e-01  1.73685600e-01  -4.73619710e-01   5.13989090e-01
C     1.112787766250891e+01   2.445767500852933e+00   9.444179999999999e-02 -1.04158479e+00  -2.77430970e-01  -1.33534469e+00
C     3.458483380463150e+00   4.579365685321004e+00   7.234500000000001e-02 -3.22843600e-02   2.39003755e+00  -7.27097630e-01
C     4.879854684536832e+00   4.366399726844573e+00  -6.961169999999939e-02 -2.00012850e+00   4.47778879e+00  -4.85145310e-01
C     5.407321845160014e+00   3.128163235306637e+00  -6.938010000000006e-02  3.71018874e+00  -1.96279517e+00  -1.37227581e+00
C     6.879966736625067e+00   2.900267037005268e+00  -2.770374000000011e-01 -1.36347795e+00   1.22540588e+00   1.69879450e-01
C     7.426864372336092e+00   1.626626789385075e+00  -6.286112999999993e-01  7.72108950e-01   1.33357427e+00  -9.14338600e-02
C     8.877917763761664e+00   1.557196256416265e+00  -6.043214999999975e-01  3.12818290e-01  -1.69778221e+00   4.29230640e-01
C     9.547419571978100e+00   2.911239043215750e-01  -7.199730000000031e-01 -3.60383583e+00  -3.49221832e+00   1.41419100e-02
C     2.581178648536131e+00   3.470534996373424e+00   2.143692000000000e-01  5.03794890e-01  -5.42833730e-01  -5.55616410e-01
C     3.134911032671574e+00   2.123007690266128e+00   1.129254000000000e-01  2.38530747e+00   9.69418760e-01  -8.41067770e-01
C     4.611926325126452e+00   2.002737332297824e+00  -1.591974000000000e-01 -2.02578718e+00  -8.42757100e-01   1.26204448e+00
C     5.248120681521478e+00   7.597525981326242e-01  -4.043114999999986e-01 -3.90573821e+00  -3.03349790e+00  -1.19753198e+00
C     6.547150305766285e+00   4.901203818726202e-01  -8.604801000000002e-01  1.73643723e+00   3.34026182e+00   2.18318845e+00
C     9.782682474549595e-01   1.099157777652030e+00  -4.743690000000100e-02 -2.59486619e+00   2.06913706e+00  -5.75834660e-01
C     2.341694320044814e+00   9.682330920091362e-01  -1.870590000000050e-02  1.49355156e+00  -5.09576050e-01  -1.09389800e-02
C     1.606293607192219e+01   9.291991561139131e+00   3.273913800000000e+00  1.33898231e+00  -1.26486816e+00   3.44370312e+00
C     1.180842715676773e+01   8.800521650325082e+00   3.655694100000000e+00  2.11852120e+00  -1.96574780e+00  -1.89034160e-01
C     1.326413869187153e+01   8.954127876237646e+00   3.548828400000000e+00 -3.00534087e+00  -3.88376800e-01  -1.00265630e-01
C     1.410583972515345e+01   7.842878773362760e+00   3.573042900000000e+00  3.58645500e-02  -6.25361540e-01   1.27747841e+00
C     7.636628469840572e+00   8.316668766339099e+00   3.628869300000000e+00 -4.64868341e+00  -1.71151928e+00   1.24514994e+00
C     8.989700049798884e+00   8.408564866560059e+00   3.688958700000000e+00 -7.72192300e-02   4.58543406e+00  -8.60144240e-01
C     9.804787140787660e+00   7.379610323271699e+00   3.761850600000000e+00  3.31238538e+00  -6.37373484e+00   3.92769000e-03
C     1.124479386691601e+01   7.486136385451365e+00   3.719573400000000e+00 -4.46779990e-01  -7.80609090e-01   4.68675200e-01
C     1.206188059767421e+01   6.269947752042083e+00   3.807661200000001e+00  1.71067270e+00   3.33777183e+00  -5.69786560e-01
C     1.351687761116566e+01   6.575020386757847e+00   3.786788700000000e+00 -1.24202471e+00  -2.32902960e+00  -7.11976290e-01
C     4.784477922166026e+00   8.004235741409797e+00   3.663007500000000e+00 -1.12886383e+00  -3.71762510e-01  -2.34487413e+00
C     5.558689273202579e+00   6.814811943382074e+00   3.782010600000000e+00  1.36765682e+00   5.37244640e-01   8.38521360e-01
C     6.980843327644076e+00   6.987045074378910e+00   3.853021200000000e+00  8.30388720e-01   1.38103077e+00  -1.39076163e+00
C     7.836203542876371e+00   5.865897316761472e+00   3.853570500000000e+00  1.10797816e+00  -7.21451930e-01   2.29805140e-01
C     9.274986234386997e+00   5.997636297913325e+00   3.769402800000000e+00 -1.51479400e-02   1.05292673e+00   5.88917960e-01
C     1.013184721362238e+01   4.827520357379265e+00   3.732270000000000e+00 -9.42405850e-01   1.71666422e+00  -9.03992820e-01
C     1.155599607272464e+01   4.940635038894708e+00   3.715389000000000e+00 -3.29483893e+00   4.84753175e+00   2.30291640e-01
C     1.236948763158069e+01   3.929678278083365e+00   3.489337200000000e+00  2.96290303e+00  -3.41428465e+00   8.30746690e-01
C     3.604920555657070e+00   5.402719033776818e+00   3.799463100000000e+00 -3.99071410e-01   9.99098600e-02   9.21186340e-01
C     4.999008792123183e+00   5.495800240568697e+00   3.904831500000000e+00  1.48201935e+00   1.16568110e+00   1.04357640e-01
C     5.898850126661447e+00   4.369267301373153e+00   4.038706200000000e+00 -2.78920208e+00  -3.03116600e-02  -8.15068800e-01
C     7.284166025494795e+00   4.554496034104794e+00   3.939648300000000e+00  1.19207920e-01  -8.58883160e-01  -5.22983840e-01
C     8.080120376642014e+00   3.393976237206027e+00   3.685118700000000e+00  1.35745154e+00   5.54062940e-01   5.56214400e-01
C     9.518264189129027e+00   3.597597291662543e+00   3.493300200000000e+00 -1.00470434e+00  -2.10821929e+00   7.85066680e-01
C     1.033458133175963e+01   2.440967986733791e+00   3.333744000000000e+00  2.23462760e+00  -3.88012390e-01   3.79049600e-02
C     1.184511574634815e+01   2.622458180936867e+00   3.322654200000000e+00 -3.45729452e+00   7.35149300e-02   3.56944360e-01
C     3.024092276342436e+00   4.123698722422537e+00   3.774500100000000e+00 -5.35538140e-01  -1.43546262e+00  -1.96741737e+00
C     3.848657039869882e+00   2.975168266073123e+00   3.668005200000000e+00  5.35134800e-01  -2.43685486e+00   9.30291870e-01
C     5.234005172760931e+00   3.076101083052465e+00   3.928420200000000e+00  2.21968118e+00  -1.40110360e-01  -2.44267530e-01
C     6.101873169402556e+00   1.903329725887257e+00   3.877721700000000e+00  8.39727020e-01   1.47146388e+00  -8.70551800e-01
C     7.536554775475440e+00   2.078879219807109e+00   3.743854500000000e+00 -5.35800360e-01   1.28035230e-01  -9.44424160e-01
C     8.362467997083336e+00   9.315923065021170e-01   3.438904800000000e+00  1.79750089e+00   1.90377080e+00   1.01553484e+00
C     9.798260603678280e+00   1.095541974328165e+00   3.344270700000000e+00  1.51859680e-01   1.69270498e+00  -9.18190140e-01
C     1.886078539461246e+00   1.492545138397368e+00   3.397348500000000e+00  2.60890403e+00  -2.68277214e+00   7.30288720e-01
C     3.326958002701827e+00   1.567669691567782e+00   3.523176900000000e+00  1.57657760e-01   2.31841309e+00   8.68149500e-02
C     4.192800249987297e+00   4.112258386958644e-01   3.575948700000000e+00 -6.91884520e-01   1.81632774e+00   5.44392020e-01
C     5.609970381874079e+00   6.100585452383657e-01   3.672172800000000e+00 -1.92025654e+00   1.49571700e-01   3.27507140e-01
C     1.401537043689718e+00   1.415044788982552e-01   3.551536800000000e+00 -2.08842003e+00   1.10554679e+00  -2.57352734e+00
