76
Lattice="10.7446858958278 0 0 5.37234294791388 9.3051709414712 0 0 0 30 " PBC="1 1 1" Properties=species:S:1:pos:R:3:force:R:3 Energy="-604.78771606"
C     3.136993245352135e-01   1.911895321840946e-01  -4.268484000000008e-01 -3.11035122e+00  -4.00741911e+00  -7.69910000e-04
C     1.263040352546187e+01   8.615440032346005e+00  -6.296292000000001e-01  2.81642490e-01   2.76373228e+00  -1.99191870e-01
C     1.398611222740404e+01   8.532805275709915e+00  -6.609023999999977e-01  6.05711246e+00  -2.03129004e+00   4.01966810e-01
C     1.465881810095586e+01   7.213146677412791e+00  -4.068468000000003e-01 -1.00853787e+00  -2.08254735e+00   1.05433232e+00
C     8.496581554784253e+00   9.043830840719759e+00  -8.630850000000123e-02 -2.12781461e+00   3.62539300e-01  -7.10182610e-01
C     9.879770543043694e+00   8.845492238754170e+00  -2.688902999999989e-01  7.59305740e-01   3.17721741e+00   4.44234760e-01
C     1.050128932392563e+01   7.620780347918978e+00  -1.338909000000008e-01 -5.72558000e-01  -1.66415944e+00   1.35886600e-02
C     1.192582139225052e+01   7.500147553542560e+00  -2.897391000000020e-01 -3.46196662e+00  -1.97237704e+00   7.43535460e-01
C     1.245557507575665e+01   6.216995653239210e+00  -8.804999999998842e-03 -1.09572490e-01  -1.80398121e+00   1.07115300e+00
C     1.385233954486331e+01   6.070874134623946e+00   6.584010000000000e-02  5.02230880e-01   4.04955200e-02  -1.91540029e+00
C     6.182170839581302e+00   8.095231938549151e+00  -3.217098000000007e-01  5.85061510e-01   2.08083000e-03  -7.31938340e-01
C     7.598024425104757e+00   7.885884761051287e+00  -1.735911000000030e-01  2.69035200e-01   1.58886866e+00  -2.50297500e-02
C     8.204338830757044e+00   6.610138101885407e+00  -1.464321000000020e-01  4.51201810e-01  -1.72068649e+00   1.86535700e+00
C     9.640202513449216e+00   6.471329424060179e+00   1.121499000000000e-01 -2.87593110e-01   1.83053503e+00  -2.08910840e+00
C     1.020774745992626e+01   5.190676241309346e+00   1.074366000000000e-01  9.45784460e-01   1.56632620e+00   1.36127729e+00
C     1.163084672438638e+01   5.001737164717091e+00   2.259849000000000e-01 -2.39863890e-01   1.61443444e+00  -1.04411870e+00
C     1.216827324181713e+01   3.673225998994487e+00   2.692149000000000e-01  4.63943880e-01   2.22801562e+00   2.83083400e-01
C     5.325308570983616e+00   6.877243312873234e+00  -3.981500999999987e-01  2.34911680e-01   5.25698862e+00   3.48116800e-01
C     5.914517597853392e+00   5.644481983916394e+00  -1.812981000000029e-01  8.20593200e-01  -2.38706328e+00   7.48743590e-01
C     7.369919256215835e+00   5.403307027528517e+00  -6.440249999999992e-02 -1.81114763e+00   2.82369026e+00  -9.30828290e-01
C     7.905358543989381e+00   4.102068759520797e+00  -4.520699999999778e-02  1.27498040e-01   3.45137800e+00   5.64913650e-01
C     9.321220617814696e+00   4.164717683908535e+00   9.398040000000001e-02 -7.29734060e-01  -6.63830136e+00  -2.21584060e+00
C     9.894676968133341e+00   2.844332351760996e+00  -2.122704000000013e-01 -2.24094800e-01  -1.23977232e+00  -9.38880900e-02
C     1.126944674286212e+01   2.627543829062414e+00  -2.101169999999897e-02  1.19163809e+00  -1.76072394e+00   2.36414040e-01
C     3.644877034007118e+00   4.719791322700474e+00   2.225418000000000e-01  1.57989631e+00   4.89736700e-01  -1.94330000e-02
C     5.069033253219221e+00   4.494922375661016e+00   4.939710000000000e-02 -4.02473870e-01   1.58680768e+00   4.28850140e-01
C     5.639401741980494e+00   3.214801169532823e+00   7.413539999999999e-02 -1.27833941e+00  -2.33311301e+00  -1.97449690e+00
C     7.013592109522115e+00   3.017811538198408e+00  -1.974632999999990e-01  1.50970695e+00  -6.02918560e-01   2.69033520e-01
C     7.611975701341323e+00   1.770492269305937e+00  -5.491727999999974e-01  4.61307510e-01   2.90686950e-01  -2.26038750e-01
C     9.115759928183456e+00   1.658103856382360e+00  -6.503099999999975e-01 -3.05333711e+00   1.44254426e+00   1.72891942e+00
C     9.573635745999228e+00   3.297284531037719e-01  -6.781421999999999e-01  1.69704892e+00   4.90803980e-01   3.52815620e-01
C     2.859660008650055e+00   3.569325111640413e+00   3.957510000000000e-01 -1.40400662e+00  -2.02143812e+00  -1.27082190e+00
C     3.396884902049893e+00   2.200137042515566e+00   1.958067000000000e-01 -1.56726076e+00   1.13646077e+00  -3.80396820e-01
C     4.728705319894608e+00   2.024940679832886e+00  -9.961709999999968e-02  3.27349534e+00   1.25265316e+00   9.50441860e-01
C     5.340098631124966e+00   7.615142530949850e-01  -3.953267999999994e-01 -1.68103175e+00  -7.99171600e-02   3.37965790e-01
C     6.711081011520854e+00   6.692080739906977e-01  -6.643133999999975e-01  8.37582480e-01  -1.53786132e+00   7.94066190e-01
C     1.091373472943618e+00   1.276013903675277e+00  -9.020849999999925e-02  1.35999922e+00   1.20074462e+00  -5.34974250e-01
C     2.532740476306911e+00   1.080605779193824e+00  -1.882500000000675e-03 -2.96997430e-01  -6.86263390e-01   5.31679980e-01
C     1.581698371113622e+01   9.153219545687406e+00   2.952061500000000e+00  8.80598440e-01   1.38738542e+00   9.83423550e-01
C     1.156595344176531e+01   8.656946398685839e+00   3.317427300000000e+00  2.79270348e+00   3.04471682e+00   9.01224300e-01
C     1.301075573610455e+01   8.934714963364071e+00   3.148475400000000e+00 -5.20824160e-01  -2.55945559e+00   5.93590030e-01
C     1.384895136933503e+01   7.708483445062665e+00   3.289509600000000e+00  6.26760540e-01   2.16470848e+00   8.37822600e-02
C     7.304173705109184e+00   8.161841515895789e+00   3.546478500000000e+00  3.47411115e+00   1.34200470e-01  -9.70343180e-01
C     8.809182933590774e+00   8.328614744791871e+00   3.591557700000000e+00 -1.49324845e+00   7.38907820e-01  -1.70074250e-01
C     9.701641487000288e+00   7.197667432502391e+00   3.687602400000000e+00 -2.42835669e+00  -9.48249700e-02   2.90478210e-01
C     1.110924573247716e+01   7.383491882277609e+00   3.610429800000000e+00 -2.31983606e+00  -2.98652750e-01  -6.32022390e-01
C     1.190715051273238e+01   6.273995594452693e+00   3.735123900000000e+00  1.55794435e+00  -2.35582975e+00   2.01942590e-01
C     1.334689952756942e+01   6.464837950709017e+00   3.693631200000000e+00 -1.64327549e+00  -2.52150665e+00  -3.57124700e-02
C     1.526774985836996e+01   7.883060920826125e+00   3.209014800000000e+00 -4.34314000e-03  -1.90199500e+00   4.05572030e-01
C     5.371941904598783e+00   6.720226369604324e+00   3.548366700000000e+00  8.88991700e-02   2.70860130e-01   1.48572348e+00
C     6.818248562410883e+00   6.861117358582505e+00   3.655667700000000e+00 -2.66645773e+00   1.33414796e+00   4.89727900e-02
C     7.664900424614946e+00   5.811453040746660e+00   3.938871000000000e+00  1.01592747e+00  -2.93839166e+00  -7.41881000e-03
C     9.076005449928326e+00   5.861928289148723e+00   3.828542700000000e+00  7.04226230e-01   3.59079401e+00   1.78984730e-01
C     9.919869173588200e+00   4.756629656986550e+00   3.759329399999999e+00 -6.60063020e-01  -1.01699972e+00  -4.10416190e-01
C     1.131491975784694e+01   4.928971658483384e+00   3.818304900000000e+00  1.59766526e+00  -5.20756780e-01  -8.57812710e-01
C     1.214891051197389e+01   3.722387729466661e+00   3.703860600000000e+00  3.51959550e-01   1.15093440e-01  -6.91145400e-02
C     3.386321479001026e+00   5.255409337884226e+00   3.938539800000000e+00  9.68387700e-02   9.15712300e-02  -6.75066900e-01
C     4.818997589450674e+00   5.444793759957669e+00   4.038711900000000e+00 -2.08898302e+00   2.38351937e+00  -2.47288794e+00
C     5.657998859229932e+00   4.373470074879914e+00   4.040440800000000e+00  2.81912768e+00  -4.98659162e+00   4.83155450e-01
C     7.125321370534420e+00   4.489492250107269e+00   4.065924600000000e+00 -2.04765622e+00   2.77795980e-01  -1.73629857e+00
C     7.902519045846589e+00   3.367439285460788e+00   3.620426700000000e+00 -1.56316520e-01  -4.57655160e-01  -4.55869600e-02
C     9.294503526536911e+00   3.497807894088308e+00   3.434479200000000e+00  2.51620080e+00  -6.46930020e-01  -5.50283380e-01
C     1.020421063166855e+01   2.394721008006863e+00   2.953123500000000e+00 -1.92482450e-01  -3.09963490e-01   3.63765760e+00
C     1.162945077479425e+01   2.383308029745534e+00   3.396870300000000e+00 -2.39125896e+00   3.84168096e+00  -1.61161184e+00
C     2.816653006526138e+00   3.870510976454538e+00   3.813372600000000e+00  3.33981000e-03   4.33445190e+00   8.88153770e-01
C     3.734028755154900e+00   2.835406273485092e+00   3.763395000000000e+00 -6.87751170e-01  -2.29465332e+00   1.70677110e-01
C     5.129450460864633e+00   2.956030879311081e+00   3.897868800000000e+00  4.69151730e-01   2.33848543e+00   6.62866200e-02
C     5.977166584207092e+00   1.813308152352159e+00   3.676829700000000e+00 -1.62845824e+00   5.73114250e-01  -6.49610940e-01
C     7.298715458395414e+00   2.093186106230778e+00   3.362732700000000e+00  3.00387528e+00  -1.83456006e+00   4.68887290e-01
C     8.218993024345188e+00   9.361963189798101e-01   3.074412300000000e+00 -1.50032220e+00   5.84325890e-01  -9.40674500e-02
C     9.634581968254926e+00   1.100631716728926e+00   2.904763500000000e+00 -4.88072620e-01  -1.87088366e+00  -1.91608710e-01
C     1.702254961061128e+00   1.278474190871813e+00   3.301678800000000e+00  2.13844613e+00  -2.15581350e-01   1.26219028e+00
C     3.163070383137717e+00   1.534993094984622e+00   3.594200700000000e+00 -2.17498668e+00  -1.56475285e+00  -1.10272428e+00
C     3.969707423347296e+00   3.850506719967726e-01   3.522539100000000e+00  2.10852760e-01  -1.59268249e+00   9.99255470e-01
C     5.377174136844647e+00   5.010128288715654e-01   3.542266500000000e+00  4.88878360e-01   6.27720780e-01  -7.73928620e-01
C     6.485896839217276e+00   9.249095188364278e+00   3.213299100000000e+00  2.75667740e-01   2.08824272e+00  -2.75641940e-01
