76
Lattice="10.7446858958278 0 0 5.37234294791388 9.3051709414712 0 0 0 30 " PBC="1 1 1" Properties=species:S:1:pos:R:3:force:R:3 Energy="-599.58454693"
C     5.389088381804862e+00   9.283749412927316e+00   2.631318000000000e-01  1.68528394e+00   3.89574479e+00  -2.48840125e+00
C     1.242561507710396e+01   8.485901631069751e+00   3.565875000000000e-01  3.78570839e+00   3.16696419e+00  -9.82046270e-01
C     1.397716469766768e+01   8.322380559417200e+00   2.984304000000000e-01 -4.93426021e+00   1.00636352e+00   7.60919370e-01
C     1.446599627790193e+01   7.035196170235291e+00   2.252058000000000e-01  9.83510490e-01  -8.60469430e-01  -4.84425710e-01
C     8.187274496674670e+00   9.031916127641345e+00   7.180499999999999e-03  3.99320900e-02  -4.97127466e+00  -7.31124290e-01
C     9.539726215703411e+00   8.739074860971083e+00   3.895980000000000e-02  2.90282416e+00   3.72796643e+00   6.97304800e-02
C     1.013080309877004e+01   7.512490118380796e+00  -6.983100000000064e-02  1.89377754e+00  -1.19258151e+00   1.33576053e+00
C     1.161933508280683e+01   7.403519773898609e+00   1.576548000000000e-01 -3.02427733e+00  -1.46061326e+00  -9.94745680e-01
C     1.217669954684049e+01   6.107042217447212e+00  -4.129860000000107e-02  4.54803920e-01  -1.47572881e+00  -1.16777612e+00
C     1.357795045954469e+01   5.940052178068229e+00  -3.471059999999682e-02  1.65430666e+00  -2.64536008e+00  -1.61204017e+00
C     5.969773595626737e+00   8.091150969729995e+00   1.935648000000000e-01  6.25610110e-01  -4.84538277e+00  -3.08602290e-01
C     7.331950867097864e+00   7.844649826547771e+00  -1.014368999999995e-01 -6.28739900e-02   4.01693082e+00   1.90560343e+00
C     7.846908151097963e+00   6.598062595453150e+00  -6.041399999999797e-02  1.93292219e+00  -8.81955770e-01  -4.83285330e-01
C     9.255846671669897e+00   6.408113907813904e+00  -1.166772000000016e-01  1.22456926e+00  -1.45261419e+00  -2.78768060e-01
C     9.821271154384572e+00   5.100851286036209e+00  -2.092646999999985e-01  3.50434767e+00  -1.95057693e+00  -7.39712800e-01
C     1.135239351534951e+01   4.959941779767858e+00  -4.198220999999975e-01 -2.00134549e+00  -1.15373215e+00   1.77955540e+00
C     1.195488372611970e+01   3.585222437881146e+00  -5.117223000000024e-01 -3.19930767e+00  -5.69113120e-01  -8.93060510e-01
C     5.161831559591174e+00   6.953183092069702e+00   2.119464000000000e-01 -8.04342820e-01  -3.92712696e+00  -7.39932340e-01
C     5.743410516386211e+00   5.587553134208893e+00   4.378890000000000e-02 -7.99786301e+00   9.66188390e-01  -7.21957310e-01
C     7.033956458984956e+00   5.469906927497378e+00  -2.971080000000015e-02  5.40105662e+00  -2.76231067e+00   1.96260540e-01
C     7.693204291106445e+00   4.163701187035049e+00  -1.736399999998639e-03 -3.62736354e+00  -2.27169492e+00  -3.78091340e-01
C     9.038245024205949e+00   3.848487777028874e+00  -1.212305999999970e-01  1.09066895e+00   3.52551563e+00  -7.28313940e-01
C     9.571143838445300e+00   2.554502889768885e+00  -2.435648999999991e-01  4.12529896e+00  -1.55298094e+00   3.77948410e-01
C     1.107098299268896e+01   2.298792605010762e+00  -4.518090000000008e-01 -1.83935886e+00   4.62064483e+00   7.75646750e-01
C     3.501206830326166e+00   4.486859445041506e+00  -5.257742999999984e-01 -6.22539472e+00   3.97664488e+00   1.87746124e+00
C     4.776948690968460e+00   4.409120976302336e+00  -2.588873999999990e-01  6.54603391e+00  -3.35165600e-01   1.05802005e+00
C     5.391920466114383e+00   3.066773393598790e+00  -1.832363999999984e-01 -1.66632540e-01   1.26465254e+00   1.55825401e+00
C     6.795912455638534e+00   2.990746238847195e+00   4.018020000000000e-02  1.97954467e+00  -4.60880640e-01   2.28590330e-01
C     7.451697006877305e+00   1.680620136816135e+00   2.848833000000000e-01 -2.15674895e+00  -2.05893330e-01  -1.56268100e+00
C     8.859354277379092e+00   1.375153055904225e+00   8.321130000000000e-02 -3.39915647e+00   6.19150551e+00   9.11189300e-02
C     9.411938591826122e+00   1.819957441402464e-01   2.355801000000000e-01 -8.35478650e-01  -4.31887067e+00   9.25272150e-01
C     2.579261689124712e+00   3.356195475207149e+00  -6.360738000000019e-01  1.18758053e+00   8.86699030e-01   2.10231032e+00
C     3.086024860763754e+00   2.078526926035321e+00  -2.144484000000020e-01  2.00396859e+00   1.72662442e+00  -9.12547270e-01
C     4.507991527883155e+00   1.969136080878356e+00   4.127100000000000e-02  1.26018480e-01  -2.59699772e+00  -1.85885367e+00
C     5.062794834862252e+00   5.774501555581953e-01   1.087089000000000e-01  1.32175653e+00   3.65625908e+00   9.80678880e-01
C     6.551449630658881e+00   5.920627168472431e-01   2.940072000000000e-01 -2.00776422e+00  -4.13049423e+00  -1.73573980e-01
C     8.547211213149635e-01   1.030055531113983e+00  -2.294457000000030e-01  5.77223730e-01   1.88830167e+00   1.29228697e+00
C     2.296339120540881e+00   9.502676915269875e-01  -1.273064999999995e-01 -2.64008398e+00   1.39601607e+00  -2.71895230e-01
C     1.606061591817237e+01   9.289838251531906e+00   3.872174100000000e+00  1.89959008e+00  -1.33812594e+00  -2.47730135e+00
C     1.184451785830124e+01   8.830264977872826e+00   3.404511600000000e+00 -1.09965400e-01  -1.55309313e+00  -5.95764190e-01
C     1.326770485312174e+01   8.911235690789715e+00   3.382437300000000e+00 -6.58734000e-03   4.03825454e+00  -2.11097600e-02
C     1.407103811731078e+01   7.827544409963897e+00   3.283400400000000e+00  3.52757483e+00  -3.46115927e+00   1.04613635e+00
C     7.584081905787199e+00   8.385806930836974e+00   3.492991200000000e+00  9.20391020e-01  -2.20793960e+00   1.29432914e+00
C     9.016900598218742e+00   8.489653382941050e+00   3.400795500000000e+00  8.32139030e-01  -1.14437240e-01  -7.72622000e-03
C     9.869019410332154e+00   7.236139847857240e+00   3.387654600000000e+00  1.06877946e+00   5.73155822e+00   1.72681580e-01
C     1.131750380108247e+01   7.461875943776597e+00   3.459978600000000e+00 -4.15627580e+00   5.27266142e+00   4.28529100e-02
C     1.212001826648250e+01   6.447797298114884e+00   3.645831000000000e+00  2.88347069e+00  -6.12619672e+00  -6.48351850e-01
C     1.351957184115508e+01   6.433909702693771e+00   3.439209300000000e+00 -9.35023270e-01   6.64583779e+00  -3.64448140e-01
C     4.840931415182928e+00   8.001821887016252e+00   3.358725000000000e+00 -4.52989550e+00   3.53655243e+00   1.94902809e+00
C     5.682042726379227e+00   6.960013645849918e+00   3.250857000000000e+00 -9.62882660e-01  -3.43454775e+00  -2.65490730e-01
C     7.041419341747089e+00   7.050061087760231e+00   3.376154700000000e+00  3.67914751e+00  -8.78299530e-01  -1.48185129e+00
C     7.949388655104696e+00   5.800132741987894e+00   3.114928800000000e+00 -2.12030168e+00   3.49820796e+00   1.93757687e+00
C     9.339221028932679e+00   6.004094365700813e+00   3.334866600000000e+00 -1.09306717e+00  -3.26718768e+00  -1.00528536e+00
C     1.020237893133975e+01   4.843235581424702e+00   3.384503100000000e+00  4.07584040e-01   1.80683061e+00   1.07431439e+00
C     1.159542122635693e+01   5.115614684146195e+00   3.625128600000000e+00 -5.25036250e-01  -3.08969256e+00  -1.01895030e+00
C     1.243932508141864e+01   3.907500891975226e+00   3.558304800000000e+00  6.30908980e-01   4.77835370e-01   4.46004900e-01
C     3.599637071259463e+00   5.401000182600781e+00   3.294856800000000e+00  4.68205007e+00  -1.36359985e+00   5.69623000e-03
C     5.068012722952439e+00   5.683221364625512e+00   3.106035600000000e+00 -9.36967440e-01  -4.08474755e+00   1.84411020e+00
C     5.840447010387990e+00   4.444304106781604e+00   3.317681400000000e+00  1.91554559e+00   1.69944771e+00  -1.66006455e+00
C     7.340471403016563e+00   4.533799286796627e+00   3.166067700000000e+00 -1.85714750e+00   4.83442210e-01   1.54238266e+00
C     8.166503998084810e+00   3.446847846280269e+00   3.471819300000000e+00  2.51611926e+00  -1.86252320e+00  -1.95522310e-01
C     9.634294762800819e+00   3.558849443247870e+00   3.447764100000000e+00 -2.77361645e+00   2.38102562e+00   2.38556530e-01
C     1.044090069714472e+01   2.488836484548723e+00   3.671464500000000e+00  7.72378700e-02  -3.34224809e+00  -2.87151480e-01
C     1.179592969025686e+01   2.537601535583725e+00   3.605500800000000e+00  3.57461888e+00   4.81072933e+00   7.83942790e-01
C     3.172274818313952e+00   4.089181190820606e+00   3.495373500000000e+00 -3.09817907e+00  -3.77690891e+00  -6.04025570e-01
C     3.938774708280074e+00   2.777081368981462e+00   3.418345500000000e+00  4.20756230e-01   8.16824047e+00   2.67241800e-01
C     5.353454221975237e+00   3.116029106297458e+00   3.429091800000000e+00 -3.35331470e-01  -1.58691931e+00  -1.08679970e+00
C     6.277081390030906e+00   2.029479370010581e+00   3.337066800000000e+00 -7.39960320e-01  -2.97232275e+00   1.51217221e+00
C     7.691670433470790e+00   2.089527871327426e+00   3.646596600000000e+00 -1.45370138e+00   1.30008349e+00  -3.32694984e+00
C     8.534247749611286e+00   9.604637395327832e-01   3.406858200000000e+00  2.12074400e-02  -6.38165930e-01   2.27688718e+00
C     9.988204193996749e+00   1.146640203924662e+00   3.665040900000000e+00 -5.66543516e+00  -2.86709500e-02  -1.06255410e-01
C     1.904250596936480e+00   1.442481085499142e+00   3.705741600000000e+00 -8.81114430e-01  -1.11651800e-02  -3.69258600e-02
C     3.257260126333720e+00   1.620618719664246e+00   3.452682000000000e+00  2.85864001e+00  -2.67848242e+00   3.12517580e-01
C     4.197297975505037e+00   5.371979401576528e-01   3.370610100000000e+00  5.31652390e-01  -2.99359972e+00  -3.00942370e-01
C     5.665847959726740e+00   6.647443834907798e-01   3.240474300000000e+00 -1.25072746e+00   2.07922076e+00   1.61218988e+00
C     1.356416937913278e+00   1.650892721110698e-01   3.882586200000000e+00  9.64533860e-01  -1.24135896e+00  -1.63856110e+00
