76
Lattice="10.7446858958278 0 0 5.37234294791388 9.3051709414712 0 0 0 30 " PBC="1 1 1" Properties=species:S:1:pos:R:3:force:R:3 Energy="-604.334647"
C     1.513985339082450e-01   8.113774073526160e-02  -2.658656999999991e-01 -3.18124218e+00  -3.92466142e+00   3.81614150e-01
C     1.262466790468159e+01   8.577513086111658e+00  -6.322619999999901e-02 -4.11357968e+00   1.09460210e-01  -5.73258520e-01
C     1.397199661119664e+01   8.483626144568083e+00  -8.764799999998019e-03  3.81094156e+00  -2.91685338e+00  -2.32485636e+00
C     1.461551938060976e+01   7.211739363359825e+00  -3.351261000000001e-01 -3.07563307e+00  -4.17251624e+00   1.17296918e+00
C     8.297075355185070e+00   8.860222603507319e+00  -3.789797999999998e-01 -1.48687151e+00   6.83345664e+00   1.30260229e+00
C     9.672407721667575e+00   8.867380327097786e+00  -2.625899999999994e-01  1.69601108e+00  -1.08683850e+00   3.61889020e-01
C     1.025598674801947e+01   7.613221385357577e+00  -3.084423000000029e-01  1.23824221e+00  -2.78770102e+00   6.89658750e-01
C     1.168839139397985e+01   7.521724290866524e+00  -2.772720000000000e-01  1.53056155e+00  -2.31602615e+00  -1.16868400e-02
C     1.233840594144347e+01   6.255218038650901e+00  -4.222941000000020e-01 -1.57540001e+00  -3.85460198e+00   2.27102820e-01
C     1.374949399015312e+01   5.977096994097463e+00  -4.740414000000008e-01 -1.01247423e+00   2.57382422e+00   1.71121653e+00
C     6.051977211913854e+00   8.004892965633289e+00  -2.432735999999984e-01 -1.02314287e+00   7.50212360e-01   4.59204190e-01
C     7.418786678646759e+00   7.859120577031693e+00  -2.031755999999980e-01  1.85983077e+00  -4.35652256e+00   2.40459680e-01
C     8.071836170089686e+00   6.520063768031078e+00  -6.174929999999890e-02 -2.52041012e+00   3.66761000e-01  -1.97861494e+00
C     9.447644526157559e+00   6.347181508309468e+00  -2.413245000000011e-01  7.94639200e-01   3.57314692e+00  -3.60536190e-01
C     1.005237059861668e+01   5.091854767616290e+00  -3.793296000000019e-01  5.64326430e-01   1.23532265e+00   6.45088400e-01
C     1.147126955046477e+01   4.991723311958300e+00  -3.869115000000001e-01  3.14161170e-01   2.29103053e+00   1.80132050e-01
C     1.199001976231100e+01   3.725296618954214e+00  -2.329428000000000e-01  3.27099186e+00  -1.80286774e+00  -9.97575740e-01
C     5.200221409013572e+00   6.812556556049636e+00  -2.264616000000004e-01  2.50376990e-01   5.83861359e+00  -5.59546320e-01
C     5.723847881661800e+00   5.565841192751172e+00  -3.261425999999972e-01  3.57634075e+00  -1.53398806e+00   4.33624440e-01
C     7.175462736649077e+00   5.415608556562906e+00  -2.649800999999989e-01 -1.15551200e-02   3.93563690e-01   2.69681440e-01
C     7.733414988724887e+00   4.132568318310835e+00  -3.739926000000011e-01  3.76592055e+00   2.72429500e-01   6.62853150e-01
C     9.242296172217401e+00   3.995001973857806e+00  -3.075966000000001e-01 -1.64696515e+00  -3.36459821e+00  -1.84348490e-01
C     9.894606214376688e+00   2.625199391244081e+00  -2.368185000000018e-01 -6.44360308e+00   2.67181781e+00   8.07588000e-03
C     1.123298416774960e+01   2.516620515303341e+00  -2.683397999999997e-01  6.25557020e-01  -5.19063650e-01   5.83733530e-01
C     3.477159309983664e+00   4.631473805119619e+00  -2.780831999999975e-01  5.03045388e+00   1.74272661e+00  -1.21002817e+00
C     5.004059009389902e+00   4.389958465578756e+00  -3.276308999999991e-01 -4.10129289e+00   9.52426750e-01  -3.48146900e-01
C     5.552065496685806e+00   3.118051026891011e+00  -3.754799999999996e-01 -2.38604853e+00  -1.56331039e+00   8.95915050e-01
C     6.964236394840465e+00   2.989781013465589e+00  -3.731363999999999e-01 -1.78290614e+00  -2.57889394e+00   9.42590760e-01
C     7.475968500197393e+00   1.656756653733667e+00  -1.239069000000015e-01  9.12198410e-01   1.52428231e+00  -9.01657340e-01
C     8.914789442789822e+00   1.528987444608237e+00  -1.040306999999991e-01  5.52580810e-01   1.47159662e+00  -7.13784880e-01
C     9.462844710959711e+00   2.735706298603590e-01  -1.602284999999988e-01  1.05393986e+00  -9.08447860e-01   1.07252347e+00
C     2.722664887361049e+00   3.536682292827765e+00  -2.390366999999998e-01 -4.48938203e+00  -3.49878693e+00  -1.63946040e-01
C     3.174908770615478e+00   2.134259130759938e+00  -2.893356000000011e-01 -6.50666230e-01  -5.23015620e-01   6.59179810e-01
C     4.544169153925603e+00   1.923082649706980e+00  -2.266988999999988e-01  4.03077549e+00   2.80756697e+00  -4.48841340e-01
C     5.179581243463679e+00   6.825234944507096e-01  -9.902819999999934e-02 -5.41121570e-01  -7.67420940e-01  -1.45147363e+00
C     6.621031625589557e+00   5.075439422509326e-01  -1.203131999999982e-01 -3.11398270e-01   2.83257216e+00   1.02408213e+00
C     9.714972687413566e-01   1.147226615797301e+00  -2.571833999999988e-01  1.17382280e-01   2.40947006e+00  -1.31506740e-01
C     2.290202776699962e+00   9.009995098992603e-01  -2.842112999999991e-01  5.28613871e+00   1.80283114e+00  -7.31137390e-01
C     1.604551619618338e+01   9.292886439428431e+00   3.714678000000000e+00 -3.81041232e+00   8.10491950e-01   2.29869932e+00
C     1.173759979901781e+01   8.714113274665985e+00   3.673869600000000e+00  1.35533671e+00   3.39847783e+00   5.18798760e-01
C     1.317453709072512e+01   8.916259087321674e+00   3.818496000000001e+00 -3.71242140e-01  -1.71310001e+00  -4.11669140e-01
C     1.405369028469094e+01   7.707948769940453e+00   3.772890000000000e+00 -3.58299631e+00   5.47659574e+00   3.97760580e-01
C     7.412017311636042e+00   8.335475726481063e+00   3.714887700000000e+00  4.83684278e+00  -3.26562469e+00   5.79059950e-01
C     8.917871448493377e+00   8.393771226644521e+00   3.783635700000000e+00 -1.02742114e+00   1.77810866e+00  -1.51929732e+00
C     9.772148169599518e+00   7.270722608707460e+00   3.646870800000000e+00 -1.32470245e+00   2.67454160e-01  -9.86064670e-01
C     1.117587068240129e+01   7.452633489688733e+00   3.580598400000000e+00 -1.49821839e+00  -6.34204020e-01   9.72095110e-01
C     1.195228630575023e+01   6.298748744928733e+00   3.664036500000000e+00  2.82285550e+00   6.53514400e-02  -4.46137690e-01
C     1.336956802120009e+01   6.531894734571032e+00   3.734858400000000e+00  2.86262187e+00  -5.08895688e+00  -7.79779390e-01
C     1.538086346471362e+01   8.031176351470412e+00   3.734550600000000e+00  4.56712438e+00  -4.12617117e+00  -1.83480589e+00
C     5.521311304574812e+00   6.786369943990288e+00   3.461688300000000e+00 -1.43252240e-01   2.14632871e+00   2.20063318e+00
C     6.923197174492275e+00   6.960166995067011e+00   3.583518000000000e+00 -5.11557710e-01   1.84104846e+00  -9.91906300e-01
C     7.814954368529666e+00   5.854494481136467e+00   3.459453300000000e+00 -1.52705540e+00  -2.28306615e+00   7.30996590e-01
C     9.193250065659960e+00   5.965249743508364e+00   3.446609700000000e+00  1.92118583e+00   1.72138976e+00   1.85492337e+00
C     1.006364274114751e+01   4.853804487630065e+00   3.623289300000000e+00 -7.93962760e-01   1.55378840e-01  -1.77009419e+00
C     1.146872015884128e+01   4.973874319164610e+00   3.602138700000000e+00  8.99752500e-01   4.43172030e-01   8.70536200e-02
C     1.238995588215618e+01   3.837134351861561e+00   3.551904600000000e+00 -3.49790370e+00   2.02061095e+00   9.74930110e-01
C     3.607482572286495e+00   5.358545061031903e+00   3.630057900000000e+00 -4.35559552e+00  -1.16023384e+00  -3.99226480e-01
C     4.983307314000366e+00   5.472408994911436e+00   3.512205600000000e+00 -5.56896700e-01   1.92319488e+00  -7.55667200e-02
C     5.785230821675903e+00   4.339558402957887e+00   3.517747800000000e+00  2.51104949e+00  -1.46092708e+00  -3.78149520e-01
C     7.267956055111759e+00   4.490898540591432e+00   3.568474500000000e+00 -2.24965736e+00   7.06908750e-01  -7.51276490e-01
C     8.114324472501782e+00   3.328492399439709e+00   3.660486300000000e+00 -2.82383544e+00   2.70885719e+00  -5.53109130e-01
C     9.450139710840686e+00   3.612354083101161e+00   3.580387500000000e+00  2.49702800e+00  -3.56253542e+00   1.72030869e+00
C     1.028508056381833e+01   2.450802435796858e+00   3.798706800000000e+00  1.28139325e+00   6.94812420e-01  -5.38110190e-01
C     1.172242346741836e+01   2.616825016553210e+00   3.734794800000000e+00 -4.96970010e-01  -9.64776590e-01   2.69555200e-02
C     3.014278939816248e+00   3.996406775514619e+00   3.554847900000000e+00  1.06733114e+00   2.35802493e+00   3.24631500e-02
C     3.808405136381015e+00   2.847504763689571e+00   3.517695900000000e+00  6.90706340e-01  -4.12580970e-01  -7.02739200e-02
C     5.211069834855937e+00   3.013632399825835e+00   3.455468400000000e+00  1.70729989e+00   1.42789470e+00   1.27794635e+00
C     6.136067756215299e+00   1.952294931149178e+00   3.659520000000000e+00 -2.49294537e+00  -2.07094977e+00  -4.89839260e-01
C     7.505450628944684e+00   2.067181689418435e+00   3.772024200000000e+00  2.05519354e+00  -9.74292450e-01  -9.17450400e-02
C     8.374905938034317e+00   8.906089838208187e-01   3.873212700000000e+00 -9.75905460e-01   1.49481233e+00  -2.33039200e-02
C     9.782490090948556e+00   1.133182135194140e+00   3.925241700000000e+00  1.34394410e-01  -8.82366160e-01  -1.45631921e+00
C     1.784838831782246e+00   1.488062558400441e+00   3.842153400000000e+00  2.78256386e+00  -1.32272477e+00  -6.17251940e-01
C     3.217171703240820e+00   1.568974648740408e+00   3.653271000000000e+00  7.06453170e-01  -2.60857650e-01   1.40388960e-01
C     4.140782915437928e+00   4.195516403944294e-01   3.637557000000000e+00 -2.17393676e+00   2.61973410e-01   1.15059122e+00
C     5.537961377292311e+00   6.284374675170877e-01   3.671788800000000e+00  7.76384040e-01  -1.42130635e+00  -3.17612260e-01
C     1.295810570072597e+00   1.690173569716814e-01   3.874329600000000e+00 -1.27772242e+00  -1.13458320e-01  -1.24433292e+00
