76
Lattice="10.7446858958278 0 0 5.37234294791388 9.3051709414712 0 0 0 30 " PBC="1 1 1" Properties=species:S:1:pos:R:3:force:R:3 Energy="-608.06972634"
C     2.225289455239695e-01   1.715794427383010e-01  -1.423947000000005e-01  7.80879300e-01  -1.92470280e+00   1.57532627e+00
C     1.262416612785006e+01   8.645085190340332e+00  -2.609397000000016e-01  2.04762224e+00  -5.56176852e+00   2.24178400e-02
C     1.407609983139142e+01   8.314201500264359e+00  -2.708039999999983e-01 -1.22975939e+00   4.19648200e+00   6.78537190e-01
C     1.464222991762914e+01   7.063954080180488e+00  -2.302347000000005e-01  1.11690406e+00  -1.83843548e+00  -5.51051250e-01
C     8.517489639077063e+00   9.132029717371129e+00  -8.514600000000172e-02 -1.61029796e+00   6.41777610e-01   5.03768470e-01
C     9.934153964875101e+00   8.945647050391219e+00  -2.319023999999992e-01 -1.28875795e+00  -8.10811120e-01   6.60583370e-01
C     1.045892447795453e+01   7.570555036408361e+00  -3.156654000000003e-01 -3.12583286e+00   2.09294042e+00   1.41374093e+00
C     1.179118564281486e+01   7.382469709249850e+00  -1.831710000000015e-01  3.24032171e+00   2.70529561e+00  -7.46586010e-01
C     1.238093813589746e+01   6.108601857148466e+00  -6.424080000000032e-02 -3.95670200e-02  -1.79890130e-01   6.00700340e-01
C     1.377039116858974e+01   5.889432141206338e+00  -1.716239999999978e-01  3.18632330e-01   4.88323236e+00   3.42164700e-02
C     6.190502698815598e+00   8.170670075980242e+00  -2.036379000000004e-01 -1.02750703e+00  -1.26578317e+00   1.48071370e-01
C     7.584019640332409e+00   8.016609106363843e+00  -1.283415000000012e-01  1.56437166e+00  -9.75443560e-01  -4.71460890e-01
C     8.133991330679422e+00   6.669617871154400e+00  -1.438647000000017e-01  2.88355690e-01  -1.36875100e-02   1.03964350e-01
C     9.543949145879258e+00   6.511756855829522e+00  -1.416545999999990e-01  5.76279610e-01  -2.10428336e+00  -2.21785110e-01
C     1.012752709776256e+01   5.171365778367820e+00   1.257000000000000e-03 -3.43915000e-01   2.90539010e-01   5.33626790e-01
C     1.155010368697708e+01   5.004120125943115e+00   2.049561000000000e-01 -1.42524603e+00   2.56020510e-01  -2.42820114e+00
C     1.208317812310746e+01   3.696679682348757e+00   1.751088000000000e-01  3.20679140e-01  -3.68207080e-01   1.01411279e+00
C     5.359690169054448e+00   6.932379428347435e+00  -2.461559999999992e-01 -5.86922240e-01   1.87742723e+00   1.05675600e-02
C     5.951157836347262e+00   5.635117445985796e+00  -2.499468000000000e-01 -1.55571481e+00   9.59366650e-01   5.60590610e-01
C     7.334710585947849e+00   5.468086370802967e+00  -1.315865999999986e-01  4.29250900e-01   1.44775214e+00  -5.37493880e-01
C     7.878486514340916e+00   4.167336159011051e+00  -1.328675999999973e-01  6.55271430e-01   9.09165310e-01  -3.75228280e-01
C     9.288874224423612e+00   4.004189620488835e+00  -3.518580000000071e-02 -5.95965030e-01   1.46329208e+00   1.55835760e-01
C     9.813032397853600e+00   2.718600509812878e+00   4.241250000000001e-02  1.75427900e+00  -6.06267820e-01   3.45281290e-01
C     1.121220029202580e+01   2.582815268129476e+00   2.244411000000000e-01  1.27018851e+00  -9.85582990e-01  -4.36791690e-01
C     3.611966061095418e+00   4.703807458369999e+00  -1.065144000000018e-01  1.15607452e+00  -4.87393355e+00   9.09833850e-01
C     5.063914699750178e+00   4.541483776114006e+00  -1.969379999999994e-01 -1.19029969e+00  -6.45105950e-01   2.12583200e-02
C     5.618069457488352e+00   3.235807220723036e+00  -2.079236999999985e-01  1.00816480e+00   8.15914510e-01  -2.16237730e-01
C     7.027418693678813e+00   3.064985963312926e+00  -2.671977000000005e-01  9.89049690e-01  -7.17699990e-01   6.98287180e-01
C     7.647498223884448e+00   1.778138607422463e+00  -2.213630999999978e-01 -2.59128445e+00  -1.29541283e+00  -1.54644320e-01
C     9.015398867193928e+00   1.571817564565997e+00  -6.483180000000033e-02 -6.59312190e-01  -2.07624661e+00  -4.67220110e-01
C     9.547595623656571e+00   1.673987224866684e-01  -1.242386999999994e-01  2.01051550e-01   3.20496390e+00  -4.70885020e-01
C     2.746505518776545e+00   3.512989094373499e+00   1.696824000000000e-01  2.48429445e+00   2.11008670e+00  -8.81934330e-01
C     3.442700135280633e+00   2.285266887687506e+00   2.323272000000000e-01 -1.83369299e+00  -1.28285129e+00  -1.51876618e+00
C     4.841395424443520e+00   2.114137349964154e+00  -1.067004000000011e-01 -2.10125790e+00  -1.94529214e+00   1.62237895e+00
C     5.412055309086401e+00   7.684016614696448e-01  -1.147106999999998e-01 -4.24162062e+00   1.43574336e+00  -1.02135586e+00
C     6.724755558372066e+00   5.998365358056474e-01  -2.659260000000003e-01  4.63719868e+00   1.87501640e+00   2.57531880e-01
C     1.089899839272432e+00   1.282157177529865e+00   2.274015000000000e-01 -3.98488270e-01   2.81319400e-01  -1.67643639e+00
C     2.536666691981630e+00   1.159378517682975e+00   1.883019000000000e-01  8.79800880e-01  -1.96416918e+00  -4.91544320e-01
C     1.584271680407928e+01   9.133966588702290e+00   3.375092700000000e+00  1.84844949e+00   2.77180401e+00   6.33784110e-01
C     1.159974241668533e+01   8.736452105489935e+00   3.723969300000000e+00 -1.01584740e+00  -7.07282700e-01  -7.52494310e-01
C     1.301115173150340e+01   8.836071497591096e+00   3.619569900000000e+00  1.13745250e+00  -1.33267727e+00  -3.40432880e-01
C     1.391147045243620e+01   7.694500657742837e+00   3.538353000000000e+00 -1.47923495e+00  -1.42638510e-01   8.03837600e-01
C     7.488331711857939e+00   8.248353923365995e+00   3.503283600000000e+00 -6.17381452e+00  -5.48343730e-01  -2.54216810e-01
C     8.807874982976166e+00   8.431867526989976e+00   3.577635900000000e+00  1.30488632e+00  -4.66008260e-01  -3.91280310e-01
C     9.577135505090576e+00   7.277920437584678e+00   3.621048000000000e+00  2.12632307e+00  -2.68032473e+00  -2.31064650e-01
C     1.097611332576920e+01   7.448761235853762e+00   3.655771800000000e+00  3.05195773e+00  -1.36392454e+00  -7.37945870e-01
C     1.194140903042623e+01   6.285553454225557e+00   3.421227900000000e+00 -2.38468097e+00   1.53372324e+00   8.11167020e-01
C     1.335403985486084e+01   6.381133378569956e+00   3.476740200000000e+00 -2.37521240e-01   1.12958341e+00  -3.10662720e-01
C     4.562999001071635e+00   7.887643810565784e+00   3.595359000000000e+00 -2.80858180e-01  -1.56228024e+00  -6.56164420e-01
C     5.440098724391682e+00   6.761346571350150e+00   3.670925100000000e+00  1.17550960e-01   1.40228100e-02  -7.42496420e-01
C     6.881408888366565e+00   6.957104011948691e+00   3.631103100000000e+00 -7.92884550e-01  -1.99332305e+00  -8.64249400e-02
C     7.655965143820508e+00   5.736741078855725e+00   3.601230000000000e+00 -2.92075560e-01   3.30576850e-01   3.22231260e-01
C     9.071526796228060e+00   5.877559394448864e+00   3.526710900000000e+00 -1.31013619e+00   3.18279327e+00   2.59801650e-01
C     9.910599733062268e+00   4.803470956981417e+00   3.359375400000000e+00  1.40362960e+00  -9.25003500e-01   3.87059650e-01
C     1.133841247633300e+01   5.039416593404431e+00   3.249111600000000e+00 -8.03995300e-02  -1.84687893e+00   1.40617080e-01
C     1.218524495670704e+01   3.893020371061817e+00   3.130694100000000e+00  9.28758830e-01  -1.99809203e+00   1.81357193e+00
C     3.454936881988137e+00   5.232984155073954e+00   3.422221500000000e+00  1.06225430e-01   2.16006194e+00   8.49689690e-01
C     4.844441489172740e+00   5.457341131608294e+00   3.586150200000000e+00  1.02963768e+00  -8.76384000e-01  -8.54099900e-02
C     5.694155586858304e+00   4.280852358652555e+00   3.590160900000000e+00 -2.03011501e+00   9.22983460e-01   4.73500880e-01
C     7.029436115903396e+00   4.425435081149471e+00   3.637877400000000e+00  4.69031621e+00   9.83988780e-01  -5.35859020e-01
C     7.938643593140689e+00   3.290542190278013e+00   3.559329900000000e+00  8.19953660e-01   4.50058620e-01   3.53371100e-02
C     9.369211972280764e+00   3.475320087477610e+00   3.456240000000000e+00 -2.57497480e-01   4.35814300e-01  -8.71738390e-01
C     1.024065440358074e+01   2.350979725710657e+00   3.303242700000000e+00 -1.32442615e+00  -4.72743880e-01   7.17592060e-01
C     1.163108676066938e+01   2.558957461201282e+00   3.188476200000000e+00  8.76400470e-01  -1.19737561e+00   7.92613800e-02
C     2.887797547403821e+00   3.962887688754551e+00   3.393343500000000e+00 -1.32507589e+00   6.83580140e-01  -1.15408793e+00
C     3.744476995170918e+00   2.876645302263821e+00   3.494556000000000e+00 -6.04303170e-01  -3.60315865e+00   1.24659040e-01
C     5.181272671918057e+00   2.981784335663172e+00   3.617147400000000e+00 -2.34004962e+00  -2.78217110e-01  -5.79797120e-01
C     5.996531409264085e+00   1.817498456929860e+00   3.629323500000000e+00  1.05593968e+00   1.82522261e+00  -2.82512470e-01
C     7.447075395131138e+00   1.977111356787611e+00   3.543378900000000e+00 -1.78917262e+00  -1.44530414e+00   5.17653590e-01
C     8.263840215099769e+00   7.618744562620724e-01   3.504070200000000e+00 -1.27889370e-01   4.25522758e+00   5.63267220e-01
C     9.669310780850617e+00   1.022582269176941e+00   3.450316200000000e+00  2.17403600e-01  -1.19868418e+00  -1.21489819e+00
C     1.733279113405359e+00   1.328878906078152e+00   3.249834300000000e+00 -1.66655485e+00   1.56675361e+00   3.78529770e-01
C     3.112083893753594e+00   1.503671424342035e+00   3.443757900000000e+00  1.10571376e+00   2.58100498e+00  -6.23297140e-01
C     3.960064927326918e+00   4.105358602706634e-01   3.486661500000000e+00  2.04619082e+00   3.16511780e-01   1.19674039e+00
C     5.378086199507267e+00   5.821541986234936e-01   3.644448000000000e+00  2.17927600e-01  -1.46171963e+00  -1.33002670e-01
C     1.146754485137411e+00   7.345594991745401e-03   3.302083200000000e+00  1.54024524e+00   9.62600710e-01   6.90823060e-01
