64
Lattice="7.10842262195238 0 0 0 7.10842262195238 0 0 0 7.10842262195238 " PBC="1 1 1" Properties=species:S:1:pos:R:3:force:R:3 Energy="-514.54641795"
C     7.102629326648926e+00   1.389526020067120e-02   1.821789199589320e-02 -1.30579060e-01  -6.35231890e-01   3.53902800e-02
C     1.774393649602018e+00   1.784663116676905e+00   2.507140658074000e-04  9.33543170e-01   2.06692340e-01   9.88341000e-03
C     1.251786114959380e-02   1.789555701797799e+00   1.768007513804436e+00 -7.04409460e-01  -4.11021820e-01   8.78321430e-01
C     1.773711596451629e+00   7.106595186712850e+00   1.757515482017316e+00 -4.11765260e-01   5.97200260e-01   9.00362860e-01
C     8.906004797199172e-01   9.198599556556827e-01   9.051852569147283e-01  1.74910900e-01  -9.01844780e-01  -9.98637640e-01
C     2.669386779079963e+00   2.679225617912532e+00   8.877186541055430e-01 -3.00687920e-01  -7.43262980e-01   2.41662630e-01
C     8.612614605350339e-01   2.677385176211988e+00   2.676382177780305e+00  1.00943462e+00   7.05180900e-02  -3.37685150e-01
C     2.651567598508827e+00   8.709749067925854e-01   2.667196034312706e+00  1.66648570e-01   9.33641140e-01  -2.91954700e-02
C     3.569121795119260e+00   7.076342379800166e+00   2.319307698763120e-02 -9.57743370e-01   1.14868284e+00  -5.78155930e-01
C     5.327437472270909e+00   1.795571702029557e+00   2.871212739402540e-02 -1.94682400e-02  -1.38128184e+00  -1.13375538e+00
C     3.556126247969602e+00   1.778317214551353e+00   1.766939686558459e+00 -6.87438620e-01  -1.61565620e-01   5.30962350e-01
C     5.290914539017801e+00   2.194320303835660e-02   1.782187892836395e+00  1.11156893e+00  -7.62093300e-01   2.99943060e-01
C     4.413749333470815e+00   8.860890482199080e-01   8.897230160317045e-01  1.06100614e+00   3.02136970e-01   3.48946650e-01
C     6.239172429787705e+00   2.653711285518340e+00   8.597752315336443e-01 -4.73065630e-01   8.51598430e-01   1.43851706e+00
C     4.453528777294597e+00   2.668019829410138e+00   2.645526363376767e+00  2.24664600e-01  -2.85898020e-01   4.10841200e-01
C     6.226606231364295e+00   8.817389779133727e-01   2.673808146865377e+00 -6.80452530e-01   6.40082610e-01  -1.54410760e-01
C     1.432652820102660e-02   3.535798149634735e+00   2.781739023884600e-03  7.55742700e-02   1.01763716e+00  -8.42500050e-01
C     1.795436997420908e+00   5.332915293826107e+00   7.104636247607231e+00 -5.35436980e-01  -3.50210100e-01  -1.17455560e-01
C     1.398297813580200e-02   5.349267153800024e+00   1.784325537686682e+00 -1.30186583e+00  -7.97759830e-01  -7.81339060e-01
C     1.769216798660550e+00   3.556062058913343e+00   1.772132247113917e+00  5.45223470e-01   2.53479710e-01   2.88258670e-01
C     9.075385713073055e-01   4.445566633117935e+00   8.731902467021084e-01 -6.76541810e-01   3.19594600e-02   6.96510160e-01
C     2.658569110452621e+00   6.216114057408723e+00   9.013474906264166e-01  1.18375940e-01   5.70932000e-03  -7.02424250e-01
C     8.525220814291011e-01   6.240387898971499e+00   2.641834675173296e+00  1.59888999e+00  -6.58361970e-01   8.96139900e-01
C     2.691962134141917e+00   4.443319305306622e+00   2.652005264089540e+00 -1.30978050e+00  -8.70681800e-02   7.32868400e-02
C     3.563918856266776e+00   3.532106106010134e+00   1.171773709948660e-02 -4.16301240e-01   1.08979672e+00  -7.38225720e-01
C     5.330769971879391e+00   5.337412224143971e+00   7.082942479118610e+00 -7.87759000e-03  -3.57350520e-01   6.30597900e-01
C     3.549615146102360e+00   5.346406013695474e+00   1.759006260409182e+00  1.57748210e-01  -6.54844490e-01   9.74890280e-01
C     5.343903067006746e+00   3.567667127514302e+00   1.765106993038571e+00 -2.44712140e-01  -1.61698620e-01   4.95845200e-02
C     4.435070336277243e+00   4.460452807431834e+00   8.909114732095421e-01  6.37021490e-01  -5.54173490e-01  -8.09002700e-01
C     6.189943120017121e+00   6.222851420367959e+00   9.011407066124008e-01  7.63315240e-01   3.05631640e-01  -4.58722560e-01
C     4.419949868353788e+00   6.221134025462967e+00   2.672207685512484e+00  7.50787550e-01   3.19286390e-01  -3.88035830e-01
C     6.203741847838613e+00   4.449083240872276e+00   2.667324910014806e+00  9.77210160e-01   1.95604240e-01  -6.83679200e-02
C     7.086400158049430e+00   7.084474344193220e+00   3.556743756642601e+00  5.19440170e-01   1.04674859e+00   9.52307400e-02
C     1.752686304026193e+00   1.796330455060016e+00   3.576603907516393e+00  4.27727860e-01  -1.56979730e+00  -8.48464690e-01
C     1.000538917455480e-02   1.760424319637646e+00   5.349445433039334e+00 -2.07589390e-01   5.93307250e-01  -1.73973610e-01
C     1.790136673178532e+00   7.104746357073615e+00   5.361048724534638e+00  3.18705900e-02  -5.26119300e-01  -8.87990350e-01
C     8.881350655026226e-01   8.677046769662544e-01   4.465032266536316e+00 -1.35822170e-01   3.86786890e-01  -1.89541220e-01
C     2.671354319376954e+00   2.636191440623731e+00   4.432032551870586e+00 -3.32270270e-01   1.35465965e+00   4.17611150e-01
C     9.183317158766089e-01   2.693389718656692e+00   6.206334076315448e+00 -8.80112660e-01  -1.45000754e+00   3.31308830e-01
C     2.699293192558375e+00   8.788618438579278e-01   6.249627853198332e+00 -1.22334046e+00  -5.37340000e-04  -5.58710730e-01
C     3.559209384112574e+00   7.101326850372263e+00   3.549263137014218e+00 -9.27459170e-01   1.93121700e-01   2.79810000e-01
C     5.348898582087177e+00   1.791911361969841e+00   3.572989061361445e+00 -3.78428750e-01  -3.24281920e-01  -6.33121790e-01
C     3.561152826856882e+00   1.770797569682786e+00   5.337925381172909e+00 -2.59640940e-01  -1.26401130e-01   1.32222230e-01
C     5.310407397694817e+00   1.502365120737000e-03   5.352938867335932e+00  1.98591970e-01   1.29877860e-01  -5.10370940e-01
C     4.417848760795769e+00   8.935715160381724e-01   4.449431411412203e+00  1.29587757e+00  -1.47073020e-01  -1.10912400e-01
C     6.246953806777141e+00   2.684911574082044e+00   4.455080190531412e+00 -7.21360370e-01  -1.02476987e+00   9.27138500e-02
C     4.455680141400539e+00   2.651395503597196e+00   6.222147828697032e+00 -2.87002290e-01   4.56080540e-01   2.84545720e-01
C     6.208810295335125e+00   8.776307361443700e-01   6.249992870699869e+00  1.65266540e-01   6.32741310e-01  -5.61398490e-01
C     3.150595073636400e-03   3.567933835531005e+00   3.556217306863364e+00 -3.93637240e-01   1.91050230e-01  -3.40186700e-02
C     1.789364129808190e+00   5.346907441827089e+00   3.546206799624523e+00 -6.16053350e-01  -6.14477790e-01  -8.19211640e-01
C     1.732635363089280e-02   5.318721693128075e+00   5.313333437697888e+00 -7.98302430e-01   5.54314640e-01   5.62888920e-01
C     1.769287029876036e+00   3.568371430027492e+00   5.310323447223675e+00  8.69341490e-01  -3.68981800e-01   1.80687900e-01
C     8.970729117681058e-01   4.461892476265063e+00   4.428263239692105e+00  1.24948840e-01  -3.75965920e-01  -3.00208930e-01
C     2.665049646102597e+00   6.187010042675658e+00   4.412196569633702e+00  3.91578280e-01   1.40443522e+00   1.48931240e+00
C     8.870622623608122e-01   6.205978797352900e+00   6.231030229266079e+00  1.68156100e-01   6.67877810e-01  -3.23178100e-02
C     2.661536663643793e+00   4.435413957426693e+00   6.203820609161242e+00  7.81831610e-01  -5.20333800e-02   2.26178840e-01
C     3.554981010001293e+00   3.533985288613957e+00   3.530071533287837e+00  3.80517800e-01   5.17647190e-01   4.27449550e-01
C     5.329971127345355e+00   5.341281693997169e+00   3.560331661875820e+00 -4.84779310e-01  -4.14062940e-01  -5.09517980e-01
C     3.573565767688605e+00   5.306189970554371e+00   5.310594064872819e+00 -1.13553082e+00   5.45784380e-01   2.93272520e-01
C     5.337017706688561e+00   3.537257650967073e+00   5.348998242172309e+00  1.29807130e-01   5.58353940e-01  -1.01677357e+00
C     4.446532383415088e+00   4.444004912668321e+00   4.425579312563471e+00  2.21189430e-01  -9.56914310e-01   5.49359760e-01
C     6.196904185036209e+00   6.220727423689103e+00   4.443609684370649e+00  5.45868460e-01  -1.73198450e-01   4.16212010e-01
C     4.413743504564266e+00   6.222676553171507e+00   6.217537376869925e+00  1.20520776e+00  -7.57062590e-01  -1.51557700e-01
C     6.231616034374192e+00   4.423990437939449e+00   6.194976736242795e+00 -1.39113620e-01   5.62719290e-01   1.01496316e+00
