64
Lattice="7.10842262195238 0 0 0 7.10842262195238 0 0 0 7.10842262195238 " PBC="1 1 1" Properties=species:S:1:pos:R:3:force:R:3 Energy="-513.13973016"
C     7.097814578755721e+00   7.107816626971645e+00   7.078943280552598e+00  6.06316410e-01  -6.98799900e-01   8.84421750e-01
C     1.727476141035910e+00   1.764673663595656e+00   7.097307819307141e+00  1.79681377e+00   4.40542830e-01   1.07397577e+00
C     7.097457664855971e+00   1.776371354943354e+00   1.789204119215014e+00  3.53861430e-01  -5.83843900e-02  -1.02814801e+00
C     1.786908596298337e+00   7.096118153697458e+00   1.786363948957193e+00 -5.72753750e-01   5.67537000e-01  -4.65411400e-01
C     8.615920732710901e-01   8.664865065818650e-01   8.666792870033194e-01  5.30433150e-01   6.85961490e-01   7.96745730e-01
C     2.684635554031709e+00   2.664278097911422e+00   9.216613721160430e-01 -1.47401613e+00   7.06955200e-01  -1.88989179e+00
C     8.990692411767066e-01   2.650461883370285e+00   2.648998045900149e+00 -4.83302950e-01   5.16222710e-01   3.02114970e-01
C     2.689930689125573e+00   9.181354523280706e-01   2.666931529907016e+00 -1.16112546e+00  -1.30737447e+00   3.25631110e-01
C     3.575986114506489e+00   3.609123874739500e-02   7.072261150037119e+00 -1.13745535e+00  -1.00513503e+00   2.30227388e+00
C     5.332233382844170e+00   1.818732648946946e+00   7.063879608925877e+00  1.06647084e+00  -1.56800341e+00   1.82949435e+00
C     3.530188466839936e+00   1.829093601420953e+00   1.797773393767650e+00  1.33931595e+00  -2.19008030e+00   7.38537300e-02
C     5.366409541453511e+00   7.087349487890331e+00   1.776238072019229e+00 -1.85647508e+00   1.36545714e+00   1.52016770e-01
C     4.445947715654593e+00   8.947759671669051e-01   9.077145758513767e-01  1.65293020e-01   1.07848083e+00  -9.87259010e-01
C     6.228337132272265e+00   2.728868424626921e+00   8.931521901878186e-01  8.40016300e-02  -2.78136436e+00  -4.15486820e-01
C     4.430139792179559e+00   2.653854946739490e+00   2.707147999553475e+00 -3.16300000e-04   5.59781460e-01  -1.43242308e+00
C     6.228504677793419e+00   8.760783988126144e-01   2.679805665198324e+00 -7.70111160e-01   6.90877100e-01  -6.85240120e-01
C     7.104248838574440e+00   3.605454649151508e+00   3.564298161697780e-02  4.82088650e-01  -6.79672590e-01  -1.80444592e+00
C     1.783837331221140e+00   5.332854232475801e+00   7.067998726581489e+00  2.13047110e-01   3.90369410e-01   1.23853535e+00
C     2.284170765752460e-02   5.375340634717505e+00   1.782856724320711e+00 -1.20173132e+00  -1.55910185e+00  -7.10157760e-01
C     1.757873248927780e+00   3.590539827894450e+00   1.756750686827630e+00  1.13627853e+00  -1.60778807e+00   9.49433680e-01
C     9.127709390294351e-01   4.462719185815769e+00   8.714670228905680e-01 -8.54376540e-01   7.82604120e-01   3.86758160e-01
C     2.653365602926329e+00   6.204164870068730e+00   9.076174037141614e-01  7.79203340e-01   4.86276530e-01  -1.24099790e+00
C     8.494315525266037e-01   6.224211048362486e+00   2.663658385627410e+00  2.18900655e+00   2.61055610e-01   9.41966040e-01
C     2.657371056904247e+00   4.418722243767315e+00   2.690199956174419e+00 -2.61430320e-01   1.30790752e+00  -9.54567890e-01
C     3.595372986602241e+00   3.524305109774267e+00   2.346277054183400e-03 -1.44315613e+00   6.09684710e-01  -3.94660160e-01
C     5.346732787883315e+00   5.256667296182260e+00   1.821426670035700e-02 -1.39823311e+00   3.80541035e+00   5.59203960e-01
C     3.542531745129983e+00   5.306121871865672e+00   1.784457398926283e+00  7.85124670e-01   1.34284200e-01  -3.02010390e-01
C     5.339943106933596e+00   3.515986691455891e+00   1.777902935681059e+00 -6.89876890e-01   1.14724679e+00   1.05806706e+00
C     4.468300363835862e+00   4.373981334207451e+00   8.765142872876728e-01 -7.05168830e-01   1.55926543e+00   1.25542045e+00
C     6.210990022047322e+00   6.257339923067222e+00   8.831024444561150e-01  8.64276590e-01  -2.47134940e+00  -7.79128800e-02
C     4.444760111487470e+00   6.221247404803756e+00   2.666474316164097e+00  1.04769400e-01  -4.66354500e-01  -2.12336190e-01
C     6.209029519088727e+00   4.410708634610883e+00   2.677562531356357e+00  7.50537250e-01   1.49748215e+00  -1.20228362e+00
C     4.475462881552000e-03   2.555058534955420e-02   3.554152949850290e+00 -5.17465940e-01  -1.19314014e+00   2.15103480e-01
C     1.773946814156124e+00   1.736269686322207e+00   3.574256777451495e+00  7.25254630e-01   2.50781697e+00  -1.88683760e+00
C     7.088707054442299e+00   1.762105177250371e+00   5.317512123935055e+00  1.36160587e+00   5.90978230e-01  -1.99555400e-01
C     1.769141307212326e+00   3.000493621592480e-02   5.291117555567828e+00 -2.95205050e-01  -7.98756510e-01   1.41095259e+00
C     8.923618046767009e-01   9.021299857884261e-01   4.395036055502534e+00 -6.08472540e-01  -6.68509330e-01   1.89740322e+00
C     2.675017502805718e+00   2.657220002923572e+00   4.433214966889197e+00 -8.09741130e-01  -2.51720680e-01   7.42117840e-01
C     9.193440974261491e-01   2.671738671788017e+00   6.212729168725531e+00 -2.51522914e+00  -5.79255780e-01   1.11193957e+00
C     2.632595929378308e+00   9.199761072812934e-01   6.216424411140312e+00  1.02487932e+00  -7.22089560e-01  -6.09420250e-01
C     3.558724660774117e+00   2.582084757756660e-02   3.575234540982876e+00  1.01961700e-01  -1.40225313e+00  -7.38825340e-01
C     5.304952109839324e+00   1.764504483137300e+00   3.548078660553048e+00  6.12633460e-01  -4.28773860e-01   7.44098660e-01
C     3.547829297087538e+00   1.784204410165237e+00   5.308180826477555e+00  3.41926020e-01  -8.68338300e-02   9.62727270e-01
C     5.355997337252414e+00   1.616014581585560e-02   5.340216425783336e+00 -1.39800265e+00  -1.55346952e+00   2.54453150e-01
C     4.431948459230991e+00   8.632710826939342e-01   4.458093166543125e+00  6.10170760e-01   1.13971863e+00  -3.25961700e-02
C     6.221340169718947e+00   2.645316522741024e+00   4.420914623471775e+00 -4.72641850e-01   3.80324430e-01   4.46805140e-01
C     4.467297081067275e+00   2.672672576351832e+00   6.199046592529650e+00 -8.10730310e-01  -1.98751020e-01  -5.99111740e-01
C     6.247770066946595e+00   8.466939568071893e-01   6.206856403209566e+00 -1.05267169e+00   2.66495508e+00  -5.95212900e-02
C     7.090939383481883e+00   3.543489107488444e+00   3.527996300388154e+00  1.17422104e+00  -5.44191960e-01   1.37300390e+00
C     1.795628711578970e+00   5.336334658359005e+00   3.556966250270607e+00 -1.50356236e+00  -3.91884720e-01   1.04227216e+00
C     7.090422672241636e+00   5.338209220488126e+00   5.359495605276394e+00  6.37959790e-01   3.80958500e-02  -1.02591319e+00
C     1.783504017284488e+00   3.503701488978650e+00   5.363028064813177e+00  4.47667560e-01   1.89580966e+00  -1.27320834e+00
C     8.809473128861834e-01   4.400630526272926e+00   4.497363362970410e+00 -1.47808660e-01   1.04520824e+00  -1.86537293e+00
C     2.650582726554825e+00   6.239889527461610e+00   4.471343053054126e+00  8.45825710e-01  -5.30251330e-01  -1.31037537e+00
C     8.947390744535074e-01   6.210811529555334e+00   6.197274249517806e+00 -2.54803930e-01   9.12718760e-01   2.44543960e-01
C     2.675476706906970e+00   4.466553895482354e+00   6.204019005236566e+00  2.66629300e-02  -2.22086396e+00   1.12306544e+00
C     3.518547998294329e+00   3.558475865982416e+00   3.568945008648700e+00  1.40689420e+00  -4.03715290e-01  -3.55486410e-01
C     5.343096829713185e+00   5.318881774805477e+00   3.526719059011793e+00 -6.59017470e-01   6.11563700e-01   1.29353302e+00
C     3.539703517022163e+00   5.313399688196706e+00   5.357672010537460e+00  1.31130705e+00   1.53463886e+00  -1.26085429e+00
C     5.341966945937736e+00   3.557684272039453e+00   5.301003238905462e+00 -1.14707260e-01   3.63195320e-01   3.83371730e-01
C     4.451638932056844e+00   4.441414745634046e+00   4.411865317139609e+00 -8.39137510e-01   1.91414660e-01   1.14835397e+00
C     6.208751437595832e+00   6.234228806192400e+00   4.478090581057709e+00  8.21746230e-01  -5.26842350e-01  -1.78865933e+00
C     4.454601864773312e+00   6.214665360878766e+00   6.266669301250616e+00 -2.57630000e-01  -2.84366820e-01  -1.43567456e+00
C     6.192339582535002e+00   4.509540233086923e+00   6.221602612682077e+00  1.57513032e+00  -3.28819382e+00  -2.88425690e-01
