64
Lattice="7.10842262195238 0 0 0 7.10842262195238 0 0 0 7.10842262195238 " PBC="1 1 1" Properties=species:S:1:pos:R:3:force:R:3 Energy="-514.26705189"
C     1.507326799725760e-02   1.228122176057400e-03   7.076663396165686e+00 -7.81596930e-01  -5.34431790e-01   9.59058260e-01
C     1.766405346430114e+00   1.786900563780777e+00   7.094964243453554e+00  3.44383040e-01   9.91858700e-02   8.91140960e-01
C     7.102012955323546e+00   1.776575082335643e+00   1.750332278791353e+00  1.23550100e-02  -5.81166220e-01   5.85966670e-01
C     1.799025258075258e+00   7.088646988271160e+00   1.786733089343849e+00 -1.12925155e+00   4.88053380e-01  -8.22897090e-01
C     8.868726096453106e-01   8.881229811841685e-01   8.787591271510687e-01  3.76887050e-01  -4.50091710e-01  -3.56916600e-02
C     2.645284463755008e+00   2.686828146988848e+00   8.995291561202207e-01  1.64248630e-01  -7.09677550e-01  -6.22922800e-02
C     8.429718445549050e-01   2.643437624474106e+00   2.681578861220883e+00  9.02316610e-01   5.34918720e-01   1.77094100e-02
C     2.645158147085051e+00   8.795204392136707e-01   2.636825085416077e+00  1.60315356e+00   8.39261000e-01   7.87051270e-01
C     3.524784786132665e+00   7.101359406947862e+00   7.963139355828800e-03  1.46997135e+00   9.23239330e-01  -6.30458590e-01
C     5.336169245364638e+00   1.781647794885728e+00   7.086100538035997e+00 -8.01846620e-01  -1.86193990e-01   2.28135350e-01
C     3.555519828435890e+00   1.779631988399148e+00   1.761098411354701e+00 -2.18644980e-01   4.36337870e-01   1.10284220e-01
C     5.345028614644397e+00   2.677387379823000e-02   1.761250034009185e+00 -5.20570350e-01  -1.30640890e+00  -5.27291400e-01
C     4.431929764079500e+00   9.029540652227628e-01   8.555222622800984e-01  2.37131010e-01  -3.18979510e-01   1.06991830e+00
C     6.237597985261601e+00   2.636747603609519e+00   8.421888518033120e-01 -5.36551060e-01   9.75593340e-01   1.34246038e+00
C     4.485278404758374e+00   2.656024224070435e+00   2.671281458045099e+00 -1.50273442e+00  -1.36751710e-01  -8.85221100e-02
C     6.207626174295086e+00   8.866430786789108e-01   2.654359857998189e+00  1.02802241e+00  -2.45939180e-01   1.11748340e-01
C     7.097911466556032e+00   3.555253618008771e+00   7.100188649742349e+00  4.35700050e-01   1.35156320e-01   2.66252030e-01
C     1.802961902522214e+00   5.313577967436015e+00   4.102483946680600e-02 -9.99590670e-01   2.47525550e-01  -1.27341331e+00
C     7.103561738443991e+00   5.313395565311587e+00   1.801510789128567e+00 -6.90778200e-02   8.21928480e-01  -1.00023753e+00
C     1.744796239254897e+00   3.543993450073333e+00   1.845930611238685e+00  6.40112570e-01   3.40847530e-01  -2.21754451e+00
C     8.709813043729434e-01   4.439017785526581e+00   9.119689667894468e-01  5.05511600e-01  -2.67463790e-01   2.00930720e-01
C     2.687170772959132e+00   6.230867304219628e+00   8.874637460703898e-01 -5.09860620e-01  -8.87910750e-01   7.80645980e-01
C     8.952695760336380e-01   6.211457685171492e+00   2.669704099065720e+00 -3.27999750e-01  -2.18589310e-01  -7.63941500e-02
C     2.656916260025019e+00   4.456841515488195e+00   2.673923018974917e+00  7.91857900e-02  -7.45384600e-02   2.45607570e-01
C     3.535933849422551e+00   3.548132897817638e+00   7.089882361038289e+00  3.98199540e-01   3.40148690e-01   1.42021500e+00
C     5.307860592038524e+00   5.308066025452242e+00   7.103049221173089e+00  3.81393180e-01   8.23206140e-01   2.20322640e-01
C     3.579292952709312e+00   5.349820189079860e+00   1.800660337446311e+00 -7.11366580e-01  -9.57225690e-01  -7.59635030e-01
C     5.370409450861785e+00   3.517482801164722e+00   1.775030990774127e+00 -9.09624540e-01   8.53020200e-01   8.33712000e-02
C     4.437645931045147e+00   4.422332042942203e+00   9.196577921163697e-01  2.31248900e-01   2.12610910e-01  -1.08924693e+00
C     6.206719210653000e+00   6.209738868581976e+00   8.591990227960672e-01  6.88238370e-01   2.70842250e-01   8.97851990e-01
C     4.471456858900273e+00   6.208743262909818e+00   2.660354604046313e+00  1.28632450e-01   1.30210161e+00   2.97396500e-02
C     6.230122341529052e+00   4.437426067533511e+00   2.686525612522141e+00 -1.88840620e-01  -9.57202800e-02  -3.42824550e-01
C     5.784194570120200e-03   7.087570062244230e+00   3.550541728990877e+00 -2.11722270e-01   6.81065220e-01   3.44415490e-01
C     1.755757355850711e+00   1.766693664051581e+00   3.546421758324551e+00  1.12285680e-01  -2.12755830e-01   2.04224890e-01
C     1.665489203020760e-02   1.777508631478328e+00   5.359991275585687e+00 -6.74125690e-01   5.00791600e-02  -1.04166974e+00
C     1.814086726090966e+00   7.102962285164447e+00   5.334560467157280e+00 -6.23078950e-01  -2.18363000e-01  -4.31616680e-01
C     9.026816704679643e-01   8.627611955394016e-01   4.453416748554106e+00 -3.02436580e-01   6.50357160e-01   3.55118000e-03
C     2.620938756039544e+00   2.680081614164432e+00   4.431884696680090e+00  1.24758238e+00  -1.43962900e-02   2.23018800e-02
C     8.797514629488208e-01   2.694756526158065e+00   6.224960347190860e+00  3.67555350e-01  -1.11357655e+00  -1.06746860e-01
C     2.687728073292540e+00   8.946403384633155e-01   6.230570740827922e+00 -1.18004666e+00   3.28189470e-01  -5.90152210e-01
C     3.613650518263916e+00   3.971397525145180e-02   3.507014156088021e+00 -1.89999028e+00  -1.23816284e+00   1.44307571e+00
C     5.350535580732337e+00   1.747038733338829e+00   3.570504241150398e+00  1.29609860e-01   1.65774200e+00  -4.72368070e-01
C     3.535823384535036e+00   1.820461132991225e+00   5.330241389573367e+00  7.89414390e-01  -1.29045469e+00  -2.68336330e-01
C     5.329729512060501e+00   1.456785914897560e-02   5.324187146027914e+00 -1.87817500e-01  -4.02557300e-02   1.01530375e+00
C     4.477493473557629e+00   9.108857142663850e-01   4.449596326816986e+00 -1.50130193e+00  -2.17500920e-01  -4.80192840e-01
C     6.227703203143014e+00   2.668726975292375e+00   4.444498521535054e+00 -4.39845950e-01  -6.42932200e-01   8.43954770e-01
C     4.442143927626405e+00   2.680583753138309e+00   6.216512555580800e+00 -4.48003570e-01  -8.31550700e-02  -2.63238900e-02
C     6.199179520032644e+00   8.965999173269710e-01   6.232895123940435e+00  1.25294954e+00  -3.03078260e-01  -1.02477169e+00
C     7.087527340624283e+00   3.551038536647789e+00   3.583981099595655e+00  3.25738780e-01  -1.94817000e-01  -6.33282260e-01
C     1.763388887291317e+00   5.326783141968738e+00   3.560309412513019e+00  3.85331460e-01   2.19637610e-01   6.32073600e-02
C     9.418020213464200e-03   5.337151487202270e+00   5.342379660955054e+00 -8.71801480e-01  -4.73938120e-01  -2.22049330e-01
C     1.755694019805167e+00   3.564205112445684e+00   5.336551251996237e+00  4.31210900e-02  -7.73944100e-02  -2.44091090e-01
C     8.594259236460976e-01   4.433959005484832e+00   4.456284712744371e+00  8.95422840e-01   5.92023230e-01  -2.33816710e-01
C     2.679220286595567e+00   6.220569403454260e+00   4.415227458870418e+00  3.98766910e-01   3.94745350e-01   3.38652510e-01
C     8.891040145899547e-01   6.201042424348667e+00   6.201580745193681e+00  1.15667888e+00   6.51332960e-01   1.07619692e+00
C     2.661627082779519e+00   4.426359888451374e+00   6.213961555955160e+00  2.78798470e-01   9.48228060e-01  -1.86542800e-02
C     3.552057671198818e+00   3.592113632662519e+00   3.550697048025124e+00  1.84456330e-01  -1.61397802e+00  -1.24515280e-01
C     5.348253705987091e+00   5.341569798365957e+00   3.571268467666274e+00 -3.13654480e-01  -6.11658150e-01  -4.51125560e-01
C     3.567529153031249e+00   5.337442790361237e+00   5.297937020808326e+00 -6.41209280e-01  -1.58605200e-02   8.99521120e-01
C     5.312757371128763e+00   3.562961991497898e+00   5.342960632335786e+00  8.38855740e-01  -4.49615820e-01  -8.83293210e-01
C     4.451563867113977e+00   4.435779401433588e+00   4.429268299566346e+00 -2.22320460e-01   8.18320210e-01   6.06784800e-01
C     6.209411454636099e+00   6.225944863723730e+00   4.471600377952971e+00  7.17713020e-01  -1.79405250e-01  -9.19186600e-01
C     4.418724447378327e+00   6.247007688620600e+00   6.220144746286941e+00  4.83521760e-01  -1.36301422e+00  -4.08024030e-01
C     6.218429057403378e+00   4.430853548894833e+00   6.213195125828272e+00 -4.84086660e-01   6.81959510e-01   3.74064290e-01
