64
Lattice="7.10842262195238 0 0 0 7.10842262195238 0 0 0 7.10842262195238 " PBC="1 1 1" Properties=species:S:1:pos:R:3:force:R:3 Energy="-510.17304559"
C     7.009580358890030e+00   7.040701672878426e+00   1.481189129752020e-02  3.16194954e+00   2.30019845e+00   8.72592230e-01
C     1.743616667605335e+00   1.808207207573512e+00   1.743760044489580e-02  1.00069455e+00  -1.82149090e+00  -1.13996928e+00
C     3.921915795287360e-02   1.750520154401200e+00   1.824130714000348e+00 -1.74389693e+00   9.67820960e-01   4.95476720e-01
C     1.771117519784912e+00   2.244086370598280e-02   1.734695099627651e+00  6.93254270e-01  -7.03472920e-01   1.37497608e+00
C     8.381385436786621e-01   9.010771573141780e-01   9.179868152110863e-01  1.41425565e+00  -8.11472380e-01  -1.43358480e+00
C     2.709256357702567e+00   2.660713437220171e+00   8.576804504717566e-01 -2.12061515e+00  -7.48564400e-01   1.02544128e+00
C     9.542094886927251e-01   2.681461643331879e+00   2.672309904629760e+00 -4.92518360e-01  -1.60084394e+00  -3.95059810e-01
C     2.676859366190786e+00   8.797158497514945e-01   2.706009870007787e+00 -9.84503220e-01   3.99694220e-01  -1.67262200e+00
C     3.611734442946695e+00   7.104464508116731e+00   7.090861404085742e+00 -1.96090161e+00   3.73528810e-01   1.01065660e-01
C     5.371453251639306e+00   1.848657757576848e+00   8.451999796251440e-02 -5.04350980e-01  -2.17103679e+00  -2.73644971e+00
C     3.556659024244971e+00   1.799003719554719e+00   1.778905010017801e+00 -4.77172380e-01  -1.25366302e+00   3.32077300e-01
C     5.302179327427941e+00   7.052225847629971e+00   1.812944189323254e+00  5.34560990e-01   1.69133165e+00  -2.12901730e-01
C     4.454035181322046e+00   9.110093297357468e-01   9.065576800699718e-01  7.83608410e-01  -4.80776490e-01  -6.89636800e-02
C     6.216006862395613e+00   2.714150435592211e+00   9.704324729645416e-01  7.03456200e-02  -1.02522110e+00  -8.36681000e-03
C     4.372957365929040e+00   2.700006167347162e+00   2.675463627409349e+00  1.95597764e+00  -1.65930300e-01  -9.50141420e-01
C     6.253560090423263e+00   8.225619993599086e-01   2.736097903684140e+00 -1.60462272e+00   2.12818249e+00  -3.18796366e+00
C     7.023263717012400e-03   3.539894093832606e+00   5.196512838434320e-02 -1.62374082e+00   3.36838080e-01  -1.39811991e+00
C     1.751618476780216e+00   5.355378477979116e+00   7.021412612677926e+00  8.84998470e-01  -1.12895389e+00   2.59875864e+00
C     4.388896510885640e-02   5.362041202500842e+00   1.756044180703428e+00  2.14348100e-02  -2.56613141e+00   1.85213687e+00
C     1.794420919491606e+00   3.528775881096890e+00   1.720039806880450e+00  1.04295390e-01   2.06748170e+00   2.01492691e+00
C     8.660989553806225e-01   4.464503755314520e+00   8.821830410744441e-01  2.01159796e+00  -8.58717390e-01  -1.20251583e+00
C     2.653932926135631e+00   6.192287975386781e+00   8.622195337357575e-01 -3.99297170e-01   1.51937073e+00  -1.65694846e+00
C     9.274413016325911e-01   6.223065597141499e+00   2.630973716252198e+00 -1.34481570e-01   9.80084300e-01   1.25742424e+00
C     2.675058447320009e+00   4.454410790373286e+00   2.671906075140718e+00 -7.69331470e-01  -8.47267260e-01  -5.45623420e-01
C     3.580337677581774e+00   3.473213180024564e+00   7.101863323027395e+00 -1.27778440e-01   3.07261834e+00  -9.07397540e-01
C     5.362782682064334e+00   5.360804052628057e+00   2.266740913488220e-02 -1.09274788e+00  -2.96683907e+00  -9.86404840e-01
C     3.498213289126426e+00   5.300327227914300e+00   1.681267057868112e+00  6.99682120e-01   7.78000100e-01   3.25747293e+00
C     5.262223879060088e+00   3.632818522027198e+00   1.847163567142124e+00  2.59879981e+00  -1.49624875e+00  -1.82767583e+00
C     4.433570956694006e+00   4.437497222843937e+00   8.581537292497963e-01  5.71380000e-03   4.49576840e-01   6.03718840e-01
C     6.239260858565098e+00   6.127391631077490e+00   9.414205833886307e-01 -2.20142261e+00   3.64347041e+00  -1.26300915e+00
C     4.309342528049683e+00   6.254926613587733e+00   2.654581427531254e+00  3.33416415e+00  -1.85235229e+00  -3.04592140e-01
C     6.283606681995741e+00   4.464463308389812e+00   2.661972694287304e+00 -2.40345318e+00   8.38814300e-02   5.69128010e-01
C     9.650394548912001e-03   7.060852771490055e+00   3.557900723508232e+00  9.86924840e-01   1.25046103e+00   3.79125310e-01
C     1.811052993485203e+00   1.756924487760689e+00   3.576538723280967e+00 -8.37234200e-01  -4.24738630e-01  -6.26480740e-01
C     7.094767624483885e+00   1.730066805659769e+00   5.252927128536522e+00 -1.43924347e+00   1.65398611e+00   3.44688067e+00
C     1.688487722481282e+00   5.589836078844160e-02   5.400841034603362e+00  3.09797322e+00  -1.09057136e+00  -1.58503827e+00
C     8.910881175116493e-01   9.095261573560838e-01   4.478382310722034e+00 -7.02939200e-02  -1.66782462e+00  -2.58053497e+00
C     2.690721714394727e+00   2.544384954054585e+00   4.454377309702746e+00 -7.80080710e-01   4.46317491e+00   4.82646660e-01
C     8.331199973089422e-01   2.617136816201237e+00   6.228532045220506e+00  7.48314140e-01   2.04884563e+00  -6.90513800e-01
C     2.655806990675168e+00   8.964605211593927e-01   6.188474519903829e+00  1.07183883e+00   3.05077000e-03   2.21884224e+00
C     3.523715963707521e+00   2.119354878885140e-02   3.620313171701415e+00  3.75002310e-01  -1.33161010e-01  -1.59705976e+00
C     5.308401827336811e+00   1.824745379304299e+00   3.471362360026995e+00  6.94594930e-01  -2.05062955e+00   1.62089995e+00
C     3.635566780380542e+00   1.759651918435757e+00   5.310316196632603e+00 -1.91618063e+00  -7.96011000e-03   9.57433860e-01
C     5.346762714342546e+00   7.075510623269400e-03   5.304402344433893e+00  1.92996260e-01   3.79364330e-01  -4.43475500e-02
C     4.482549836735688e+00   9.369943818758354e-01   4.377644162215085e+00 -5.36346830e-01  -1.79148142e+00   2.10589902e+00
C     6.171709376238785e+00   2.640625958990992e+00   4.364543197157972e+00  2.65236781e+00   1.75071325e+00   1.39353317e+00
C     4.478343498734529e+00   2.684251628126003e+00   6.206478021873504e+00  6.73010720e-01  -7.25253310e-01  -2.36579380e-01
C     6.245076188026293e+00   8.489801676902338e-01   6.230269983466869e+00 -1.96790439e+00   1.43847311e+00  -2.95886940e-01
C     7.362498969706660e-02   3.523377176285452e+00   3.538723549879770e+00 -1.61033189e+00   2.32444624e+00   9.49935400e-02
C     1.841467161591361e+00   5.425104924374470e+00   3.586697583299888e+00 -1.69823974e+00  -2.94141434e+00  -1.41549332e+00
C     7.092696301216643e+00   5.323993939101102e+00   5.344035639088609e+00  4.67377690e-01   7.30663070e-01  -7.30503180e-01
C     1.736492535371345e+00   3.533888400813646e+00   5.324966086978614e+00  1.82052426e+00  -7.22148910e-01   7.12658890e-01
C     9.387894718400639e-01   4.505893896619768e+00   4.452934370995113e+00 -1.20745439e+00  -2.14157158e+00  -1.89195030e-01
C     2.660124646574556e+00   6.236905198393056e+00   4.525550533353949e+00 -2.45600900e-02   9.98065360e-01  -6.69435040e-01
C     8.501703308895003e-01   6.273894230917358e+00   6.230227475099602e+00 -6.28035320e-01  -2.18048869e+00  -5.06682600e-02
C     2.680059578054311e+00   4.376610810818815e+00   6.219598819429725e+00 -8.51610590e-01   1.07718146e+00  -6.54016390e-01
C     3.510708687660540e+00   3.500167821010021e+00   3.588378440912613e+00  3.33938580e-01   1.92485853e+00  -7.95463470e-01
C     5.272588172492727e+00   5.363907661028176e+00   3.513111476674553e+00  1.25867933e+00  -3.43537810e-01   5.45282900e-01
C     3.567235077587459e+00   5.285668025534658e+00   5.327885018559064e+00 -4.62769940e-01   1.32918811e+00   1.33935211e+00
C     5.364396080746396e+00   3.621424786830731e+00   5.251896620509299e+00 -1.29876988e+00  -2.26260349e+00   2.09889982e+00
C     4.407184634097018e+00   4.468698151165676e+00   4.412110486635774e+00  1.21209349e+00  -1.15907696e+00  -1.01042810e-01
C     6.224581539349441e+00   6.231246254229500e+00   4.407189609992852e+00 -1.00979432e+00  -1.34117725e+00   1.31584482e+00
C     4.497619337268956e+00   6.212567452110926e+00   6.212677419408858e+00 -1.11259677e+00   4.01333370e-01  -2.12230000e-01
C     6.207135906386984e+00   4.422688530336596e+00   6.235136622845200e+00  1.26250657e+00   9.02300850e-01  -6.84768060e-01
