64
Lattice="7.10842262195238 0 0 0 7.10842262195238 0 0 0 7.10842262195238 " PBC="1 1 1" Properties=species:S:1:pos:R:3:force:R:3 Energy="-514.3853902"
C     7.103770797153246e+00   6.038533931463801e-03   3.152087842386600e-03 -5.99720000e-01  -2.74134100e-02  -7.70513880e-01
C     1.764753704434357e+00   1.789459951345107e+00   7.103530177047559e+00  5.20665170e-01  -7.72592930e-01   2.39104410e-01
C     7.094153456769517e+00   1.783740727757734e+00   1.786044425360424e+00  6.37728120e-01   2.99449660e-01  -7.05749210e-01
C     1.747576627678484e+00   7.107106779888812e+00   1.773253600782222e+00  1.12958083e+00   1.74862300e-01  -2.92210510e-01
C     8.631326106212965e-01   8.804125462524808e-01   8.575427603256072e-01  4.66176160e-01   8.60107770e-01   1.47455246e+00
C     2.677468415840868e+00   2.673668182023990e+00   9.110471465440853e-01 -2.70827320e-01  -4.87295430e-01  -1.36388204e+00
C     9.136702255750915e-01   2.673215659840001e+00   2.664015583864066e+00 -1.07762192e+00  -4.04005290e-01  -3.59257750e-01
C     2.666034375888145e+00   9.236389352889269e-01   2.674969663121485e+00 -4.09319910e-01  -1.80394661e+00   6.34189000e-03
C     3.563398377562540e+00   5.953730449607200e-03   4.069500865723800e-03 -7.09521380e-01  -5.83772280e-01   3.17013250e-01
C     5.345256368505141e+00   1.779895639794124e+00   5.452515570671000e-03 -3.82526000e-01  -1.49542250e-01   3.16202730e-01
C     3.543298601762228e+00   1.789775423140983e+00   1.795532392452469e+00  7.34453100e-01  -4.21400300e-01  -2.21461430e-01
C     5.364247301460959e+00   7.075150866000602e+00   1.804337879888767e+00 -1.79824743e+00   1.74652373e+00  -9.04802520e-01
C     4.436409065509267e+00   8.869000481566237e-01   9.022590747432054e-01  4.45187330e-01   9.07259200e-02   2.40391600e-02
C     6.222150174476496e+00   2.678741889753241e+00   8.986857417763576e-01  5.70943010e-01  -2.46490800e-01  -8.61555660e-01
C     4.452432729610820e+00   2.639621538874785e+00   2.694093736832976e+00 -6.29401270e-01   1.63742979e+00  -1.10265926e+00
C     6.208593630613668e+00   9.212365727802717e-01   2.665836690655083e+00  7.09612510e-01  -1.51779352e+00   1.57400990e-01
C     1.105487669017160e-02   3.564479995148400e+00   7.077354832433932e+00 -2.21041170e-01   1.41726550e-01   9.89156510e-01
C     1.775061343738714e+00   5.313392366521407e+00   7.092300859666293e+00  1.01617300e-01   1.33327225e+00   1.41964190e-01
C     7.097008128209483e+00   5.357260290699309e+00   1.775714607777492e+00  5.52496930e-01  -9.27503660e-01  -3.27172870e-01
C     1.796043416954620e+00   3.551296785641574e+00   1.752829538741986e+00 -8.00567220e-01   2.85806170e-01   1.06160535e+00
C     8.970297636428024e-01   4.457820985041005e+00   8.815440649651324e-01 -3.86086260e-01  -4.04119460e-01  -2.11161200e-01
C     2.664444577169183e+00   6.226809105745870e+00   8.717282574218530e-01 -6.72700500e-02  -5.39659150e-01   8.03237240e-01
C     8.748832597175138e-01   6.202762449370029e+00   2.663669972356281e+00  3.92603060e-01   1.37793143e+00  -7.79672800e-02
C     2.657112239236652e+00   4.419100767271829e+00   2.663446128127978e+00  6.83814160e-01   1.45917750e+00  -1.59239930e-01
C     3.556144800952640e+00   3.549046614461213e+00   7.106001704508307e+00  4.75911760e-01  -3.16421500e-01   2.15108050e-01
C     5.337732885088359e+00   5.303800971880242e+00   2.621159756898800e-03 -3.23311560e-01   1.17109699e+00   2.59929600e-01
C     3.561860399244477e+00   5.319999645346698e+00   1.784969560776054e+00 -5.31746700e-01   1.42203600e-01  -7.38923550e-01
C     5.353252633110380e+00   3.558117672566595e+00   1.770372628178562e+00 -6.82553070e-01  -4.71624500e-01   6.17415710e-01
C     4.451089522072544e+00   4.415942068596406e+00   8.873362209685870e-01 -9.81662000e-02   6.98634300e-01   2.23981460e-01
C     6.210797810299677e+00   6.242474078842017e+00   8.844838242238595e-01  5.60268240e-01  -1.24488942e+00   2.08532740e-01
C     4.438041514763951e+00   6.206219275290135e+00   2.660728009486542e+00  1.39979820e-01   2.76147340e-01   6.64067520e-01
C     6.229435383567055e+00   4.457043039269473e+00   2.658636213962154e+00 -3.38786080e-01  -2.99538760e-01  -1.40107920e-01
C     2.462002174437000e-02   2.745884140189320e-02   3.545526950085146e+00 -1.63379170e+00  -1.21983757e+00   3.54143760e-01
C     1.771559592587650e+00   1.763819089028279e+00   3.559370034463786e+00  1.02335490e-01   1.09851277e+00  -2.41624450e-01
C     7.092686207256523e+00   1.782911103753754e+00   5.335808137495542e+00  7.97858760e-01  -2.68642660e-01  -7.72305170e-01
C     1.771314707428391e+00   1.053034618504180e-02   5.310896243918395e+00 -5.80702150e-01  -7.34522380e-01   9.34875280e-01
C     8.791385747505244e-01   8.754392094506240e-01   4.427828559648892e+00  4.71553620e-01   9.91352270e-01   5.39265540e-01
C     2.644607813005810e+00   2.674753211652707e+00   4.424101116079642e+00  1.27857927e+00  -6.92398020e-01   1.33523111e+00
C     9.201003625086910e-01   2.684511938562347e+00   6.198832131419205e+00 -1.81210057e+00  -1.11118326e+00   1.05527457e+00
C     2.637732759900425e+00   8.538249842111210e-01   6.222428682474748e+00  1.35363947e+00   1.80724135e+00  -1.23563920e-01
C     3.558135727960049e+00   4.536879652988800e-03   3.582293275728762e+00 -1.06377420e-01  -1.40440320e-01  -7.11513220e-01
C     5.315783639890776e+00   1.772542118762186e+00   3.543079804513985e+00  6.24808960e-01  -1.97887500e-01   1.10681526e+00
C     3.579231820274781e+00   1.770012586572859e+00   5.341468645512075e+00 -1.15471697e+00   1.24399190e-01  -2.82866060e-01
C     5.324102982304093e+00   1.174716596913340e-02   5.340495147034265e+00  4.97243900e-01  -1.11366397e+00   3.36707590e-01
C     4.461006553553932e+00   8.816710213931256e-01   4.472650291973944e+00 -8.13167880e-01   1.56444390e-01  -9.98542690e-01
C     6.214707300572225e+00   2.654426890423495e+00   4.421826776262373e+00  1.45052780e-01   6.35192530e-01   5.73912740e-01
C     4.469896204714051e+00   2.656700377230050e+00   6.221002448560270e+00 -8.62671120e-01   3.67291330e-01   1.27073200e-01
C     6.215156268544904e+00   8.862764973243974e-01   6.212363156044827e+00  1.63306900e-01   4.55014580e-01   6.48163880e-01
C     7.106873836879554e+00   3.561571939454558e+00   3.547137434313933e+00  3.52208450e-01  -4.61591070e-01  -1.72783590e-01
C     1.773604401438519e+00   5.345406569475101e+00   3.540761605729150e+00  1.87089500e-02  -1.27196947e+00   7.47128330e-01
C     7.103840104273790e+00   5.333960871709283e+00   5.345978655327560e+00 -1.22321400e-01   1.62683240e-01  -1.22202154e+00
C     1.776905623987473e+00   3.528010517233394e+00   5.356488031665872e+00  6.65866780e-01   1.23033527e+00  -1.99256366e+00
C     8.879613356537898e-01   4.412717190506391e+00   4.432478605389991e+00 -4.55310000e-03   1.39051632e+00   8.52964160e-01
C     2.659003363990478e+00   6.216774358785894e+00   4.472680502770079e+00  2.61737340e-01   4.92561000e-02  -1.29567295e+00
C     8.528425291208108e-01   6.242647168932813e+00   6.207201517127767e+00  1.40261039e+00  -1.06486235e+00   3.01565600e-01
C     2.674638481711619e+00   4.431492311751466e+00   6.217252400207090e+00 -2.64730230e-01  -4.83897400e-02   6.25433600e-02
C     3.554176336560710e+00   3.577863733257336e+00   3.563260829584843e+00 -2.31887090e-01  -1.42269356e+00  -2.52084130e-01
C     5.318506876596498e+00   5.321241913283769e+00   3.532938146877805e+00  6.41608340e-01   3.50235330e-01   1.06898608e+00
C     3.558912323131285e+00   5.325227890183708e+00   5.339308964551666e+00 -5.86400000e-03   3.15171000e-03   8.18210000e-02
C     5.339185846671887e+00   3.561473132380139e+00   5.326932134506853e+00 -7.56199200e-02  -3.69945040e-01  -3.81295690e-01
C     4.454320086900656e+00   4.434063925802703e+00   4.434489933570320e+00 -5.83699810e-01   5.20457020e-01   3.27005710e-01
C     6.210515321584758e+00   6.214715119837107e+00   4.460841424896469e+00  2.26103860e-01   5.12152540e-01  -1.09958444e+00
C     4.445019711081552e+00   6.204276187966959e+00   6.255590398091988e+00 -9.09423300e-02   4.74856830e-01  -1.12316464e+00
C     6.212943487667524e+00   4.469950726315547e+00   6.198651222063527e+00  5.52235850e-01  -1.31643576e+00   7.22926670e-01
