64
Lattice="7.10842262195238 0 0 0 7.10842262195238 0 0 0 7.10842262195238 " PBC="1 1 1" Properties=species:S:1:pos:R:3:force:R:3 Energy="-514.2242788"
C     1.726635854398000e-04   7.082922291198368e+00   1.765405191367480e-02  4.69910760e-01   1.09396358e+00  -7.16608810e-01
C     1.780198529681962e+00   1.793340368169140e+00   1.677317618260440e-02 -1.44287730e-01  -1.04021704e+00  -8.60260060e-01
C     1.725100435112080e-02   1.757818087568249e+00   1.789733696700204e+00 -1.24657343e+00   8.72817950e-01  -5.87712180e-01
C     1.757487688084872e+00   1.886689098109920e-02   1.792381299789249e+00  5.41405270e-01  -8.55976370e-01   4.23940000e-01
C     8.894807609888149e-01   8.937899578652850e-01   9.057842126046896e-01  1.88755080e-01  -3.05313860e-01  -4.18923240e-01
C     2.660316645069522e+00   2.665347062505018e+00   8.880696680145186e-01  2.42663200e-01   1.07064000e-03   7.18403410e-01
C     8.471820211042786e-01   2.685955872449148e+00   2.648765173975117e+00  2.33480366e+00  -9.07373260e-01   3.59374210e-01
C     2.671635599660027e+00   8.864979957732365e-01   2.695526865917395e+00 -1.65835120e-01   2.25155260e-01  -1.11938494e+00
C     3.543829245510811e+00   7.084262513199143e+00   3.966364761930220e-02 -4.03784980e-01   7.88953220e-01  -1.30768614e+00
C     5.326257687368667e+00   1.778645197171040e+00   7.106939305451884e+00  4.44300970e-01  -1.25456400e-02  -7.94930810e-01
C     3.568488363579592e+00   1.775165055624740e+00   1.785936946010409e+00 -7.30315280e-01   1.02599320e-01   2.11840650e-01
C     5.302150893737461e+00   2.734418254503260e-02   1.766583412416745e+00  1.49240415e+00  -1.80606710e-01   2.94703070e-01
C     4.421104062934598e+00   9.111308837625488e-01   8.694116935742212e-01  6.58808150e-01  -8.45542630e-01   8.84388940e-01
C     6.223340622012667e+00   2.665768236545253e+00   8.610841764748911e-01  2.25705920e-01  -5.81559640e-01   1.35603303e+00
C     4.468917588171956e+00   2.664067119928061e+00   2.678805367967238e+00 -6.82691090e-01  -5.40895500e-02  -2.92209970e-01
C     6.223343181044810e+00   9.066850630033221e-01   2.683400394517258e+00 -7.94697840e-01  -3.09464530e-01  -1.89898590e-01
C     3.867443952750300e-02   3.556151269617224e+00   1.752332802169300e-02 -2.03133022e+00  -3.53304900e-02  -8.96248820e-01
C     1.783603464116942e+00   5.361011334231657e+00   7.065250894733501e+00  3.19303910e-01  -1.52764054e+00   1.80794775e+00
C     7.098175046866782e+00   5.342234862386284e+00   1.763168384021645e+00 -9.97492900e-02  -3.81589950e-01   6.08420380e-01
C     1.772749258197333e+00   3.557167845136111e+00   1.762222181886696e+00 -4.70347200e-02   8.13438030e-01   3.55866340e-01
C     8.745301132817522e-01   4.467677523845897e+00   8.937761675254022e-01  1.19457388e+00  -3.87173540e-01  -9.99457030e-01
C     2.654009554931475e+00   6.194511845403448e+00   9.353153724529913e-01 -8.27310000e-03   1.38868363e+00  -1.62445658e+00
C     8.480941028106508e-01   6.228989401131876e+00   2.664518718017109e+00  7.20051650e-01   7.25700500e-02   5.70306270e-01
C     2.681490930033073e+00   4.464439850595166e+00   2.644787727182323e+00 -7.12474550e-01  -1.39381097e+00   9.62734230e-01
C     3.569646041287485e+00   3.525623935422955e+00   2.719632735453660e-02 -7.81582550e-01   7.90053530e-01  -1.61681383e+00
C     5.313891377789332e+00   5.360664585376253e+00   7.097525834628897e+00  6.99791670e-01  -1.60679323e+00   1.26493110e-01
C     3.557117730756640e+00   5.337497596299637e+00   1.781349098967235e+00  3.87181520e-01  -6.59182340e-01  -2.00773200e-01
C     5.330352636387371e+00   3.523638197564058e+00   1.776433340388600e+00  6.49724650e-01   1.33507451e+00  -5.10026450e-01
C     4.448338420350152e+00   4.425418591128033e+00   8.571860596785356e-01 -7.16053200e-02   6.44662750e-01   1.57841137e+00
C     6.230003844123977e+00   6.222829028836706e+00   8.874869195281310e-01 -1.30445721e+00   2.26794930e-01  -2.64761200e-02
C     4.465176638599729e+00   6.235133352970795e+00   2.651969011134178e+00 -5.95476890e-01  -4.02216170e-01   3.61947400e-01
C     6.230491410831482e+00   4.431326685504420e+00   2.648511474371809e+00 -4.70350410e-01   1.21044510e-01   8.13228380e-01
C     7.071299806961990e+00   9.550023621517599e-03   3.579250373257818e+00  1.24737970e+00   3.17570960e-01  -6.28203190e-01
C     1.785059197985292e+00   1.805787002924081e+00   3.546432065537350e+00 -2.90406050e-01  -7.69685500e-01   9.62255700e-02
C     4.916476529319420e-02   1.771913520949900e+00   5.330270960611467e+00 -2.24822172e+00  -5.92381900e-02   9.19403980e-01
C     1.775245309716120e+00   7.101645023368735e+00   5.328912398880333e+00  3.04492300e-01   3.43021350e-01  -5.75166670e-01
C     9.024765213911512e-01   9.182535943120149e-01   4.446546742428780e+00 -2.44657800e-02  -1.13520097e+00  -4.35297700e-01
C     2.669114099988260e+00   2.655569213938529e+00   4.448247432540615e+00 -1.05947700e-02   7.41023000e-01  -6.86232110e-01
C     8.801478996783382e-01   2.658998956768453e+00   6.220546940838782e+00  1.30386115e+00   7.75572480e-01   1.20134080e-01
C     2.659255002151225e+00   8.644144013881350e-01   6.218593546302805e+00 -6.81425200e-02   3.85394650e-01   6.73287430e-01
C     3.562909957844320e+00   7.085333254898394e+00   3.552454960939050e+00 -3.74709690e-01   7.56175940e-01  -8.82278900e-02
C     5.340208393265775e+00   1.804232248728634e+00   3.588963464094240e+00 -4.21537340e-01  -1.51778213e+00  -7.89695150e-01
C     3.539906320319512e+00   1.757646134825071e+00   5.320677078022384e+00  1.79746000e-02   2.19180740e-01   8.09761170e-01
C     5.308603564370766e+00   7.098588970315943e+00   5.360867175420923e+00  6.83891370e-01   7.47440730e-01  -8.72917970e-01
C     4.420846666951528e+00   8.883304049562202e-01   4.447408354334550e+00  8.82393100e-01  -4.10854380e-01   1.02277390e-01
C     6.213212043874108e+00   2.634730162185737e+00   4.475169445866246e+00  8.65021600e-01   1.62145169e+00  -6.54569080e-01
C     4.423028526190510e+00   2.649788431411267e+00   6.218785473713545e+00  7.05679000e-01   4.80257490e-01  -4.88781050e-01
C     6.231517511636679e+00   8.770505466901256e-01   6.228898484406566e+00 -2.27046060e-01  -7.64843100e-02   6.22158200e-02
C     9.030326843769400e-03   3.520514685580604e+00   3.555180543424237e+00 -9.05130560e-01   1.37984738e+00  -2.23688800e-02
C     1.754217102837410e+00   5.320233583535122e+00   3.560465086968397e+00  6.57157420e-01   6.12879770e-01  -1.42005182e+00
C     6.231101100239600e-03   5.327974584684076e+00   5.316003076897055e+00 -1.24557750e-01  -1.55850160e-01   7.25788690e-01
C     1.777383665408668e+00   3.560051376771914e+00   5.301355319077831e+00  4.51061120e-01  -3.46577600e-01   1.35116176e+00
C     8.982145955251040e-01   4.445993351727814e+00   4.428345839562949e+00 -6.14861350e-01  -7.45111400e-01   2.13014460e-01
C     2.658929862900587e+00   6.198761047193004e+00   4.406544947145445e+00  6.74751000e-03   3.61900440e-01   1.33426110e+00
C     9.055231913260832e-01   6.219133217748116e+00   6.203294799140041e+00 -7.63980810e-01   1.02044060e-01   1.26352590e-01
C     2.693707251895127e+00   4.431430184137767e+00   6.208629812484803e+00 -8.95715910e-01   7.29987900e-02   4.56827400e-02
C     3.576803369855110e+00   3.544473197515957e+00   3.548993088038884e+00 -5.56650590e-01   7.63475050e-01  -1.41877170e-01
C     5.347353495346494e+00   5.347498649336394e+00   3.569142551713310e+00  5.54927500e-02  -2.27955740e-01  -1.45451968e+00
C     3.557790471873397e+00   5.315651707566949e+00   5.307458539655137e+00 -1.75173710e-01   4.70681160e-01   3.58752950e-01
C     5.331659448801831e+00   3.589838439834535e+00   5.306438338840715e+00 -1.29797570e-01  -1.75438686e+00   1.34528321e+00
C     4.453401607613925e+00   4.467249596804173e+00   4.416256118707758e+00  4.38131600e-02  -7.36882290e-01   4.92504330e-01
C     6.225002784473902e+00   6.230925380032434e+00   4.456233034511923e+00 -6.72650850e-01  -3.37893690e-01   2.89693090e-01
C     4.418851261637867e+00   6.223009653855480e+00   6.213045848953253e+00  2.51434870e-01  -2.94642010e-01   5.81714260e-01
C     6.209081837079209e+00   4.421453655159049e+00   6.230955661912795e+00  7.53782340e-01   1.41149916e+00  -6.30520490e-01
