64
Lattice="7.10842262195238 0 0 0 7.10842262195238 0 0 0 7.10842262195238 " PBC="1 1 1" Properties=species:S:1:pos:R:3:force:R:3 Energy="-514.64715053"
C     7.099207118746980e+00   7.092712863841347e+00   3.956974535649201e-03  2.13326830e-01   3.15186660e-01  -4.41917510e-01
C     1.772597990963979e+00   1.778663465817173e+00   9.031250938710000e-04  8.96587700e-02   3.17950400e-02   1.02272280e-01
C     8.949148657449000e-03   1.777963001852198e+00   1.793363470542654e+00 -6.55327130e-01  -1.37852100e-01  -5.93760200e-01
C     1.766881539661428e+00   7.093789789868278e+00   1.790513064156261e+00  6.54165400e-02   1.01650990e+00  -4.14048960e-01
C     8.594079393368690e-01   9.006370037855475e-01   8.861712215853952e-01  1.26065023e+00  -8.08726250e-01   1.92574420e-01
C     2.678956066526782e+00   2.670162165819354e+00   8.888356716360498e-01 -4.91244850e-01  -3.16890170e-01   1.30859240e-01
C     8.972349127196155e-01   2.648583909198308e+00   2.665042608764203e+00  3.69675910e-01   8.82849700e-01  -2.71310830e-01
C     2.674288320813358e+00   9.049462717462440e-01   2.667126087434125e+00 -2.43978610e-01  -1.13449798e+00   3.95578510e-01
C     3.553472176215972e+00   7.095304026054789e+00   1.682563634154000e-04 -4.40304310e-01   4.43704000e-01   7.41652700e-02
C     5.350350903912669e+00   1.817245922355973e+00   7.087295606046871e+00 -5.53035290e-01  -1.92146017e+00   5.23933180e-01
C     3.558044029308251e+00   1.776307165887095e+00   1.789783171321639e+00 -7.56813400e-02   1.79074760e-01  -4.21965590e-01
C     5.337764375400567e+00   8.765680269626800e-03   1.785242524204662e+00 -2.79773700e-02   1.84003150e-01  -7.89067560e-01
C     4.435738670171975e+00   8.953794011631170e-01   8.679129537490203e-01  6.51233180e-01   2.43157870e-01   6.68408940e-01
C     6.214349817998665e+00   2.664900866817160e+00   8.803865294256916e-01  4.45862740e-01   1.71571500e-01   8.61167690e-01
C     4.433538471202633e+00   2.671914605247862e+00   2.692637647543496e+00  4.94121470e-01  -2.56814740e-01  -8.89061910e-01
C     6.226830999687540e+00   9.023752974530425e-01   2.674742477934550e+00 -6.18418370e-01  -1.37081850e-01   3.15178690e-01
C     7.826373304620000e-04   3.546064417919444e+00   1.754614605830320e-02 -2.89052350e-01   6.33177850e-01  -7.32283320e-01
C     1.768159776216956e+00   5.344682363378576e+00   7.083861242742245e+00  4.60564430e-01  -6.69790040e-01   3.50153210e-01
C     7.103935143884220e+00   5.345071051927437e+00   1.772009626823722e+00 -1.32290880e-01  -9.17005020e-01  -1.62262300e-02
C     1.767413747262987e+00   3.574075725927364e+00   1.749779670016874e+00  7.75557460e-01  -8.03861450e-01   1.03359704e+00
C     8.835258931915884e-01   4.441071977495309e+00   8.753976962625232e-01 -4.64797100e-02   6.62033570e-01   1.50945860e-01
C     2.663136840659781e+00   6.214496535841541e+00   9.107782349163706e-01 -4.51105880e-01   1.09038590e-01  -1.23241370e+00
C     8.582587917361197e-01   6.219423952233273e+00   2.644088684901872e+00  7.79465750e-01   2.11586500e-01   1.61028782e+00
C     2.678761082494315e+00   4.442649194306235e+00   2.665287565007688e+00 -8.81384230e-01  -3.70528600e-02   2.36688900e-02
C     3.575469829771598e+00   3.531650669372870e+00   8.260769010928200e-03 -9.38323130e-01   5.94520500e-01  -7.28465650e-01
C     5.323839544161795e+00   5.325555872803395e+00   1.171347204591460e-02  4.07733330e-01   4.21220340e-01  -8.81837330e-01
C     3.538155373659754e+00   5.321814354557358e+00   1.757291353452107e+00  8.76149280e-01   1.23189610e-01   6.33487490e-01
C     5.330971851081799e+00   3.545228325250880e+00   1.777961651251901e+00 -1.92854590e-01   4.56710920e-01   1.33131500e-01
C     4.439277242952211e+00   4.434863978768584e+00   8.586112273296194e-01  1.13773040e-01   2.76453500e-02   1.36427855e+00
C     6.231996406068588e+00   6.216341882353694e+00   8.866154979991452e-01 -8.66971970e-01   3.35115700e-02   2.70303350e-01
C     4.453511290574951e+00   6.223784329752608e+00   2.640535326602586e+00 -5.06903820e-01  -1.40356560e-01   8.11324050e-01
C     6.218192844519716e+00   4.440847635677422e+00   2.675044443727448e+00  6.57691130e-01  -2.96475900e-01  -5.99174740e-01
C     7.087067923270353e+00   1.204699923524500e-02   3.584298775002543e+00  9.72491930e-01  -1.78754400e-02  -9.89866810e-01
C     1.802185236266753e+00   1.785732081270501e+00   3.554873246314374e+00 -6.05352510e-01  -2.17955120e-01  -3.77012220e-01
C     1.256221770674260e-02   1.772471034535986e+00   5.335403739332691e+00 -4.95627350e-01   4.13373290e-01   2.59249620e-01
C     1.752751061756261e+00   2.638490091246360e-02   5.321537126075178e+00  8.48435680e-01  -1.25557759e+00   1.72737100e-01
C     9.083045749288368e-01   9.198183713833556e-01   4.447388735088119e+00 -7.34211780e-01  -7.60827030e-01  -4.46562450e-01
C     2.658799992019319e+00   2.656461889651149e+00   4.441554426138528e+00  8.66541310e-01   3.53690990e-01   4.42039170e-01
C     8.853075482370651e-01   2.687743711822304e+00   6.232123931170391e+00  7.10222400e-02  -1.17227539e+00  -1.86476660e-01
C     2.645195395219579e+00   8.687739969809809e-01   6.220176094430696e+00  7.47165080e-01   6.70300180e-01   7.29627800e-02
C     3.556770484311652e+00   7.106316110040789e+00   3.582793495428532e+00  1.00883690e-01  -1.43795390e-01  -1.39606373e+00
C     5.324084287152602e+00   1.793781516876936e+00   3.574074872916650e+00  2.95393930e-01  -5.56884660e-01  -9.70533920e-01
C     3.578487355173789e+00   1.765142890572802e+00   5.325918899946598e+00 -1.14924076e+00   1.70510280e-01   3.91648340e-01
C     5.335320286451132e+00   2.023966955747360e-02   5.336592694100112e+00 -8.36771400e-02  -9.60333030e-01  -5.44584200e-02
C     4.460455935137786e+00   8.930019181336317e-01   4.429048791475841e+00 -4.75382050e-01  -2.34270360e-01   9.27832760e-01
C     6.200638950280757e+00   2.654045523549932e+00   4.447100133129748e+00  1.06948592e+00   4.80739890e-01   2.26227040e-01
C     4.443439011143543e+00   2.670683426450078e+00   6.221739165480607e+00  3.32617670e-01   9.50069000e-03  -7.29702100e-01
C     6.229455926908427e+00   8.647214852453190e-01   6.223847310377020e+00 -9.64611100e-02   1.30890660e+00  -1.10057660e-01
C     3.129411974228800e-02   3.525844651945306e+00   3.554843675276275e+00 -1.49244970e+00   7.08882670e-01   2.73803140e-01
C     1.758847884753209e+00   5.332060079500695e+00   3.558825458206868e+00  3.08801080e-01  -2.80448290e-01  -1.72361780e-01
C     7.108267869639562e+00   5.316181853725949e+00   5.340034094743132e+00 -4.08298870e-01   2.00258650e-01  -4.34869850e-01
C     1.772510486281527e+00   3.537849995823998e+00   5.333618032486320e+00  2.89139350e-01   3.92645910e-01   2.66893820e-01
C     8.787116428879672e-01   4.422124334833247e+00   4.469982287711979e+00  4.96665710e-01   2.82080990e-01  -1.20884015e+00
C     2.654850054822064e+00   6.207634206812646e+00   4.453055498516557e+00  2.42410000e-04   6.03940230e-01  -3.37555820e-01
C     8.762813442784154e-01   6.211397690084579e+00   6.178764841110266e+00  3.40344940e-01   6.15456240e-01   1.53899324e+00
C     2.672416886390191e+00   4.420452433833023e+00   6.211007082261609e+00  8.52289000e-02   3.64017910e-01   2.70548850e-01
C     3.565150035064561e+00   3.549602066604740e+00   3.571214443654362e+00 -5.84540620e-01   6.22941470e-01  -6.25613030e-01
C     5.338350678098264e+00   5.331340493878872e+00   3.536950780362568e+00  8.51913500e-02   5.27178860e-01   3.54190550e-01
C     3.559645628008764e+00   5.308841980865441e+00   5.321994197649644e+00 -2.00338250e-01   9.77588940e-01   2.60361570e-01
C     5.326180276646335e+00   3.570195024766427e+00   5.321502934562375e+00  2.84222280e-01  -1.37664900e-01   1.32699620e-01
C     4.459561197982608e+00   4.473156838169846e+00   4.418248183062786e+00 -5.59779570e-01  -1.16877594e+00   7.37226080e-01
C     6.223820582707969e+00   6.223015198425124e+00   4.463668799993575e+00 -3.21358410e-01  -1.18292480e-01  -6.36207220e-01
C     4.440899100657191e+00   6.231084893036027e+00   6.214665645215672e+00 -5.65477600e-02  -6.21774370e-01   1.88685930e-01
C     6.218909089182907e+00   4.444103222153156e+00   6.216967210291576e+00 -1.56940380e-01  -1.97088020e-01   5.22483920e-01
