64
Lattice="7.10842262195238 0 0 0 7.10842262195238 0 0 0 7.10842262195238 " PBC="1 1 1" Properties=species:S:1:pos:R:3:force:R:3 Energy="-514.69709995"
C     7.101660519730046e+00   2.697788552742400e-03   6.724212377389000e-03  1.87345200e-02  -9.15294200e-02  -2.83485550e-01
C     1.781718736943475e+00   1.772347845571981e+00   4.654595131576000e-04 -1.21737520e-01   3.28362220e-01   1.80416700e-02
C     1.281165225647840e-02   1.782858359257914e+00   1.780816393776092e+00 -8.75264900e-01   1.24900130e-01  -1.20180840e-01
C     1.763974194809848e+00   7.101529227164255e+00   1.783880337177991e+00  5.28636400e-02   8.50490820e-01  -3.80218040e-01
C     8.710242392455682e-01   9.198977724640210e-01   8.872092645405938e-01  9.16397130e-01  -1.36583422e+00   4.87968200e-02
C     2.668968377324550e+00   2.652504986199725e+00   8.822443867616547e-01  1.17997710e-01   4.29136040e-01   4.25005870e-01
C     8.751019147973050e-01   2.677519596483732e+00   2.673143225013503e+00  1.13752212e+00  -1.65760800e-01  -4.28357640e-01
C     2.674482807256242e+00   8.913568158866852e-01   2.662532198231724e+00 -3.95239960e-01  -3.82472030e-01   6.92641080e-01
C     3.557276390749518e+00   7.092435564274941e+00   2.766384831025400e-03 -6.16735360e-01   3.15435670e-01   5.18210000e-02
C     5.324068790791291e+00   1.804205378891131e+00   7.104754887180758e+00  2.40922190e-01  -1.66351485e+00   1.90966700e-02
C     3.565064733993121e+00   1.755342081801251e+00   1.776342352579064e+00 -6.08821940e-01   9.87563900e-01   1.76997370e-01
C     5.311667081267307e+00   1.097782138897080e-02   1.804689746808458e+00  1.13365183e+00   8.47423600e-02  -1.31650926e+00
C     4.424363914463903e+00   8.838041168529353e-01   8.926748596088856e-01  8.04996860e-01   1.48939540e-01  -9.11694700e-02
C     6.201272239651972e+00   2.668705010266480e+00   8.645059578714807e-01  8.93282530e-01  -6.60870400e-02   1.16949966e+00
C     4.447619190149460e+00   2.686233527436685e+00   2.658100309980833e+00 -2.00243800e-02  -1.06318894e+00   1.42122590e-01
C     6.241688953563637e+00   8.913033605485828e-01   2.670966128417676e+00 -1.39178661e+00   4.62013310e-01   4.62411660e-01
C     1.683629897547000e-03   3.542028539892713e+00   1.118481865566520e-02  5.61506400e-02   5.47338440e-01  -7.71683240e-01
C     1.769168816807865e+00   5.346907655079767e+00   7.087899964138024e+00  2.03214480e-01  -9.10197660e-01   3.18337600e-01
C     1.184028630545540e-02   5.335019529090079e+00   1.777861991166768e+00 -8.50279690e-01  -2.38476240e-01  -3.38443240e-01
C     1.769401191143313e+00   3.583526729221785e+00   1.767419007495726e+00  7.33470910e-01  -1.37028127e+00   3.07760310e-01
C     9.053552192995726e-01   4.444787336746104e+00   8.835920015219544e-01 -8.75135930e-01   3.58973070e-01  -1.31856290e-01
C     2.642423110397780e+00   6.203811226043384e+00   8.898735013385697e-01  5.69327570e-01   6.75320180e-01  -2.23751680e-01
C     8.646678877387642e-01   6.235305803303556e+00   2.650640162609595e+00  5.82656220e-01  -5.32989040e-01   1.09449046e+00
C     2.676387366928818e+00   4.436075396151485e+00   2.661763280156919e+00 -5.39918720e-01   3.74419620e-01   2.22761000e-03
C     3.576851422792021e+00   3.533582951893665e+00   7.104972475997156e+00 -9.84526230e-01   6.64756260e-01  -1.50973060e-01
C     5.334928683448996e+00   5.320545856540819e+00   7.105607471389801e+00  2.31409700e-01   6.13599110e-01  -4.57981720e-01
C     3.545402481605070e+00   5.332571672676655e+00   1.769455357323677e+00  6.36756930e-01  -1.99162520e-01   1.98611500e-02
C     5.335931397543773e+00   3.553506794234131e+00   1.757786952677173e+00 -2.83127480e-01   1.62306730e-01   4.17825270e-01
C     4.461786205346893e+00   4.442663126814570e+00   8.635479557549831e-01 -7.67505620e-01  -8.62185500e-02   8.21854120e-01
C     6.220426524159598e+00   6.227695383878132e+00   8.753349288907886e-01 -2.72000700e-01  -4.09192420e-01   9.70341610e-01
C     4.454827486107271e+00   6.238575606624530e+00   2.662327973249851e+00 -6.84177130e-01  -7.97203650e-01   4.66026920e-01
C     6.205861224042766e+00   4.415629440169578e+00   2.668353001178337e+00  1.04604914e+00   1.14532641e+00  -4.39700870e-01
C     7.082259786210185e+00   3.296459905798800e-03   3.571897065478560e+00  1.32944098e+00   2.51424580e-01  -4.40782990e-01
C     1.795427258881919e+00   1.794441462832977e+00   3.580559247114840e+00 -7.03485430e-01  -5.96870260e-01  -1.22676157e+00
C     1.598442560868920e-02   1.763290791059161e+00   5.326191721206754e+00 -7.05522130e-01   9.21468670e-01   8.52109730e-01
C     1.759954310734011e+00   1.788393830120560e-02   5.332190305803093e+00  4.54418290e-01  -1.19140386e+00  -2.35206100e-01
C     8.904372703365619e-01   9.095284320513222e-01   4.458188419406233e+00  6.02720900e-02  -7.79277950e-01  -7.46765560e-01
C     2.674508824083031e+00   2.653261180198041e+00   4.450574730106403e+00  3.49999770e-01   6.74249420e-01   1.39081400e-02
C     9.009978273177388e-01   2.672552870514912e+00   6.228816737546436e+00 -2.37417260e-01  -5.58857710e-01  -2.11173410e-01
C     2.657233224589645e+00   8.830806926828978e-01   6.221710447453223e+00  4.06294330e-01  -1.96453880e-01   4.43003700e-02
C     3.549091042102588e+00   7.095726906116454e+00   3.573992344130031e+00  2.39834490e-01   4.44028380e-01  -7.00113240e-01
C     5.330509234937689e+00   1.805953482181841e+00   3.587796403268487e+00  3.98053900e-02  -9.79154830e-01  -1.34668932e+00
C     3.571901401616358e+00   1.767970976512169e+00   5.329378355983073e+00 -1.01109781e+00   1.45724080e-01   5.78346780e-01
C     5.330118129525137e+00   1.597674851225960e-02   5.355842942313108e+00  5.52425200e-02  -7.64437320e-01  -6.11577860e-01
C     4.432167540816140e+00   8.939699431260234e-01   4.464041778928446e+00  6.25452660e-01  -3.19649600e-01  -5.35761010e-01
C     6.220090153601220e+00   2.665455323781520e+00   4.449771975939926e+00  2.48717350e-01   1.03087450e-01   1.31038970e-01
C     4.444456013167786e+00   2.652027513452341e+00   6.217565099718144e+00  5.32758700e-02   7.04230070e-01  -4.14477170e-01
C     6.224087788314256e+00   8.735787219982915e-01   6.229583665262909e+00 -1.01653620e-01   1.02715092e+00  -1.06914610e-01
C     7.626413376319400e-03   3.537453559094481e+00   3.541099113635148e+00 -7.02481780e-01   5.51694780e-01   9.85938550e-01
C     1.773759578304313e+00   5.337766507927352e+00   3.547619314283343e+00 -3.96253750e-01  -5.90393880e-01  -4.50944200e-02
C     7.107675169361507e+00   5.309812707058429e+00   5.330256032923965e+00 -1.89287090e-01   4.65263790e-01  -5.80598100e-02
C     1.790339902981237e+00   3.550676149262622e+00   5.339125567248070e+00 -3.64058280e-01  -3.43422300e-02  -1.08340530e-01
C     8.832709140722090e-01   4.428470876716835e+00   4.462148450563609e+00  4.28802090e-01   1.89798270e-01  -1.25475479e+00
C     2.653422399223063e+00   6.192907047912756e+00   4.422350951346372e+00  1.75686990e-01   1.19862171e+00   9.09642290e-01
C     8.717380670450686e-01   6.199979359745846e+00   6.200720128467077e+00  4.04738690e-01   1.10802694e+00   7.17385320e-01
C     2.662074344730770e+00   4.443076055084566e+00   6.209924185159679e+00  6.64045020e-01  -2.57367310e-01   3.05463340e-01
C     3.556129802180912e+00   3.542843520546096e+00   3.545617298136646e+00  1.37799280e-01   7.49358900e-01   1.28684400e-01
C     5.345968348114760e+00   5.337097178853453e+00   3.550092903186650e+00 -3.53721190e-01   1.48835200e-02  -3.12001400e-02
C     3.552778323084034e+00   5.313810626108369e+00   5.316450623185210e+00  3.68005500e-02   8.35221460e-01   2.89862230e-01
C     5.327085249930088e+00   3.566182533450116e+00   5.325977970938570e+00  2.96590140e-01  -4.56203920e-01  -4.75117200e-02
C     4.456538483431904e+00   4.467566774621478e+00   4.428958798845471e+00 -5.50860260e-01  -1.10401329e+00   1.80651610e-01
C     6.228635117348496e+00   6.222705626620022e+00   4.457208452263840e+00 -5.35615140e-01  -1.17212380e-01  -2.70755800e-01
C     4.447868766867648e+00   6.224673166917012e+00   6.221480276728787e+00 -3.80522060e-01  -5.23912150e-01  -6.23994300e-02
C     6.217259224292804e+00   4.432131643281909e+00   6.202955371959936e+00  1.61771970e-01   1.48123190e-01   8.45252950e-01
