64
Lattice="7.10842262195238 0 0 0 7.10842262195238 0 0 0 7.10842262195238 " PBC="1 1 1" Properties=species:S:1:pos:R:3:force:R:3 Energy="-514.06954119"
C     7.100253052051286e+00   7.085808026445184e+00   3.529154120264500e-02 -3.14935980e-01   7.64691380e-01  -1.05566084e+00
C     1.745512199581184e+00   1.782678231828723e+00   7.101899860319661e+00  4.40902950e-01  -4.08302930e-01   3.84948050e-01
C     7.514242467375799e-03   1.774839845289875e+00   1.789855037474327e+00 -3.21957160e-01  -2.38658180e-01   2.49255630e-01
C     1.791429055495074e+00   7.089939015166570e+00   1.754717962295215e+00 -3.33647940e-01   8.60051850e-01   9.75452350e-01
C     8.787053874760616e-01   8.723496757272934e-01   9.072208248161916e-01  2.73035600e-01   1.94481730e-01  -4.30602050e-01
C     2.660162676635573e+00   2.659182851661632e+00   8.566929484013861e-01  4.36873330e-01  -3.41562290e-01   7.66098490e-01
C     9.089997786610728e-01   2.675740713723077e+00   2.641267849553577e+00  3.57406630e-01  -2.78122200e-01   1.31858140e-01
C     2.680087798492111e+00   8.619477076547688e-01   2.653171898409934e+00 -3.61014030e-01   4.10753580e-01   1.88762260e-01
C     3.588112870243530e+00   1.544297705772380e-02   3.948017923148000e-02 -8.19587610e-01   1.77725090e-01  -2.22451183e+00
C     5.368247779543043e+00   1.804987731884688e+00   3.126597038871280e-02 -6.43983450e-01  -6.96304810e-01  -1.30174463e+00
C     3.562202456540952e+00   1.774799256196715e+00   1.775907103862042e+00 -7.32503190e-01   2.48781000e-02  -4.55857830e-01
C     5.285650325562334e+00   7.102194575521487e+00   1.765801841349676e+00  1.53526221e+00   3.91956400e-02   3.14441050e-01
C     4.453800532291360e+00   9.203680657045601e-01   8.619319980407786e-01  1.91146810e-01  -6.67558180e-01   1.64377180e+00
C     6.234270745885858e+00   2.666956693723091e+00   9.423500807304219e-01 -5.88507250e-01   8.78170360e-01  -8.43382750e-01
C     4.397007434347739e+00   2.669664505151727e+00   2.672491809164606e+00  1.15651550e+00  -9.11012000e-02   7.37062180e-01
C     6.198036698928027e+00   8.818453909999943e-01   2.661390940980083e+00  1.47911170e-01  -2.48449770e-01   1.02633390e-01
C     7.098255869631971e+00   3.574009120007414e+00   3.339018032024740e-02 -1.74486060e-01  -3.80001180e-01  -1.18653271e+00
C     1.783777478302680e+00   5.348056020754028e+00   7.064976936125727e+00  1.63009470e-01  -1.13019690e-01   3.09417240e-01
C     3.687380499363080e-02   5.343078134561694e+00   1.791928066762998e+00 -2.39908200e-01  -4.50347930e-01  -4.69986270e-01
C     1.810592936373236e+00   3.539573290719765e+00   1.733257136815851e+00 -1.06415231e+00   1.52650089e+00   7.76933670e-01
C     9.165290199001767e-01   4.472637283560550e+00   8.354556828134218e-01 -3.30402190e-01  -7.53266050e-01   1.82154110e+00
C     2.665145254386836e+00   6.245613726944819e+00   8.548788789487621e-01  1.42240000e-02  -8.22683120e-01   6.42190910e-01
C     9.298807701073227e-01   6.222006015665762e+00   2.696219794954392e+00 -1.00202442e+00   2.06984480e-01  -8.66726930e-01
C     2.648927388179306e+00   4.485210448238127e+00   2.659819908496837e+00  1.84079700e-02  -1.62415696e+00   4.88078830e-01
C     3.580154209193952e+00   3.524473010716551e+00   2.117172593140800e-03 -4.82293510e-01   6.08912170e-01  -5.60433010e-01
C     5.318903810915598e+00   5.329251541723532e+00   8.772362186889600e-03  8.58701990e-01  -1.02283108e+00   4.10122780e-01
C     3.503310525734549e+00   5.346678550618725e+00   1.768172500293446e+00  1.09159306e+00  -6.94506530e-01  -2.50347340e-01
C     5.311948077213477e+00   3.563236874200614e+00   1.825586376784472e+00  7.05649530e-01  -1.93283180e-01  -8.60403720e-01
C     4.414122383489913e+00   4.427859623455741e+00   9.160184219033821e-01  7.16653690e-01   3.14522620e-01  -6.81325030e-01
C     6.230665069596089e+00   6.186803542998546e+00   9.151243955904648e-01 -8.33832530e-01   1.17296592e+00  -4.09126450e-01
C     4.399511731636764e+00   6.196905748889185e+00   2.644778983822500e+00  9.03661380e-01   5.14942800e-01   2.87807880e-01
C     6.254117106419767e+00   4.463995218760285e+00   2.655371457621241e+00 -9.03315720e-01  -5.75984580e-01   7.51615170e-01
C     2.384733620557600e-03   7.104318430031890e+00   3.544767557296651e+00 -2.81768700e-02   5.04999970e-01   8.46026900e-02
C     1.786322506853318e+00   1.785267474768058e+00   3.536817568522669e+00  3.77289400e-02  -6.67753270e-01   3.67215530e-01
C     7.085355148840065e+00   1.791188506473613e+00   5.306146751344842e+00 -2.45841900e-01  -1.89277790e-01   7.90282400e-01
C     1.757947105438802e+00   4.141459427906059e-02   5.349959158742081e+00  5.24876120e-01  -5.37121050e-01  -2.85328330e-01
C     8.705916917291412e-01   9.140314756126398e-01   4.433828281592850e+00  4.84513870e-01  -3.28563740e-01  -7.04657800e-02
C     2.660447084624599e+00   2.640184597030515e+00   4.473643054277053e+00  3.40303990e-01   7.49105180e-01  -9.93705890e-01
C     8.193875199862689e-01   2.650416531633970e+00   6.234756819824613e+00  1.96669749e+00   7.69155050e-01  -4.90582610e-01
C     2.683740390371173e+00   9.181883389923634e-01   6.242479410158982e+00 -7.62367450e-01  -9.29970100e-01  -2.69548870e-01
C     3.540303041385934e+00   7.046518708361051e+00   3.550893027236758e+00 -5.05428300e-02   1.99702437e+00   2.76335090e-01
C     5.297795989703545e+00   1.743142891237712e+00   3.561703089851896e+00  8.05921180e-01   1.29026922e+00  -7.31645300e-01
C     3.577196607794449e+00   1.768096369087186e+00   5.351048524508596e+00 -3.13533870e-01  -4.62445580e-01  -7.05352310e-01
C     5.335594529395811e+00   7.065505518431750e+00   5.320494746982181e+00  2.50645180e-01   1.53718270e+00   6.74051080e-01
C     4.436028054056835e+00   8.495093897542928e-01   4.427796500662875e+00 -7.01883000e-02  -1.54233800e-02   8.41013900e-01
C     6.225793454321924e+00   2.695025935375363e+00   4.403393072555737e+00 -3.18112540e-01  -1.13794589e+00   3.16135700e-01
C     4.486308486280238e+00   2.647239422143961e+00   6.196858691131441e+00 -3.53716630e-01   9.00884370e-01   7.81273720e-01
C     6.206925781414337e+00   9.005935002391131e-01   6.233099988680344e+00  5.34688360e-01  -8.63440760e-01  -4.18132590e-01
C     5.160281208340180e-02   3.566695974815958e+00   3.530760552692394e+00 -1.42836360e+00  -1.53774610e-01  -8.82235600e-02
C     1.785755467980921e+00   5.348285693888880e+00   3.598846517315504e+00 -6.83030800e-02  -5.33740990e-01  -9.14165400e-01
C     4.610522911332000e-04   5.317209162962991e+00   5.308874110935684e+00 -8.76386800e-02   3.95550150e-01   4.59872900e-01
C     1.777273058352701e+00   3.527304011109193e+00   5.331572583877414e+00 -4.15767470e-01   4.01202340e-01   7.54994600e-01
C     9.057041006817621e-01   4.430720763560291e+00   4.434355228961671e+00  1.03883590e-01   2.06159620e-01   6.15993910e-01
C     2.663918838232207e+00   6.224796711302148e+00   4.488751011376698e+00 -3.26915140e-01   1.98921820e-01  -6.07598590e-01
C     8.569970467210698e-01   6.236682846933502e+00   6.210750112783898e+00  1.02600975e+00  -3.22809890e-01  -1.17844820e-01
C     2.685034336540691e+00   4.422026878359127e+00   6.224298624129164e+00 -3.21076940e-01   4.76615800e-01  -4.88243040e-01
C     3.537090816288182e+00   3.571557922635360e+00   3.576963380448287e+00 -4.45431680e-01  -3.66206720e-01  -6.91746860e-01
C     5.314130860547399e+00   5.343119292328664e+00   3.544632141845740e+00  6.73646380e-01  -5.18979510e-01  -4.48835230e-01
C     3.562032920661464e+00   5.352980664860937e+00   5.346380849879399e+00 -1.19531430e-01  -1.14642610e+00   4.21343470e-01
C     5.341699811415677e+00   3.557147870468548e+00   5.288887856644613e+00 -2.05186270e-01   3.22937400e-01   9.68397970e-01
C     4.416513088185471e+00   4.454508673352763e+00   4.437436943420120e+00  1.07125458e+00   7.55266100e-02   7.29729000e-02
C     6.230317609898424e+00   6.217923932892001e+00   4.417823241558564e+00 -4.68481740e-01  -3.70852560e-01   4.87226440e-01
C     4.479426466920686e+00   6.203263237743608e+00   6.238037285779517e+00 -1.26666087e+00   7.70827970e-01  -2.09956370e-01
C     6.218312123851280e+00   4.443370414865260e+00   6.210015528390347e+00 -3.70226920e-01  -1.52811550e-01   2.54667900e-01
