72
Lattice="7.395 0 0 3.6975 6.40425786098592 0 0 0 13.6 " PBC="1 1 1" Properties=species:S:1:pos:R:3:force:R:3 Energy="-580.53342697"
C     3.682292478300000e+00   6.219025076297234e+00   1.422866000000000e-01  1.06543780e+00   2.82071460e-01   3.02046910e-01
C     1.277510468625000e+00   5.109648020839362e-01   2.086826160000000e-01 -2.26571720e+00   1.17500359e+00  -5.90219630e-01
C     1.331647193025000e+00   9.307332924543655e-01   3.416988576000000e+00  7.46021700e-01   8.53432700e-02  -2.08161900e-02
C     2.539557215775000e+00   1.669141277753750e+00   3.561765200000000e+00  1.93038508e+00  -1.63698208e+00  -3.36247290e-01
C     6.202125824024999e+00   6.226193041907038e+00   7.012228000000000e-02 -2.22675207e+00   6.61518000e-03   2.64146000e-01
C     3.696767599200000e+00   5.351020016602260e-01   9.950603199999999e-02 -9.86518490e-01   5.76959840e-01   2.95375110e-01
C     3.823432376025000e+00   9.664336998097782e-01   3.485086088000000e+00 -2.18966793e+00  -2.67245081e+00  -6.58142440e-01
C     5.055663851249999e+00   1.616463374939213e+00   3.310977392000000e+00 -1.73021531e+00   8.15857300e-01   6.03955790e-01
C     8.569129256024999e+00   6.244832378238255e+00   6.308904000000000e-03  3.12642492e+00  -1.38541629e+00   7.28938400e-01
C     6.125700310799999e+00   4.949490980702269e-01   7.152852000000000e-02  1.16170030e+00   1.41719482e+00  -3.36520080e-01
C     6.237649629224999e+00   9.068853732056119e-01   3.207214152000000e+00  2.30198705e+00   1.42321600e-02   3.03891190e-01
C     7.493965695075000e+00   1.614778991079454e+00   3.338326720000000e+00 -6.30613490e-01   4.56783210e-01   8.62920100e-02
C     1.222664748600000e+00   1.962046351196131e+00   2.568766640000000e-01  2.84544100e-01  -2.08347750e-01  -1.10281840e-01
C     2.446210870275000e+00   2.688072408391570e+00   3.690445680000000e-01  3.95964230e-01  -2.05139480e-01  -8.88122020e-01
C     2.577454742025000e+00   3.060898969499771e+00   3.557255304000000e+00 -1.03148695e+00   1.53126210e+00  -9.20314290e-01
C     3.751430773650000e+00   3.787398557521379e+00   3.327975488000000e+00  3.38976002e+00  -2.24008820e-01   4.70653160e-01
C     3.676578472725000e+00   1.922931513762659e+00   3.014365200000000e-01  9.55982520e-01   2.35161774e+00  -1.48923373e+00
C     4.932253983674999e+00   2.637521167484604e+00   4.876851199999999e-02 -9.34692520e-01   1.33531675e+00   9.51024710e-01
C     5.011061500349999e+00   3.019850046192579e+00   3.324317224000000e+00  6.77780850e-01   2.61020427e+00  -2.73282790e-01
C     6.275041004699999e+00   3.762937878880581e+00   3.317656216000000e+00 -1.23086008e+00  -1.45991537e+00   2.54825530e-01
C     6.172171637024999e+00   1.926913168959379e+00   1.359140072000000e+01 -9.80984500e-01   3.94486230e-01   5.55419850e-01
C     7.380860279325000e+00   2.668338200136609e+00   9.043999999999999e-02  5.07925880e-01   5.36629540e-01  -7.79464810e-01
C     7.504821000450000e+00   3.044722134358305e+00   3.431931304000000e+00  6.69116270e-01   8.21872240e-01  -2.13339950e-01
C     8.771049657075000e+00   3.798602998775185e+00   3.500815712000000e+00 -2.17761342e+00  -8.37005700e-01  -7.11293030e-01
C     2.463138025275000e+00   4.134827176850971e+00   2.650830400000000e-01 -2.32239300e-01  -1.85391746e+00   9.10204500e-02
C     3.700432930949999e+00   4.805911490120941e+00   2.340470240000000e-01 -4.31378110e-01   7.59733360e-01  -8.62963160e-01
C     3.827997087675000e+00   5.240119212390263e+00   3.204985384000000e+00 -7.69240240e-01  -1.88219958e+00   5.37518620e-01
C     5.088009285449999e+00   5.925909366813837e+00   3.288252336000000e+00 -2.33575593e+00  -4.45815730e-01   1.27007250e-01
C     4.910569736099999e+00   4.128734229965545e+00   6.616848800000000e-02  7.44195110e-01  -2.69848335e+00  -2.59895500e-02
C     6.130694450100000e+00   4.828299494747930e+00   1.353462738400000e+01  1.45130191e+00  -7.28030840e-01   2.75621520e-01
C     6.252988153350000e+00   5.165082380279422e+00   3.347169440000000e+00  1.76232606e+00   8.88520710e-01   2.49190490e-01
C     7.491299871524999e+00   5.880208262511983e+00   3.414833112000000e+00  3.28979540e-01   2.22966107e+00  -3.57940140e-01
C     7.386792548325000e+00   4.121760953794685e+00   1.352467340800000e+01  1.59232570e-01  -1.62403842e+00   1.53307331e+00
C     8.637473476274998e+00   4.819974535913136e+00   1.096958320000000e-01 -1.78403031e+00   5.31392300e-02  -1.00050534e+00
C     8.746310682899999e+00   5.222213355711752e+00   3.309446440000000e+00 -9.30065680e-01  -1.99058251e+00   7.39735690e-01
C     9.955274493150000e+00   5.893613847192272e+00   3.170260096000000e+00  1.19834440e+00   1.45342178e+00   6.84903800e-01
C     7.438872612300000e+00   1.321993805344212e-01   6.586084919999999e+00 -1.99366482e+00   7.97606720e-01   2.45585850e-01
C     1.237919709225000e+00   8.435677565953639e-01   6.711583136000000e+00  3.93154740e-01   8.32342890e-01   5.84998700e-02
C     1.138178574450000e+00   5.202689719455228e-01   1.022253778400000e+01 -1.69831232e+00   4.66913930e-01  -4.37206870e-01
C     2.324149222125000e+00   1.233328840592449e+00   1.042230995200000e+01  1.59078059e+00   1.67783730e-01  -7.59558980e-01
C     2.466983129475000e+00   1.550392055534322e-01   6.690838783999999e+00  7.72721900e-01   2.85957790e-01  -9.21378000e-03
C     3.717184011000000e+00   8.410596570896521e-01   6.704097968000000e+00  4.35620020e-01   1.36320360e-01   9.58719200e-02
C     3.572042937600000e+00   5.233914319077444e-01   1.032049001600000e+01  1.07932990e+00  -1.69982100e-01  -1.44831770e-01
C     4.843815514800000e+00   1.269315198061310e+00   1.026498977600000e+01 -1.76448513e+00  -1.83839800e+00  -5.03303080e-01
C     4.972084895699999e+00   1.479085127243724e-01   6.580316888000000e+00 -1.16118614e+00   3.30922300e-02   3.02424560e-01
C     6.191369020050000e+00   8.734749363331992e-01   6.569487344000000e+00  5.14286150e-01  -6.40785200e-02   6.82906270e-01
C     6.066399953700000e+00   5.425236399238657e-01   1.007814318400000e+01 -7.87039560e-01  -3.39777700e-01   5.08674670e-01
C     7.286449275675000e+00   1.254014465395092e+00   1.008230056800000e+01  1.42290814e+00  -1.12530140e-01   9.22318720e-01
C     8.624615087250000e+00   2.271622668486772e+00   6.810460303999999e+00  7.14434320e-01  -2.73782780e-01  -1.06163600e-01
C     2.484987662025000e+00   2.952726443178713e+00   6.877301856000001e+00 -2.28211370e-01   1.24729310e+00  -1.16723361e+00
C     2.349832315950000e+00   2.654884711607528e+00   1.044819728000000e+01 -9.93764800e-02   1.25166518e+00  -7.29819490e-01
C     3.602913106274999e+00   3.372415264581363e+00   1.039850560000000e+01 -1.74398502e+00   4.55107170e-01  -6.05931200e-01
C     3.735479130074999e+00   2.255719935581713e+00   6.816577855999999e+00 -2.11855741e+00  -7.47464820e-01  -1.18153470e-01
C     4.914937592849999e+00   2.952937335390042e+00   6.748534608000000e+00  2.28408138e+00   2.49917996e+00  -2.80123180e-01
C     4.788810395550000e+00   2.675778987131250e+00   1.026575083200000e+01  2.46968848e+00  -4.03349300e-01  -3.43417500e-02
C     6.033053384400000e+00   3.381253204470741e+00   1.011697036800000e+01  8.57270350e-01  -1.88885390e-01   6.18320040e-01
C     6.176929099350000e+00   2.312066197298458e+00   6.703219000000000e+00 -9.58640800e-02  -2.15194540e+00  -3.27538330e-01
C     7.410170805525000e+00   2.992602810914317e+00   6.749527952000000e+00 -4.20525740e-01   1.00743076e+00  -2.46908080e-01
C     7.324896546224999e+00   2.689522204285917e+00   1.015609716000000e+01 -2.60214934e+00  -7.47511920e-01  -3.28458530e-01
C     8.520042170399998e+00   3.409694001286373e+00   1.025567989600000e+01  9.21868150e-01  -1.93206075e+00   4.64691850e-01
C     9.875674602224999e+00   4.387789726574054e+00   6.676995480000000e+00 -1.12318544e+00   3.05659110e-01   5.82221130e-01
C     3.689166019875000e+00   5.132100260172686e+00   6.630418064000000e+00  1.52740984e+00  -1.64015984e+00  -8.92080000e-04
C     3.619747454025000e+00   4.791279618145621e+00   1.022434889600000e+01 -2.01124973e+00   3.78167940e-01  -2.89697370e-01
C     4.839139101674999e+00   5.507753916870606e+00   1.014250736000000e+01 -1.04459220e+00   4.75852590e-01   5.90444920e-01
C     4.953322412625000e+00   4.395400930870350e+00   6.670614496000000e+00 -1.42194039e+00   8.54369120e-01   2.28845790e-01
C     6.167820455999999e+00   5.163638988642935e+00   6.638159728000000e+00 -4.31189270e-01  -2.34392280e+00   2.61630940e-01
C     6.038025264750000e+00   4.803255772471557e+00   1.015034204800000e+01  4.68342790e-01  -1.30948867e+00  -8.44078800e-02
C     7.264480653375000e+00   5.470919187363030e+00   1.017870607200000e+01  1.45018780e-01   2.79347147e+00   3.81580280e-01
C     7.387176829500000e+00   4.426290267593594e+00   6.670505288000000e+00  6.03879790e-01   1.02093290e-01   1.50010460e-01
C     8.612802979800000e+00   5.130535764020067e+00   6.613531623999999e+00  1.72066137e+00  -8.65731700e-01   2.16426180e-01
C     8.485004290650000e+00   4.796296905880881e+00   1.019350695200000e+01  1.80853998e+00   8.65164710e-01  -2.25970610e-01
C     9.735002623125000e+00   5.504057763489286e+00   1.012440725600000e+01  1.02096317e+00   2.80610200e-01   6.10449130e-01
