72
Lattice="7.395 0 0 3.6975 6.40425786098592 0 0 0 13.6 " PBC="1 1 1" Properties=species:S:1:pos:R:3:force:R:3 Energy="-582.90135008"
C     3.675798189300000e+00   6.311725556054318e+00   1.353568410400000e+01  3.62675020e-01  -1.35172320e+00  -2.06693430e-01
C     1.205443087725000e+00   6.053370493127959e-01   1.354369192000000e+01  5.80135790e-01  -9.89949030e-01  -7.51805000e-03
C     1.291485613575000e+00   8.654131924964527e-01   3.476508568000000e+00  5.03774060e-01  -6.40317190e-01  -1.16012670e-01
C     2.543491836450000e+00   1.543256559511867e+00   3.508178752000000e+00 -9.72285800e-01   1.63122849e+00  -3.76732680e-01
C     6.141308715449999e+00   6.275771412002492e+00   1.353403401600000e+01  1.81204510e-01   1.17179274e+00  -1.09741150e-01
C     3.682072587975000e+00   6.024173481544218e-01   1.351160095200000e+01 -1.87245610e-01  -2.16593210e-01   9.76568900e-02
C     3.755276247599999e+00   8.362312309186837e-01   3.488629704000000e+00  9.65509440e-01   1.97282449e+00   1.30801810e-01
C     4.993137388425000e+00   1.571469813045733e+00   3.498211312000000e+00  3.63038480e-01  -3.71777660e-01  -4.21391260e-01
C     8.608103198475000e+00   6.274739493933511e+00   1.352418435200000e+01 -2.86809350e-01   5.78766200e-01  -2.73730860e-01
C     6.151520175150000e+00   5.723202181284588e-01   1.353708204800000e+01 -7.68864580e-01   1.52186311e+00   1.44217710e-01
C     6.249811335300000e+00   8.471217994947710e-01   3.453561016000000e+00 -1.47006139e+00   3.99397090e-01   1.98471780e-01
C     7.455875566050000e+00   1.568601153822503e+00   3.451305456000000e+00  7.61424470e-01   2.98418150e-01   7.76711300e-02
C     1.219316551425000e+00   1.990430086074230e+00   1.355286580000000e+01 -7.04291580e-01   2.28057943e+00  -5.88145800e-02
C     2.451680951775000e+00   2.728847165419776e+00   1.354381772000000e+01 -4.00333430e-01  -8.24045100e-02  -2.69580750e-01
C     2.537029013175000e+00   2.997444045601005e+00   3.479752848000000e+00  8.40732600e-02  -6.02232670e-01   2.18143650e-01
C     3.769833379050000e+00   3.718113709607497e+00   3.512911824000000e+00 -5.87342160e-01  -8.72516430e-01  -5.63740850e-01
C     3.681102105150000e+00   2.041188760893282e+00   1.350459246400000e+01 -2.93862920e-01  -1.31814072e+00   6.35053520e-01
C     4.897661430825000e+00   2.734512756178203e+00   1.358904764800000e+01  7.07256410e-01  -4.41466870e-01  -4.23185200e-01
C     4.994655027299999e+00   3.008412810165563e+00   3.477141648000000e+00 -2.37998880e-01  -1.73649068e+00   4.81864830e-01
C     6.224915069474999e+00   3.656342913398175e+00   3.493566096000000e+00  1.04489985e+00   2.97753292e+00  -3.45152840e-01
C     6.139857002999999e+00   2.016726032889968e+00   1.358077014400000e+01 -1.97281700e-02  -9.99894600e-02  -1.37921380e-01
C     7.360560671550000e+00   2.745991940094203e+00   1.355960242400000e+01  8.95349850e-01  -1.01226799e+00   2.63328720e-01
C     7.474904454000000e+00   2.993663163888197e+00   3.460903656000000e+00 -1.04247184e+00  -8.41596370e-01   4.00384900e-02
C     8.687257022999999e+00   3.710284760543962e+00   3.454682608000000e+00  7.45925610e-01  -4.72774120e-01   3.53426830e-01
C     2.446891284225000e+00   4.143992182189260e+00   1.352157641600000e+01 -5.00284590e-01   8.75341930e-01  -2.15220450e-01
C     3.677557533750000e+00   4.877445385310098e+00   1.350488500000000e+01 -1.97956400e-01  -6.65566720e-01   4.99146290e-01
C     3.762958210574999e+00   5.113938169137198e+00   3.458768456000000e+00  5.06180240e-01   8.83568690e-01   2.06964970e-01
C     4.995195675750000e+00   5.843439945158416e+00   3.460781936000000e+00  3.75952120e-01  -3.35093880e-01   9.71580600e-02
C     4.896198293099999e+00   4.132591514474623e+00   1.357606359200000e+01  7.09863240e-01   1.76784029e+00  -3.13643160e-01
C     6.149041851824999e+00   4.874408550275464e+00   1.354774825600000e+01 -8.23440580e-01  -8.59130660e-01   3.58865510e-01
C     6.244429550100000e+00   5.135030784526844e+00   3.479681719999999e+00 -1.01245476e+00  -9.04219400e-01  -2.69206400e-02
C     7.456076820974999e+00   5.868112540691802e+00   3.475419888000000e+00  5.60873720e-01  -2.78530699e+00   2.24565330e-01
C     7.381672915874999e+00   4.176916215677205e+00   1.357038164800000e+01 -1.20324956e+00  -1.19332006e+00  -5.13229560e-01
C     8.578941940349999e+00   4.863828396077851e+00   1.348845184800000e+01  2.13378673e+00   5.00784500e-02   6.71836510e-01
C     8.688763495425000e+00   5.113342829326532e+00   3.501031544000000e+00  3.44654330e-01   1.38158349e+00  -5.49714780e-01
C     9.941646062775000e+00   5.823288499503875e+00   3.461697896000000e+00 -9.45306000e-01   8.02872500e-02   1.49337330e-01
C     7.428641703749999e+00   9.524591608612080e-02   6.970151096000000e+00  1.49723490e-01   2.42177150e-01  -2.44054880e-01
C     1.273240410750000e+00   8.036354796886416e-01   6.930037352000000e+00 -5.91011870e-01   7.37110080e-01  -7.88257700e-02
C     1.136252472750000e+00   5.823312259300536e-01   1.005930079200000e+01  1.24185819e+00   1.95717920e-01   3.81304780e-01
C     2.393112255975000e+00   1.298559665195793e+00   1.010412652800000e+01 -5.87481200e-01  -3.07742390e-01   1.84506200e-02
C     2.490495458025000e+00   1.091956065141942e-01   6.855118216000000e+00  7.39039610e-01  -9.44147790e-01   1.48703040e-01
C     3.749092955325000e+00   8.070139178375274e-01   6.826981991999999e+00 -1.09285896e+00  -1.49349300e-01   2.17103420e-01
C     3.631197945975000e+00   5.964716351571978e-01   1.016417175200000e+01 -1.76377824e+00  -7.68243740e-01  -4.67641230e-01
C     4.816669616025000e+00   1.288637676578452e+00   1.009740024000000e+01  2.84027758e+00   9.24932730e-01   1.80004090e-01
C     4.967643199875000e+00   1.117462943346750e-01   6.884878416000000e+00  2.78107230e-01  -1.03370535e+00   1.70198840e-01
C     6.190723991175000e+00   8.310715124886174e-01   6.961481911999999e+00  2.85647440e-01  -1.77173754e+00  -4.89064030e-01
C     6.095409577350000e+00   5.681819147844841e-01   1.008147736000000e+01 -9.63756140e-01   9.90680590e-01   1.06611700e-02
C     7.317599788799999e+00   1.298898002138537e+00   1.004843915200000e+01 -5.93127390e-01   5.54654500e-02  -5.41040900e-02
C     8.659053528299999e+00   2.246055590258080e+00   6.944244864000000e+00  3.43982980e-01  -8.29240310e-01  -5.87486110e-01
C     2.493351591900000e+00   2.956957031878450e+00   6.867443352000000e+00  2.52175750e-01  -1.31594093e+00   4.63319130e-01
C     2.390141795400000e+00   2.712893454622151e+00   1.007392364800000e+01 -2.78561440e-01  -2.74474400e-02   1.67953200e-01
C     3.610285884300000e+00   3.428943022965861e+00   1.005177564000000e+01  5.06372550e-01   5.59960430e-01   1.44306620e-01
C     3.724604375850000e+00   2.211573016577325e+00   6.841393639999999e+00  6.80365940e-01   1.82226774e+00   4.27431400e-02
C     4.966575657675000e+00   2.964398459298877e+00   6.872104887999999e+00 -3.87677940e-01  -1.70345876e+00   3.70556000e-03
C     4.846614633224999e+00   2.731246584669603e+00   1.006113067200000e+01 -8.70156900e-02  -6.29800580e-01   8.84484000e-03
C     6.100115126775000e+00   3.442803053783894e+00   1.005006693600000e+01 -1.11027482e+00  -1.28800392e+00  -5.35039000e-02
C     6.194824259850000e+00   2.213807334059521e+00   6.908263751999999e+00  6.10860000e-02   2.07187581e+00   6.02182900e-02
C     7.439344450275000e+00   2.932346557646306e+00   6.923813175999999e+00 -8.09986660e-01   9.60062630e-01  -8.38953100e-02
C     7.312114214775000e+00   2.732269856990474e+00   1.002022527200000e+01  5.79853490e-01  -8.81425700e-01   7.02715390e-01
C     8.545421773425000e+00   3.415193145383019e+00   1.009235096800000e+01 -1.22011880e-01   1.17501053e+00  -2.91988300e-01
C     9.886295264249998e+00   4.350958263237986e+00   6.938346952000001e+00  8.52360580e-01   1.18851016e+00  -4.66133110e-01
C     3.750478667400000e+00   5.079190395138460e+00   6.936699312000000e+00 -1.48776244e+00   3.90140100e-02  -8.34158000e-03
C     3.607414590675000e+00   4.872365335847810e+00   1.003215478400000e+01  8.83996860e-01  -1.44169112e+00   4.29409270e-01
C     4.836688879350000e+00   5.565529224686231e+00   1.006974776800000e+01  6.53101020e-01  -3.48109740e-01  -1.65127520e-01
C     4.968373714949999e+00   4.375354515044713e+00   6.903089496000000e+00 -6.85912200e-02  -2.83436860e-01  -1.65115140e-01
C     6.187786882049999e+00   5.074995093899531e+00   6.879491728000000e+00  6.61709050e-01   1.03169660e+00  -1.07101160e-01
C     6.083919041474999e+00   4.821591995278259e+00   1.007500620800000e+01 -1.89415680e-01   2.69820465e+00   3.73750620e-01
C     7.311483791024999e+00   5.574078972971909e+00   1.015055611200000e+01 -1.41145290e-01  -6.99058820e-01  -2.12272430e-01
C     7.430705648249999e+00   4.384027929549669e+00   6.884914048000000e+00 -3.90253890e-01  -1.37062172e+00   7.02069800e-02
C     8.658481488074999e+00   5.066436635823163e+00   6.909002095999999e+00  3.58100530e-01   1.16185983e+00  -4.15032700e-02
C     8.528896314824999e+00   4.860786949977559e+00   1.012682574400000e+01  1.15480819e+00  -5.65308540e-01  -1.12603350e-01
C     9.802978831199999e+00   5.561536169910521e+00   1.008504912800000e+01 -2.02000521e+00   3.90781500e-01   1.37409510e-01
