72
Lattice="7.395 0 0 3.6975 6.40425786098592 0 0 0 13.6 " PBC="1 1 1" Properties=species:S:1:pos:R:3:force:R:3 Energy="-580.82306673"
C     3.682361214825000e+00   6.300955835824049e+00   1.349756629600000e+01  5.16420780e-01  -8.62758600e-02   5.99437330e-01
C     1.169186659875000e+00   6.746316316986246e-01   1.353919508000000e+01  2.11031745e+00  -3.82387062e+00  -2.35372740e-01
C     1.321835137275000e+00   8.298230664613891e-01   3.534164408000000e+00 -1.20610012e+00   2.87574300e-01  -9.77648600e-02
C     2.532240233025000e+00   1.571725599104661e+00   3.584892000000000e+00 -7.39530830e-01   1.26488560e-01   1.11922350e-01
C     6.100702548599999e+00   6.285950083274862e+00   1.347351741600000e+01  1.53871156e+00   1.55244338e+00   2.82035190e-01
C     3.660768110625000e+00   6.266162207339034e-01   1.348371048000000e+01  6.78192220e-01  -1.81008400e-01   4.08290770e-01
C     3.716349891975000e+00   8.055125036248290e-01   3.553939352000000e+00  2.10779272e+00   2.53164027e+00  -5.46190590e-01
C     4.968818746049999e+00   1.558009407918163e+00   3.444063456000000e+00  5.67195220e-01  -7.29865820e-01   9.55711310e-01
C     8.648114326649999e+00   6.310344029548760e+00   1.344056747200000e+01 -2.22991683e+00  -4.31111720e-01   7.61598330e-01
C     6.201786504450000e+00   6.229349892733969e-01   1.347825715200000e+01 -2.70670502e+00  -1.30434050e-01  -2.74942510e-01
C     6.234700872975000e+00   8.593949833002533e-01   3.432718880000000e+00 -1.48292194e+00  -5.94438260e-01   4.00879300e-02
C     7.452780610650001e+00   1.528862477630889e+00   3.504875039999999e+00  1.24901036e+00   1.83829988e+00   4.42853800e-02
C     1.215330794325000e+00   2.041663508528444e+00   1.357115739200000e+01 -6.16554670e-01   1.06747336e+00  -2.23977420e-01
C     2.431289867850000e+00   2.780096662561218e+00   2.074544000000000e-03  7.87167730e-01  -2.01145810e+00   2.09779890e-01
C     2.527457220975000e+00   3.027645244817193e+00   3.600799376000000e+00  4.06112680e-01  -2.08649617e+00  -8.15847490e-01
C     3.796291727700000e+00   3.679594276027270e+00   3.438593127999999e+00 -2.17735877e+00   8.84334590e-01   1.18747012e+00
C     3.667437735075000e+00   2.088097836312688e+00   1.730164800000000e-02  3.02010720e-01  -2.32784694e+00  -1.44653495e+00
C     4.909512657824999e+00   2.769170550354008e+00   1.343840629600000e+01  5.29906300e-02  -2.08413790e+00   7.59939270e-01
C     5.019815812275000e+00   2.989738314458696e+00   3.519772752000000e+00 -2.56481513e+00  -2.50981750e+00  -1.12759906e+00
C     6.192115323450000e+00   3.656040440299448e+00   3.469842664000000e+00  3.13627686e+00   2.58104516e+00   4.34971120e-01
C     6.169188863775000e+00   2.057817224299036e+00   1.342376045600000e+01 -1.90847854e+00  -1.82998817e+00   2.37538660e-01
C     7.362680226449999e+00   2.714495415683251e+00   1.346713303200000e+01  1.59477914e+00   9.45102270e-01  -2.86192430e-01
C     7.439276046524999e+00   2.993992919125408e+00   3.538307920000000e+00 -3.57221740e-01  -2.28063963e+00  -5.14191900e-02
C     8.653373059050001e+00   3.695320699713443e+00   3.587552431999999e+00  1.76539623e+00  -2.83440160e-01  -6.94093320e-01
C     2.468239429050000e+00   4.145920055932856e+00   1.357445634400000e+01 -1.97177077e+00   2.46040386e+00   1.51953030e-01
C     3.685638420000000e+00   4.856849292032338e+00   1.357558378400000e+01 -1.77127400e-02   8.72956240e-01  -8.12198150e-01
C     3.765689923575000e+00   5.093345406073524e+00   3.428642280000000e+00  4.53069490e-01   1.12232086e+00  -1.11279020e-01
C     5.015425326825000e+00   5.802092967690419e+00   3.461874831999999e+00 -6.78839340e-01   9.56007990e-01   1.86877520e-01
C     4.897625047425000e+00   4.135406890272458e+00   1.345015044000000e+01  1.02430411e+00   2.50653368e+00   3.72539340e-01
C     6.147989987024999e+00   4.868471418983773e+00   1.341860075200000e+01 -5.76389000e-01  -6.42768450e-01  -4.35764790e-01
C     6.234984434249999e+00   5.115548775946409e+00   3.490762864000000e+00 -8.06150160e-01  -1.61229065e+00   4.14421900e-02
C     7.436828486400000e+00   5.821209869530255e+00   3.539900888000000e+00  1.39446058e+00  -1.34335454e+00  -7.20527770e-01
C     7.381766832375000e+00   4.103945717364893e+00   1.335989322400000e+01 -8.80929400e-01   3.04448374e+00   1.40330770e+00
C     8.571654426675000e+00   4.850301386668538e+00   1.352665574400000e+01  2.35833068e+00   1.11847625e+00  -1.08597065e+00
C     8.696163487049999e+00   5.074638248651572e+00   3.450340263999999e+00 -4.12995770e-01   3.16485030e+00   8.25406480e-01
C     9.937624365975001e+00   5.844294337199519e+00   3.425375016000000e+00 -6.94742450e-01  -2.05268431e+00  -4.64710100e-02
C     7.422665619375000e+00   6.512227243261741e-02   6.805019760000000e+00  6.56219290e-01   1.18452266e+00   2.61574380e-01
C     1.271302144275000e+00   7.814017536335011e-01   6.902867408000000e+00 -9.11795470e-01   1.44550495e+00  -2.29182360e-01
C     1.140569969550000e+00   5.939828765102233e-01   1.012840293600000e+01  1.45704222e+00   4.72922610e-01  -5.42523940e-01
C     2.395850846325000e+00   1.325321906026318e+00   1.017778208800000e+01 -4.39624800e-02  -1.24681536e+00  -2.97795150e-01
C     2.486808569850000e+00   8.984430883668242e-02   6.929634928000000e+00  1.20779530e+00  -9.14818110e-01  -1.85105390e-01
C     3.773918118225000e+00   7.993297050016278e-01   6.946552104000000e+00 -2.07414937e+00  -8.96386900e-01  -3.17465900e-02
C     3.661857394125000e+00   5.966687582141286e-01   1.007894109600000e+01 -3.77187426e+00  -6.31560350e-01   7.74945960e-01
C     4.821272227050001e+00   1.278766986066570e+00   1.013106894400000e+01  3.75878202e+00   1.69491795e+00  -8.08516940e-01
C     4.980605377725000e+00   8.267121982058941e-02   6.878780991999999e+00  5.63161790e-01  -1.42066160e-01  -4.29142170e-01
C     6.206235706199999e+00   8.138988152499204e-01   6.803624536000000e+00 -2.75727640e-01  -1.52548307e+00   6.20688360e-01
C     6.099939384600000e+00   6.049718144870401e-01   1.002199232000000e+01 -9.99512580e-01   1.87776510e-01   5.01744010e-01
C     7.323123705900000e+00   1.289054529722560e+00   1.004655922400000e+01 -3.18497680e-01   1.57352612e+00   7.33249600e-01
C     8.636267758499999e+00   2.256453415234418e+00   6.930393944000000e+00  1.39986294e+00  -1.50151488e+00   4.83421590e-01
C     2.497807929825000e+00   2.958852884332746e+00   7.035607487999999e+00 -3.10489120e-01  -2.56815483e+00  -1.36964983e+00
C     2.390480005725000e+00   2.742881456094180e+00   1.021811452000000e+01 -1.36005320e-01  -1.29085607e+00  -4.68409820e-01
C     3.620974210575000e+00   3.399962411255210e+00   1.020099864800000e+01  6.31890050e-01   2.50173427e+00  -4.62209390e-01
C     3.731870074275000e+00   2.197111369775923e+00   6.986010192000000e+00  7.03327920e-01   2.14140914e+00   6.35776900e-02
C     4.974971016300000e+00   2.962711641821131e+00   6.949504528000000e+00 -1.09265646e+00  -2.79468655e+00  -2.00957750e-01
C     4.859002071675000e+00   2.699114885964097e+00   1.012585878400000e+01 -6.50819590e-01   9.95366390e-01   2.44087470e-01
C     6.090140528925001e+00   3.452474635918909e+00   1.004581652800000e+01 -1.33827470e-01  -1.81383433e+00   7.43818310e-01
C     6.201999591374999e+00   2.197273781755253e+00   6.904970103999999e+00  8.63048900e-02   2.91003552e+00  -2.86206590e-01
C     7.434818895149999e+00   2.964274280738971e+00   6.915185200000000e+00 -7.62436630e-01  -2.31288880e-01  -2.13713420e-01
C     7.320904318499999e+00   2.724723143570829e+00   1.010700129600000e+01  5.82416070e-01   3.68550930e-01  -7.11746530e-01
C     8.563760596950001e+00   3.442477013016242e+00   1.009841085600000e+01 -9.23242920e-01   7.20411670e-01   6.67273210e-01
C     9.869632184699999e+00   4.327585668007603e+00   6.858756080000001e+00  1.79213889e+00   1.48639604e+00   6.93912070e-01
C     3.720449901825000e+00   5.070562899162361e+00   6.848098304000000e+00 -1.08177448e+00  -6.88415730e-01  -1.62941030e-01
C     3.581758673475000e+00   4.882856791074062e+00   1.012333802400000e+01  2.17296311e+00  -1.42398767e+00  -2.77133840e-01
C     4.819928814375000e+00   5.595600225340125e+00   1.005827276800000e+01  1.30575979e+00  -1.80751981e+00   7.34720800e-01
C     4.921821561374999e+00   4.355310789007379e+00   6.898146984000000e+00  1.91846412e+00   2.81378260e-01   2.50112700e-02
C     6.179944225725000e+00   5.037908869185793e+00   6.893308919999999e+00 -7.43970400e-02   2.60781517e+00   1.23407460e-01
C     6.090768105600000e+00   4.834953390579313e+00   1.007142546400000e+01 -3.35935040e-01   2.70654446e+00  -3.15384860e-01
C     7.354637794200000e+00   5.578173535234701e+00   1.004682809600000e+01 -1.95668728e+00  -5.33292970e-01   1.66309400e-01
C     7.443550097699999e+00   4.415875791546820e+00   6.903611871999999e+00 -1.32495686e+00  -3.02184611e+00  -1.52011700e-02
C     8.677539364425000e+00   5.045236492944047e+00   6.868031960000001e+00 -5.38261580e-01   2.17014082e+00  -8.48549300e-02
C     8.558806427625001e+00   4.887771418555826e+00   1.006421936800000e+01  6.41913780e-01  -9.83474330e-01   1.20387600e-02
C     9.798472281224999e+00   5.617384948876701e+00   1.005245890400000e+01 -1.22541103e+00  -1.39167457e+00   2.32465640e-01
