72
Lattice="7.395 0 0 3.6975 6.40425786098592 0 0 0 13.6 " PBC="1 1 1" Properties=species:S:1:pos:R:3:force:R:3 Energy="-580.75336725"
C     3.699598368225000e+00   6.216407079726644e+00   5.650419199999999e-02 -5.12293500e-02   1.88521656e+00  -2.02260180e-01
C     1.213606613100000e+00   6.009809371590024e-01   4.623048000000000e-03  9.72536100e-02  -2.15342152e+00   2.79630410e-01
C     1.347022026600000e+00   8.956568519422524e-01   3.330871064000000e+00 -6.11715310e-01   2.29061420e-01   1.44788370e-01
C     2.553688210350000e+00   1.671101300871803e+00   3.195764448000000e+00 -4.63902530e-01  -1.80982412e+00   4.61516940e-01
C     6.113836956000000e+00   6.244804647801721e+00   1.236702400000000e-01  1.51036884e+00   7.57676150e-01  -2.18480970e-01
C     3.673363163700000e+00   5.855346357116257e-01   1.099075840000000e-01  2.80779920e-01  -7.41554010e-01  -5.16405020e-01
C     3.755658975825000e+00   8.843208672320023e-01   3.280307216000000e+00  9.34613800e-01   1.47202431e+00   5.90911850e-01
C     4.990257035925000e+00   1.599794948964412e+00   3.442305247999999e+00  6.22109780e-01  -2.56680400e-02  -6.39469080e-01
C     8.640106502999998e+00   6.273720896720878e+00   1.818393440000000e-01 -1.76556567e+00  -1.35458781e+00  -6.49934960e-01
C     6.177596313225000e+00   5.564566792815030e-01   1.403254800000000e-01 -5.87377360e-01  -2.01049730e-01  -1.55499610e-01
C     6.244231216199999e+00   8.998513846702381e-01   3.542273952000000e+00 -3.52074930e-01   7.78309620e-01  -4.98604310e-01
C     7.484800442999999e+00   1.574995036784770e+00   3.407054456000000e+00  6.22143430e-01   2.19539344e+00  -1.29920550e-01
C     1.211740226025000e+00   2.013806011518702e+00   1.353926430400000e+01 -1.44856420e-01  -1.01618301e+00   3.55228160e-01
C     2.414097860925000e+00   2.735769655825807e+00   1.346392452000000e+01  1.92641489e+00  -1.98831690e+00   2.18646170e-01
C     2.539872168825000e+00   3.087518139209704e+00   3.214654984000000e+00  1.30532467e+00  -9.81181460e-01   9.08500690e-01
C     3.820740596025000e+00   3.740121109189865e+00   3.435941264000000e+00 -2.05557277e+00   1.31171382e+00  -7.99416340e-01
C     3.680311949400000e+00   2.000798643592149e+00   1.350744030400000e+01 -7.24060000e-03  -2.58801120e-01   1.51802760e+00
C     4.937454480450000e+00   2.690467024448003e+00   1.418001280000000e-01 -1.40483958e+00  -3.59147860e-01  -9.22392410e-01
C     5.035514251050000e+00   3.036968883622674e+00   3.395617944000000e+00 -1.72901456e+00  -1.82908527e+00   7.03248220e-01
C     6.220551316949999e+00   3.724617873890113e+00   3.433781720000000e+00  2.69265676e+00   1.06167920e+00  -3.66936190e-01
C     6.165542167424999e+00   1.994378951470706e+00   1.896974240000000e-01 -1.12138470e+00  -2.00940149e+00  -2.99127040e-01
C     7.370644271700000e+00   2.663045529313369e+00   1.259090720000000e-01  9.60741580e-01   7.60594100e-02   6.45487300e-02
C     7.481343317475000e+00   3.059718280520702e+00   3.330345560000000e+00 -1.12951128e+00  -2.66578500e+00   2.71375840e-01
C     8.685657410550000e+00   3.760801418458485e+00   3.254848832000000e+00  1.28487547e+00  -1.05150900e-02   8.58139070e-01
C     2.453651349525000e+00   4.111109776377404e+00   1.353696372800000e+01 -9.71398780e-01   1.57633279e+00   2.63064290e-01
C     3.698321029875000e+00   4.809048743918820e+00   1.358206500000000e+01 -6.82321670e-01   2.80467300e-01   5.29704300e-01
C     3.819885660075000e+00   5.175433518215961e+00   3.549775576000000e+00 -5.31633030e-01   2.80458000e-02  -4.34717420e-01
C     5.065158587549999e+00   5.859079783278322e+00   3.464442784000000e+00 -1.31158372e+00   1.46130471e+00  -1.92337250e-01
C     4.902823029900000e+00   4.103060841056378e+00   1.395005040000000e-01  8.07265210e-01   1.90644570e-01  -2.26360450e-01
C     6.117948132300000e+00   4.819399113344416e+00   2.468455760000000e-01  1.24526860e+00  -5.99895860e-01  -1.98687100e-01
C     6.256708947600000e+00   5.149243882080698e+00   3.406167056000000e+00  1.91093590e-01  -3.98283060e-01  -1.74087460e-01
C     7.466659546650000e+00   5.873296851472050e+00   3.328151336000000e+00  1.05370026e+00  -5.93543530e-01   7.71641720e-01
C     7.384539772500000e+00   4.021099405134412e+00   2.694918880000000e-01 -8.12513500e-01   4.94429585e+00  -1.26370909e+00
C     8.591811200024999e+00   4.794579988391193e+00   9.320501599999999e-02  7.41630570e-01   1.08563240e+00   6.56653810e-01
C     8.718588528749999e+00   5.141379965769247e+00   3.443772688000000e+00 -5.35941500e-02   2.98422465e+00  -5.88438540e-01
C     9.965093685075001e+00   5.920449544860451e+00   3.561221336000000e+00 -5.22430620e-01  -3.32526400e+00  -4.14761650e-01
C     7.418653462124999e+00   1.051839793906902e-01   6.873880639999999e+00  7.28080300e-01   4.29325480e-01  -5.16623400e-02
C     1.259815453800000e+00   8.267270560841293e-01   6.770161736000000e+00 -5.77120080e-01   9.82514900e-01   2.48117500e-02
C     1.125998639700000e+00   5.507087938095745e-01   1.014178316000000e+01  7.13438240e-01   5.99229460e-01   1.35877100e-01
C     2.347298234325000e+00   1.259415560303901e+00   9.942724856000000e+00  1.04317864e+00   2.22885610e-01   9.56155140e-01
C     2.490394812075000e+00   1.471992411663774e-01   6.792138384000000e+00  4.79750180e-01  -1.75500772e+00   2.41765530e-01
C     3.762475612875000e+00   8.238254789754991e-01   6.778171592000000e+00 -7.53227270e-01  -8.95004960e-01   5.51134700e-02
C     3.628386366975000e+00   5.400584489458158e-01   1.005251248800000e+01 -2.61177537e+00   4.28168320e-01  -3.61430320e-01
C     4.826415190724999e+00   1.244270387061101e+00   1.008435960800000e+01  1.10652364e+00   8.63942240e-01   8.91262610e-01
C     4.997756970975000e+00   1.005334635030726e-01   6.904826080000000e+00 -1.99983460e-01   9.24683740e-01  -2.06044190e-01
C     6.227818087649999e+00   8.520159333513828e-01   6.924375671999999e+00 -1.22640837e+00  -8.58274900e-01  -8.62480610e-01
C     6.061571573324999e+00   5.880942254505318e-01   1.027423328800000e+01  2.32686910e-01  -1.28616038e+00  -5.89372120e-01
C     7.306416145425000e+00   1.262919842119736e+00   1.027041604000000e+01 -5.14618260e-01   7.52799780e-01  -7.53516410e-01
C     8.622682736774999e+00   2.276169243269321e+00   6.699515584000000e+00  1.03023931e+00  -4.87472980e-01  -1.81727800e-01
C     2.499053691525000e+00   2.963668373902837e+00   6.628226832000000e+00 -8.27887670e-01  -1.38699955e+00   1.00293896e+00
C     2.356495765575000e+00   2.721502634420771e+00   9.918735816000000e+00  5.69021590e-01  -2.49665945e+00   6.26778510e-01
C     3.596105010450000e+00   3.372163769375201e+00   9.977135032000000e+00  5.56875190e-01   1.77278538e+00   8.63230520e-01
C     3.727955568000000e+00   2.219631750412877e+00   6.682040536000000e+00  6.04151980e-01   1.95620064e+00   1.77673880e-01
C     4.956715941150000e+00   2.993472188918812e+00   6.751348312000000e+00 -4.54633670e-01  -2.72593528e+00   2.83074800e-02
C     4.836884551050000e+00   2.652250768434868e+00   1.011053784000000e+01 -8.79399790e-01   1.42239570e+00  -4.25010300e-01
C     6.047634993299999e+00   3.392628191111359e+00   1.022841624800000e+01  7.46111320e-01  -4.73207400e-01  -4.36870780e-01
C     6.205334736375000e+00   2.257147572743864e+00   6.778860024000000e+00 -6.48230800e-01   1.50963131e+00   3.76753080e-01
C     7.406037740024999e+00   3.016615831930701e+00   6.731528216000000e+00  6.03292060e-01  -5.10968840e-01   3.67990980e-01
C     7.300814543850000e+00   2.674480844063028e+00   1.019382492000000e+01  6.59606850e-01   1.31990900e+00   2.52022550e-01
C     8.566971579899999e+00   3.418125206759063e+00   1.010702876800000e+01 -2.44412882e+00   1.25829950e-01  -1.20148570e-01
C     9.865205833499999e+00   4.356887325164775e+00   6.803546744000000e+00  1.19893375e+00   4.67446400e-01  -4.16620900e-01
C     3.684359380799999e+00   5.092551854482092e+00   6.840993528000000e+00  6.31625550e-01  -1.79003250e-01   9.96360700e-02
C     3.551234553825000e+00   4.824533470913356e+00   1.013934617600000e+01  2.37665206e+00  -3.74275700e-01   1.61859410e-01
C     4.816348155375000e+00   5.557168658177737e+00   1.021861568000000e+01 -1.45711940e-01  -2.08131718e+00  -6.05019710e-01
C     4.911438685575000e+00   4.374386127213703e+00   6.822657192000000e+00  1.35372975e+00   1.27898832e+00  -1.34383680e-01
C     6.171209399624999e+00   5.082302416160370e+00   6.867390311999999e+00 -5.05692100e-01   2.54675863e+00  -5.36798240e-01
C     6.048732707099999e+00   4.812337010117036e+00   1.020020386400000e+01  3.82969380e-01   1.05760233e+00   3.04817300e-02
C     7.317306244275000e+00   5.541541372403237e+00   1.016192652800000e+01 -1.52727896e+00  -8.19014230e-01   1.01830840e-01
C     7.424793382724999e+00   4.465627076604494e+00   6.811277936000001e+00 -8.60857430e-01  -3.13912199e+00  -6.84925900e-02
C     8.675468246774999e+00   5.078741136449580e+00   6.872135896000000e+00 -6.33116140e-01   1.80521501e+00  -1.41980280e-01
C     8.540021574674999e+00   4.849568099143568e+00   1.016919776800000e+01 -3.18589900e-02  -8.02927650e-01  -5.93022000e-02
C     9.757269116025000e+00   5.565753565839067e+00   1.020565202400000e+01 -2.17979450e-01  -2.35372460e-01  -9.60272700e-02
