72
Lattice="7.395 0 0 3.6975 6.40425786098592 0 0 0 13.6 " PBC="1 1 1" Properties=species:S:1:pos:R:3:force:R:3 Energy="-579.46285228"
C     3.654838208025000e+00   6.326885138877303e+00   1.352141498400000e+01 -1.27068760e-01   1.14905400e-01  -5.66381020e-01
C     1.234204424250000e+00   5.478030539333353e-01   1.348924513600000e+01 -2.12837478e+00   3.88603683e+00   3.09807740e-01
C     1.243182989550000e+00   8.264614074680964e-01   3.559425320000000e+00  1.79675081e+00  -4.23921250e-01   2.72514700e-01
C     2.525747312100000e+00   1.471580874053691e+00   3.609316511999999e+00  2.47177300e-01   1.05135902e+00  -1.84727400e-02
C     6.153056412450000e+00   6.325973236600618e+00   1.344736189600000e+01  6.36122600e-02  -1.72615414e+00  -3.00063730e-01
C     3.681101994225000e+00   6.230181805829983e-01   1.350420908000000e+01 -6.32625670e-01  -7.55606750e-01   4.88666300e-02
C     3.812899825425000e+00   8.512404417671156e-01   3.563881768000000e+00 -2.55998296e+00  -2.34118614e+00  -2.42974250e-01
C     5.003036150550000e+00   1.549971551963234e+00   3.492525152000000e+00  3.41568210e-01   4.74978510e-01  -1.58454050e-01
C     8.573828815499999e+00   6.311987618285950e+00   1.343963097600000e+01  1.82605821e+00   1.21178097e+00   5.43933800e-02
C     6.077028528374999e+00   6.363946258900230e-01   1.339308021600000e+01  2.41968171e+00  -6.78078800e-02   6.21733950e-01
C     6.216357686399999e+00   8.197918852475353e-01   3.447832016000000e+00  8.42905580e-01  -6.88812000e-03   2.78839890e-01
C     7.459635886575000e+00   1.574474434663330e+00   3.569013048000000e+00 -1.59993985e+00  -2.25860395e+00  -5.44234120e-01
C     1.205470301325000e+00   2.035804893438116e+00   1.352754940000000e+01  7.60175210e-01  -5.24847160e-01  -1.64145810e-01
C     2.457272052450000e+00   2.706509562302146e+00   2.357043200000000e-02 -7.18988800e-01   2.14277851e+00  -1.73150300e-02
C     2.535052662450000e+00   2.880150126937684e+00   3.629812120000000e+00 -1.09544403e+00   2.28235002e+00  -5.57441660e-01
C     3.705918874725000e+00   3.663027165411815e+00   3.462358312000000e+00  1.92605502e+00  -7.43652570e-01   4.37185650e-01
C     3.702695911875000e+00   2.006305728968541e+00   2.064806400000000e-02 -6.18626770e-01   1.78196004e+00  -1.42345791e+00
C     4.892143651575000e+00   2.739900274060350e+00   1.332639275200000e+01  2.05323190e-01   1.63641728e+00   1.23201056e+00
C     4.948612500149999e+00   2.965997154188468e+00   3.447026352000000e+00  2.20728300e+00   1.38778662e+00   1.66116190e-01
C     6.260774570699999e+00   3.719940844374956e+00   3.472109376000000e+00 -2.46950684e+00  -2.48970805e+00   3.27426140e-01
C     6.109435784775000e+00   2.044126458016243e+00   1.328787061600000e+01  1.83173008e+00   1.29234228e+00   4.88572160e-01
C     7.413732052649999e+00   2.815341855267942e+00   1.336569920000000e+01 -1.68246487e+00  -1.39893753e+00  -2.07001380e-01
C     7.470409809975000e+00   2.956309113110753e+00   3.614343616000000e+00  1.16529870e-01   2.25388677e+00  -3.25287570e-01
C     8.718755507850000e+00   3.657547362173906e+00   3.656377680000000e+00 -1.17415702e+00  -3.72270600e-02  -1.09353194e+00
C     2.430691427475000e+00   4.196357108922179e+00   1.414726400000000e-02  2.50564588e+00  -1.74638082e+00  -2.71421270e-01
C     3.686029171800000e+00   4.932198587884168e+00   1.357553591200000e+01 -3.38735640e-01  -1.73815141e+00  -6.39045490e-01
C     3.728594939700000e+00   5.097094266497033e+00   3.438167992000000e+00 -4.71397550e-01  -1.16454976e+00   7.66849300e-02
C     4.926076533450000e+00   5.819869586445315e+00   3.512996552000000e+00  1.61742899e+00  -9.09856130e-01  -3.93249670e-01
C     4.926565638750000e+00   4.216368429414742e+00   1.335327260800000e+01 -1.23893630e+00  -1.65507047e+00   4.43575610e-01
C     6.152413306274999e+00   4.889412829845345e+00   1.326107752800000e+01  2.62085810e-01   1.69665365e+00   9.50631260e-01
C     6.205574888999999e+00   5.099683892205302e+00   3.505999216000000e+00  3.48437590e-01   1.83643687e+00   2.04580550e-01
C     7.478310332174999e+00   5.811606876996921e+00   3.539351720000000e+00 -1.80381247e+00   9.55494530e-01  -3.69868050e-01
C     7.407371058524999e+00   4.260362414741434e+00   1.330790967200000e+01  5.75086640e-01  -3.09220241e+00   6.25082780e-01
C     8.667319326525000e+00   4.926849431506604e+00   1.347691592000000e+01 -2.86558774e+00  -1.01498929e+00  -3.25007840e-01
C     8.663701470675001e+00   5.116956111611144e+00   3.455703288000000e+00  1.08051235e+00  -3.13338317e+00   1.01120185e+00
C     9.892604012700000e+00   5.763615353914018e+00   3.402755088000000e+00  6.19480520e-01   3.29253334e+00   3.00424630e-01
C     7.418411238899999e+00   1.004509126192572e-01   6.667661664000000e+00 -1.01174720e-01  -1.30276422e+00   4.43170960e-01
C     1.253364055800000e+00   7.995135712447884e-01   6.824154552000000e+00  1.09274858e+00  -1.99654749e+00   4.97094510e-01
C     1.177121790675000e+00   6.256461037532707e-01   1.015265704000000e+01 -1.06583200e+00  -1.09960584e+00  -5.55197000e-03
C     2.403622140900000e+00   1.300416707847457e+00   1.022391560000000e+01 -7.05014350e-01   1.59897641e+00  -3.82600020e-01
C     2.504117158950000e+00   5.663823183258240e-02   7.008423128000000e+00 -1.85931640e+00   1.02337155e+00  -9.49594590e-01
C     3.662946159975000e+00   7.998323111584806e-01   7.090550127999999e+00  2.63812649e+00   1.12076959e+00  -8.63648630e-01
C     3.589467406350000e+00   6.150056214466164e-01   1.003877186400000e+01  3.38390680e+00   1.65028700e-02   6.85050130e-01
C     4.909176333225000e+00   1.344156059881635e+00   1.010822978400000e+01 -3.28242721e+00  -7.26631530e-01  -3.88362420e-01
C     4.905399632775000e+00   9.241478581395061e-02   6.825456888000000e+00 -7.78760300e-02   1.84342530e-01   3.04674810e-01
C     6.155546050124999e+00   7.624628261195947e-01   6.674726864000000e+00  4.09228790e-01   1.42310233e+00   1.30418373e+00
C     6.082014755025000e+00   5.868452670826747e-01   1.004036619200000e+01  1.18641347e+00   1.44622320e-01   6.60372660e-01
C     7.314818973000000e+00   1.338915903972847e+00   1.014565385600000e+01  4.01490740e-01  -1.78235423e+00   1.92626500e-02
C     1.317466208250000e+00   2.171552424954713e+00   6.884886304000000e+00 -2.18980622e+00   1.99985853e+00   4.21015960e-01
C     2.490944519400000e+00   2.942263358814780e+00   7.040521576000000e+00  5.00160090e-01   1.52290134e+00  -8.65899260e-01
C     2.391755088600000e+00   2.732066393718262e+00   1.029742142400000e+01 -1.08623900e-02   1.34550720e+00  -5.05410460e-01
C     3.628098775425000e+00   3.509729469698252e+00   1.031142140000000e+01 -1.70209390e-01  -3.90384582e+00  -6.43106080e-01
C     3.715787095500000e+00   2.270445822062418e+00   7.139597032000000e+00 -2.89891740e-01  -2.53883258e+00  -9.52844320e-01
C     4.962424881150000e+00   2.893138089962921e+00   6.987938536000000e+00  6.49955880e-01   2.49945671e+00  -3.76331130e-01
C     4.859212348500000e+00   2.778013101309046e+00   1.019319020800000e+01  4.36903590e-01  -1.13717442e+00   4.28132850e-01
C     6.094570540649999e+00   3.440734798708007e+00   1.017168371200000e+01 -2.45791030e-01   2.10602068e+00  -4.16582130e-01
C     6.185985570974999e+00   2.206639240364559e+00   6.868251192000000e+00 -2.23811040e-01  -2.21460964e+00  -3.94760060e-01
C     7.425289513275000e+00   2.862103120415939e+00   6.889162143999999e+00  1.00285435e+00   3.78615730e-01  -2.28807280e-01
C     7.305639078824999e+00   2.741437680202221e+00   1.019340522400000e+01  2.44206480e-01  -2.20341410e-01  -5.52875280e-01
C     8.536878588750000e+00   3.441875140862559e+00   1.015615904000000e+01  1.24893512e+00  -3.43937590e-01   4.02950940e-01
C     9.919550135549999e+00   4.404377330814661e+00   6.833636336000001e+00 -1.85226909e+00  -1.83072103e+00   4.55893290e-01
C     3.757085767125000e+00   5.048863992681109e+00   6.761864648000000e+00  6.89161240e-01   1.37816671e+00   4.06185900e-02
C     3.678340183575000e+00   4.861607847750054e+00   1.023472256800000e+01 -1.84210936e+00   2.23499460e+00  -7.57993120e-01
C     4.903877298075000e+00   5.573709191123074e+00   1.012701029600000e+01 -1.51663134e+00   2.09226529e+00   2.74839900e-01
C     5.021458870349999e+00   4.349001506291442e+00   6.853190008000000e+00 -2.34935673e+00  -8.52855530e-01   4.24350960e-01
C     6.219842210400000e+00   5.065971238404477e+00   6.899833928000000e+00  5.86507760e-01  -2.18935993e+00   1.80923090e-01
C     6.108813347625000e+00   4.911586163748865e+00   1.006903730400000e+01  8.30657700e-02  -2.58105505e+00   3.20142710e-01
C     7.301754559275000e+00   5.606570334798834e+00   9.950332015999999e+00  2.16565129e+00  -1.67620630e-01   5.97143190e-01
C     7.422871089449999e+00   4.255711322470608e+00   6.931088087999999e+00  8.69802300e-01   3.74922503e+00  -4.91749430e-01
C     8.634027665100000e+00   5.092976841033682e+00   6.814533096000000e+00  3.94474050e-01  -2.38555450e+00   4.58923850e-01
C     8.572238335874999e+00   4.847710608193854e+00   9.999170296000001e+00 -1.18871880e+00   7.41399970e-01   5.54869470e-01
C     9.792138500700000e+00   5.531723837231592e+00   1.007684955200000e+01  9.46751990e-01   1.75345899e+00   8.43557000e-02
