72
Lattice="7.395 0 0 3.6975 6.40425786098592 0 0 0 13.6 " PBC="1 1 1" Properties=species:S:1:pos:R:3:force:R:3 Energy="-582.46799191"
C     3.715824144450000e+00   6.333342359949805e+00   1.338284077600000e+01 -8.94095280e-01   1.43125000e+00   6.27387420e-01
C     1.239509967000000e+00   6.653900954789088e-01   1.343256332800000e+01 -7.53748280e-01   1.96393780e-01  -2.41102290e-01
C     1.277402982300000e+00   8.006572436134273e-01   3.599162072000000e+00 -1.13012540e-01  -1.31298330e-01  -4.47544110e-01
C     2.510909984100000e+00   1.519902152373805e+00   3.583624616000000e+00 -8.85588090e-01   6.08383210e-01  -1.29417030e-01
C     6.140147737425000e+00   6.365725297691159e+00   1.341317095200000e+01  1.22296468e+00  -8.85186790e-01   3.81747800e-02
C     3.691808290350000e+00   6.796412343244524e-01   1.342032550400000e+01  1.86702690e-01  -9.55251010e-01   2.33802670e-01
C     3.714870891975000e+00   7.865811331351974e-01   3.526801504000000e+00  8.40123080e-01   9.18054940e-01  -7.99397800e-02
C     4.949508922050001e+00   1.488398711364365e+00   3.474885952000000e+00  6.70678560e-01   5.00507110e-01   7.79663650e-01
C     8.633976269849999e+00   6.340733770116346e+00   1.343272204000000e+01 -1.28138402e+00   1.62042030e-01   1.03086600e-01
C     6.155618927850000e+00   6.437895583983865e-01   1.340474031200000e+01  6.00390950e-01  -1.65070440e-01  -2.69197540e-01
C     6.210159973875000e+00   7.829951329890691e-01   3.522936928000000e+00 -9.15762740e-01   4.33877770e-01  -6.20689600e-02
C     7.429827455024999e+00   1.494785869855879e+00   3.578061400000000e+00  7.22206180e-01   7.42612900e-01  -1.61887090e-01
C     1.227336059175000e+00   2.098091680703218e+00   1.343679075200000e+01 -6.93465130e-01  -5.57209080e-01  -2.02971170e-01
C     2.432022120750000e+00   2.804268381087374e+00   1.349331752000000e+01  1.55261893e+00  -7.69262700e-02  -2.04113160e-01
C     2.493447874800000e+00   2.964461156983326e+00   3.566272512000000e+00  1.01680512e+00  -1.30709383e+00  -2.93706350e-01
C     3.763274605649999e+00   3.644082794278727e+00   3.491435112000000e+00 -1.80131845e+00   6.25327830e-01   5.79708590e-01
C     3.697371622800000e+00   2.090941134674793e+00   1.345246257600000e+01 -9.17817850e-01  -5.72918600e-02  -1.61180200e-01
C     4.925714474249999e+00   2.784834788696361e+00   1.334835648000000e+01 -1.92205620e-01  -1.40815960e-01   2.34483920e-01
C     4.955232208350000e+00   2.932789027821853e+00   3.547932232000000e+00  6.20569440e-01  -1.57943275e+00  -7.64363940e-01
C     6.186826012725000e+00   3.621753388611158e+00   3.546962280000000e+00  1.23654028e+00   3.21495260e-01  -2.41011600e-02
C     6.142233386249999e+00   2.059111460769964e+00   1.330747828000000e+01  6.97468320e-01   5.71114750e-01   3.81946770e-01
C     7.384495291575000e+00   2.800157808179932e+00   1.329508840800000e+01 -3.65135320e-01  -1.57629614e+00   5.06298210e-01
C     7.450288236824999e+00   2.933172834995403e+00   3.569560312000000e+00 -1.80734677e+00  -1.16737707e+00   9.83051000e-03
C     8.644901384024999e+00   3.641297134237363e+00   3.569674688000000e+00  1.02560044e+00   8.83250250e-01  -1.40067090e-01
C     2.441222055375000e+00   4.221843109246363e+00   1.348572640800000e+01  4.42415500e-02   2.53292880e-01  -4.24911000e-02
C     3.685770309825000e+00   4.946177225557769e+00   1.343035319200000e+01  1.30437140e-01  -1.74059371e+00  -1.59929750e-01
C     3.768698098650000e+00   5.072909867540315e+00   3.505095360000000e+00 -1.07247678e+00  -3.49449290e-01   9.28930000e-04
C     4.971734446650000e+00   5.779532112143790e+00   3.513296568000000e+00  1.31528995e+00  -1.44950660e-01   3.20282980e-01
C     4.916161687200000e+00   4.200253139191309e+00   1.334046562400000e+01 -2.06717320e-01   8.62561150e-01   4.78634200e-01
C     6.133330952474999e+00   4.917411348613164e+00   1.333880846400000e+01  4.96606010e-01   4.63564140e-01  -1.60465410e-01
C     6.217564365525000e+00   5.032197295855930e+00   3.527616688000000e+00 -9.59195940e-01   1.40123601e+00   6.42665800e-02
C     7.430287424025000e+00   5.791292827235315e+00   3.545547880000000e+00 -9.50860300e-02  -1.65674660e+00  -2.12673590e-01
C     7.373805782100000e+00   4.187523908183617e+00   1.328848384000000e+01 -2.30274180e-01   1.69490912e+00   1.07483400e+00
C     8.593419834375000e+00   4.909518869311657e+00   1.346556264000000e+01  5.85620750e-01   4.40422220e-01  -7.54507270e-01
C     8.652480482549999e+00   5.067203545701898e+00   3.544136336000000e+00  8.81191110e-01   5.57509030e-01   4.72921200e-02
C     9.918244474349999e+00   5.777307401048383e+00   3.539854376000000e+00 -7.22841630e-01  -7.51756720e-01  -3.15979620e-01
C     7.402681999950000e+00   5.734718317768440e-02   6.682331168000000e+00  1.78141555e+00  -8.25612300e-01   8.16001220e-01
C     1.254265173525000e+00   7.826762009476410e-01   6.821844319999999e+00  5.13150300e-02  -1.37857169e+00  -8.55975300e-02
C     1.171912161075000e+00   6.335643281713746e-01   1.025124901600000e+01  1.17056163e+00  -2.50519090e-01  -6.20001950e-01
C     2.418983071875000e+00   1.325938379887922e+00   1.018681548000000e+01 -3.11304470e-01   8.25501910e-01   3.41844740e-01
C     2.504499813225000e+00   6.485470253922661e-02   6.920259088000001e+00 -1.40657168e+00  -9.24997590e-01  -2.68377920e-01
C     3.735056875575000e+00   7.332924562485522e-01   6.968236215999999e+00  4.28262240e-01   7.89097350e-01  -2.61218650e-01
C     3.649368903000000e+00   6.110673871181880e-01   1.008296669600000e+01 -5.39168120e-01   1.60122298e+00   7.61669430e-01
C     4.879943676374999e+00   1.335162688653994e+00   1.018113244800000e+01  2.06888290e-01   4.78745640e-01  -1.98574790e-01
C     4.983674487599999e+00   3.526850420533440e-02   6.880647047999999e+00  2.54386900e-02   7.64312160e-01  -4.58515880e-01
C     6.222493243949999e+00   7.797432429754968e-01   6.747007600000000e+00 -2.12851777e+00  -4.78265240e-01   6.11769440e-01
C     6.109573331775000e+00   6.560326421919270e-01   1.016900505600000e+01  6.56003750e-01  -9.53736370e-01   1.31961930e-01
C     7.361642042400000e+00   1.363250418733804e+00   1.024368524000000e+01 -1.31266816e+00  -5.13072760e-01  -3.17333100e-02
C     8.646417285075000e+00   2.173565219157532e+00   6.858104912000001e+00 -4.58588710e-01   1.65356399e+00   1.40844450e-01
C     2.496271322775000e+00   2.876547411678541e+00   6.954668448000001e+00 -8.56730370e-01   1.74914610e-01  -8.76982510e-01
C     2.413724080650000e+00   2.780332211165309e+00   1.027324144000000e+01  5.83025860e-01  -1.48439489e+00  -4.49629620e-01
C     3.631597128075000e+00   3.491788453644091e+00   1.029581866400000e+01  1.41604973e+00  -9.68844210e-01  -3.01062880e-01
C     3.705612278025000e+00   2.162391966639504e+00   6.979161503999999e+00  1.65602405e+00   6.17552460e-01  -1.70788310e-01
C     4.964841049500000e+00   2.912861410979520e+00   6.933258104000000e+00 -1.53284282e+00  -1.22520436e+00  -3.09380700e-01
C     4.907920329450000e+00   2.760698293588435e+00   1.027767966400000e+01 -2.34825193e+00  -1.39423600e-01  -3.92844980e-01
C     6.108650620650000e+00   3.453213495148217e+00   1.022552393600000e+01  6.65842490e-01   1.38569406e+00   1.39025020e-01
C     6.181051959750000e+00   2.196621508092211e+00   6.827466832000000e+00  6.27250960e-01   6.66310170e-01   3.94613600e-02
C     7.401635644424999e+00   2.937400285608789e+00   6.809791864000000e+00  7.06841770e-01  -1.44794389e+00   2.53496480e-01
C     7.340478439800000e+00   2.768454362197524e+00   1.025256631200000e+01  1.33952291e+00   3.81858540e-01  -5.11522380e-01
C     8.608364833574999e+00   3.482513038900295e+00   1.021761880000000e+01 -1.82018226e+00   5.61876850e-01   8.42080300e-02
C     9.870511413225000e+00   4.300659670303597e+00   6.792677896000000e+00  8.00054770e-01  -2.92729120e-01   6.44146850e-01
C     3.706311623175000e+00   5.006388905191074e+00   6.750041760000000e+00 -5.88321560e-01   1.44588709e+00   2.13331140e-01
C     3.626272728075000e+00   4.889918766216284e+00   1.025765230400000e+01  8.56444120e-01   8.13646380e-01  -3.24511950e-01
C     4.876100605800000e+00   5.610376321202453e+00   1.022339689600000e+01 -4.43320000e-01  -2.46110420e-01   1.15346090e-01
C     4.926195703875000e+00   4.325415457146584e+00   6.873696632000000e+00  7.77120410e-01  -3.41372330e-01  -7.84873800e-02
C     6.155701825800000e+00   5.031807852935463e+00   6.896285144000000e+00  8.00635200e-01   1.00499877e+00  -1.97295480e-01
C     6.102187242749999e+00   4.895580834632889e+00   1.018619586400000e+01  8.17729100e-02   2.08527710e-01  -2.36386720e-01
C     7.322154036524999e+00   5.634409259460782e+00   1.007727917600000e+01  1.23456888e+00  -2.29590009e+00   4.68791010e-01
C     7.400045719425000e+00   4.346602279169351e+00   6.859490208000000e+00  2.69544770e-01  -2.55579850e-01   1.25653920e-01
C     8.666553907050000e+00   5.029411123473937e+00   6.837319623999999e+00 -9.42524360e-01   1.09463370e-01  -4.25741000e-02
C     8.605283854725000e+00   4.914468335956180e+00   1.013072717600000e+01 -2.02509868e+00  -5.00066960e-01   5.11681100e-02
C     9.804092924925000e+00   5.609325574615363e+00   1.015304355200000e+01  6.73842780e-01   1.23549036e+00   2.67948210e-01
