72
Lattice="7.395 0 0 3.6975 6.40425786098592 0 0 0 13.6 " PBC="1 1 1" Properties=species:S:1:pos:R:3:force:R:3 Energy="-582.5351931"
C     7.401308674499999e+00   1.671024577862640e-02   1.358012917600000e+01  3.81042690e-01  -1.21605585e+00   3.92178200e-02
C     1.264556203425000e+00   6.946907919974022e-01   1.359678006400000e+01 -1.08674954e+00   7.39007170e-01  -2.39110960e-01
C     1.211013926100000e+00   7.450249926054936e-01   3.415458304000000e+00  2.20950927e+00  -1.60118510e+00  -2.79316090e-01
C     2.464167150450000e+00   1.441419893576863e+00   3.411099776000000e+00  1.92023030e-01  -7.16354200e-01  -1.69392930e-01
C     6.177576235800000e+00   6.391370187652851e+00   1.358858388800000e+01  1.34498550e-01   1.05485661e+00   8.53829600e-02
C     3.720939857549999e+00   7.326595234442485e-01   1.358219352000000e+01 -1.52587476e+00  -1.66712171e+00  -2.00489750e-01
C     3.705296104800000e+00   7.216421505625332e-01   3.400419560000000e+00 -1.66725606e+00  -7.69456520e-01   4.73754800e-02
C     4.903447574625000e+00   1.403971572123721e+00   3.411349608000000e+00  1.70168460e+00   8.34435420e-01  -1.01940220e-01
C     8.606643425474999e+00   6.396404766884332e+00   1.359223684800000e+01  9.57818470e-01   7.39388500e-02  -5.52904400e-02
C     6.144816681600000e+00   6.527880530323152e-01   8.445600000000001e-04  6.10419120e-01   2.76163542e+00  -1.40360360e-01
C     6.160597574625000e+00   6.968241783757254e-01   3.412273863999999e+00  3.95896520e-01   2.06138460e-01  -1.29069210e-01
C     7.418996331300000e+00   1.436247558758813e+00   3.394396528000000e+00 -2.35739184e+00  -1.30207454e+00   1.55224820e-01
C     1.249944348975000e+00   2.115907557558795e+00   1.357816628800000e+01 -6.44921190e-01   1.21956056e+00   2.92611330e-01
C     2.481985476900000e+00   2.838876606307342e+00   1.359398050400000e+01 -1.17682516e+00   8.88922180e-01  -5.13571250e-01
C     2.485888040250000e+00   2.837744205432537e+00   3.390668360000000e+00 -1.79596756e+00   2.11229998e+00   1.61784050e-01
C     3.682649434949999e+00   3.599272586287778e+00   3.427020480000000e+00  1.28742562e+00  -2.34999776e+00  -3.69519200e-01
C     3.703093356150000e+00   2.119798720591953e+00   1.353692551200000e+01 -9.02746200e-02   1.05496405e+00   9.06296300e-01
C     4.928755002450000e+00   2.809833424997399e+00   2.692745600000000e-02 -1.50948800e-01   1.96049522e+00  -5.97941400e-01
C     4.897216214849999e+00   2.829406630209760e+00   3.406028336000000e+00  1.44274679e+00   1.03865869e+00   3.35887210e-01
C     6.189781091699999e+00   3.518315594168576e+00   3.424954912000000e+00 -2.35982743e+00   1.26700815e+00  -2.66083900e-01
C     6.134559040125000e+00   2.117457516046072e+00   5.242392000000000e-03  1.61970884e+00  -5.27291620e-01   1.51159240e-01
C     7.381328050050000e+00   2.866604353052841e+00   1.359625170400000e+01  5.59792720e-01  -9.68888490e-01   5.14725000e-02
C     7.401412722149999e+00   2.822954212330652e+00   3.394374224000000e+00  6.59758470e-01   1.67130961e+00  -3.26391200e-02
C     8.611607725950000e+00   3.582357148087318e+00   3.374256696000000e+00  9.68663700e-01  -1.03085773e+00   5.11884410e-01
C     9.819413627099999e+00   4.297545599919172e+00   1.357755959200000e+01  2.59303687e+00  -1.43189277e+00  -1.85808400e-02
C     3.707940076125000e+00   5.000614698219341e+00   1.356126135200000e+01 -8.49375420e-01  -7.46962860e-01   3.50914580e-01
C     3.713518605300000e+00   4.991817105154480e+00   3.409478384000000e+00 -8.71966000e-02   2.63962650e-01  -1.07533600e-02
C     4.941325282275000e+00   5.703746366118802e+00   3.393374488000000e+00 -4.45759200e-02   1.38371860e-01   2.75557450e-01
C     4.938180965250000e+00   4.270832799959326e+00   1.039760800000000e-02 -6.86278070e-01  -7.26705320e-01  -1.01014590e-01
C     6.154786472700000e+00   4.988793783103931e+00   9.264456000000001e-03  4.32855040e-01  -3.55240500e-01   2.09121800e-02
C     6.171151422825000e+00   4.972475285778601e+00   3.410084536000000e+00  2.59363470e-01  -2.13126110e-01  -1.34698870e-01
C     7.407045900375000e+00   5.706374033118760e+00   3.391797704000000e+00 -1.09253460e+00   2.17278600e-02   4.05906950e-01
C     7.398375965400000e+00   4.310134065339102e+00   7.570031999999999e-03 -1.03805302e+00  -2.45528075e+00  -1.50697270e-01
C     8.611611127649999e+00   4.986930656407299e+00   1.357727861600000e+01 -4.24323600e-02   3.49326660e-01   2.34669870e-01
C     8.617991829450000e+00   5.014666600602860e+00   3.440713231999999e+00  5.73657830e-01  -1.90034049e+00  -6.93154770e-01
C     9.871377848400000e+00   5.662074308521832e+00   3.411729456000000e+00 -2.45523080e-01   2.34999129e+00   1.99827790e-01
C     3.705221156475000e+00   6.398746675898578e+00   6.819503351999999e+00 -3.62713490e-01   7.63680820e-01   2.21850690e-01
C     1.245208960725000e+00   7.275829322812050e-01   6.815514744000000e+00 -9.33275430e-01  -3.86239740e-01  -1.03408550e-01
C     1.268911784475000e+00   7.033091298847615e-01   1.019865672800000e+01 -3.28196141e+00  -3.03212570e-01   7.99197400e-02
C     2.452314629325000e+00   1.392211689585717e+00   1.018462343200000e+01  9.23189150e-01   1.72720023e+00   2.80942190e-01
C     2.460983529000000e+00   1.965248992466760e-02   6.775757727999999e+00  5.76689090e-01  -4.67190640e-01   2.58560580e-01
C     3.710617214025000e+00   6.883514733121027e-01   6.766758336000000e+00  2.33412330e-01   7.97932510e-01   9.39613800e-02
C     3.664098670725000e+00   7.009271302163130e-01   1.023687680800000e+01  2.11850332e+00   3.28833700e-02  -5.82197920e-01
C     4.936928289224999e+00   1.415281363419324e+00   1.018964591200000e+01 -1.07667039e+00   2.73460210e-01   6.12506000e-01
C     4.973252196450001e+00   2.767407906463200e-03   6.802568904000000e+00 -1.79837575e+00  -8.76771900e-02   1.48975590e-01
C     6.167698623374999e+00   7.266549553172911e-01   6.848118975999999e+00  1.31064381e+00   3.00001590e-01  -6.00415030e-01
C     6.175557918450000e+00   7.184067194916612e-01   1.022216092800000e+01 -5.09377920e-01  -2.45383870e-01  -3.74546090e-01
C     7.378347606225000e+00   1.468313869991569e+00   1.020210296800000e+01  1.88473056e+00  -2.73906526e+00  -1.02774680e-01
C     8.618294358900000e+00   2.146459902233447e+00   6.825664696000000e+00  3.64070470e-01  -9.97276060e-01  -4.09032690e-01
C     2.456252134050000e+00   2.810851958167453e+00   6.772119183999999e+00  7.89605370e-01   1.23253995e+00   4.45010740e-01
C     2.466359176350000e+00   2.827823241496453e+00   1.018840885600000e+01  6.42757000e-03   9.17401050e-01  -4.58054000e-03
C     3.699128526900000e+00   3.582453340040375e+00   1.018114196800000e+01 -6.58225800e-01  -2.00019759e+00   1.41109070e-01
C     3.697595987100000e+00   2.115115414904092e+00   6.766914872000000e+00 -1.47340220e-01  -1.40755210e-01   6.50437600e-02
C     4.912782061274999e+00   2.853184166664632e+00   6.794178656000000e+00  1.24596007e+00  -4.24256870e-01  -1.15626230e-01
C     4.923109104825000e+00   2.859200966924102e+00   1.020784189600000e+01  7.12829430e-01  -9.18651800e-01  -3.78869900e-01
C     6.169677414450000e+00   3.544387712172107e+00   1.019057180000000e+01 -6.65616460e-01   6.38047510e-01   3.66325100e-02
C     6.188752558125000e+00   2.169565375868491e+00   6.789459999999999e+00 -2.01142355e+00  -1.79364197e+00   4.00345090e-01
C     7.396418065200000e+00   2.832203881957851e+00   6.798186031999999e+00 -5.25838000e-03   2.53940484e+00   5.35462300e-02
C     7.404074848200000e+00   2.850685289290238e+00   1.017531654400000e+01 -4.33022690e-01   6.20598090e-01   3.54091460e-01
C     8.634353525774999e+00   3.554445407013501e+00   1.021126243200000e+01  3.22656820e-01   2.91422030e-01  -2.55297560e-01
C     2.480338869225000e+00   4.242551917462460e+00   6.817333880000000e+00 -1.74152369e+00   6.20867360e-01  -2.75804080e-01
C     3.671428927500000e+00   4.980714811813542e+00   6.810306487999999e+00  1.71680471e+00  -6.05470470e-01   9.49856200e-02
C     3.687278076375000e+00   4.971729189737911e+00   1.017537488800000e+01  7.50942910e-01   5.94092000e-01   2.79896660e-01
C     4.938168245850000e+00   5.669040347881311e+00   1.021298364800000e+01 -9.46174590e-01   1.23458955e+00  -2.91763080e-01
C     4.937174653650000e+00   4.253798370647827e+00   6.813107679999999e+00 -1.30346874e+00   1.35866064e+00  -1.09143160e-01
C     6.150257848650000e+00   5.002382977857065e+00   6.809417591999999e+00 -3.43402220e-01  -6.41861570e-01  -2.78660430e-01
C     6.140120006175000e+00   4.973722835209728e+00   1.020361420000000e+01  1.23527483e+00  -5.90583760e-01   1.04327710e-01
C     7.372327558574999e+00   5.696994100886689e+00   1.022488500800000e+01  3.14022110e-01  -4.31924210e-01   1.05038100e-01
C     7.360811251125000e+00   4.294472388699893e+00   6.785741624000000e+00  1.70298548e+00  -6.96101130e-01   2.40699230e-01
C     8.620507719374999e+00   4.996947107828076e+00   6.813335616000000e+00  6.88670040e-01  -1.33794925e+00  -1.30887290e-01
C     8.617486196325000e+00   4.989167343464906e+00   1.023212605600000e+01  5.61623830e-01  -3.45180560e-01  -2.83032640e-01
C     9.875363050875000e+00   5.674633250313028e+00   1.019734568800000e+01 -1.25912961e+00   1.22578544e+00   2.49574020e-01
