72
Lattice="7.395 0 0 3.6975 6.40425786098592 0 0 0 13.6 " PBC="1 1 1" Properties=species:S:1:pos:R:3:force:R:3 Energy="-579.86304684"
C     3.673624650900000e+00   6.338376490883237e+00   1.351375940800000e+01 -1.26110862e+00  -1.30786236e+00  -1.09469280e-01
C     1.198843937625000e+00   5.712214396074187e-01   1.350052511200000e+01  3.85677980e-01   2.83716867e+00   2.14052240e-01
C     1.249155117600000e+00   8.326974895166929e-01   3.550819240000000e+00  1.89524301e+00  -5.83226250e-01   2.78281030e-01
C     2.532006218250000e+00   1.481831016843778e+00   3.601034656000000e+00 -2.00370500e-02   1.32137919e+00   1.32978610e-01
C     6.120621018074999e+00   6.318927464230781e+00   1.345464279200000e+01  1.42578450e+00  -1.15549518e+00  -2.10100410e-01
C     3.676202030249999e+00   6.412685863343760e-01   1.349497400000000e+01 -3.47663300e-01  -1.70616145e+00   2.55054280e-01
C     3.798962394975000e+00   8.396062107683251e-01   3.566487392000000e+00 -2.23436239e+00  -1.62277075e+00  -3.48425640e-01
C     4.974328575674999e+00   1.555657956559707e+00   3.474588520000000e+00  1.78235070e+00   6.10847300e-02   2.20558690e-01
C     8.597145731175001e+00   6.291042428912242e+00   1.343363677600000e+01  5.99408470e-01   2.32465370e+00   3.56491600e-01
C     6.120025276874999e+00   6.313697170879099e-01   1.341293730400000e+01  3.94262930e-01  -8.47412800e-02   3.50337080e-01
C     6.224561773349999e+00   8.384669573376096e-01   3.441460960000000e+00  3.34496270e-01  -6.10036150e-01   2.86249050e-01
C     7.476466351950000e+00   1.598591396784782e+00   3.558107208000000e+00 -2.32945113e+00  -4.41862769e+00  -5.96958970e-01
C     1.206353301300000e+00   2.026175515362399e+00   1.354114817600000e+01  6.16781410e-01   1.03133450e-01  -2.16252660e-01
C     2.461205896650000e+00   2.707362993704570e+00   1.510348000000000e-02 -1.32888948e+00   2.46567001e+00   2.03465080e-01
C     2.557089503625000e+00   2.908209678282909e+00   3.632569112000000e+00 -2.41031285e+00   1.82236686e+00  -7.72529290e-01
C     3.726020259525000e+00   3.692705136760841e+00   3.442711344000000e+00  1.31013667e+00  -2.38750017e+00   9.81412180e-01
C     3.701563256700000e+00   2.046512236196829e+00   4.049250400000000e-02 -7.36896540e-01  -6.18532850e-01  -1.73449805e+00
C     4.883423911275000e+00   2.737007470784988e+00   1.334115936000000e+01  1.03918406e+00   1.87019328e+00   1.22824987e+00
C     4.951981255424999e+00   2.969064217320201e+00   3.475089952000000e+00  2.20197036e+00   1.36770530e+00  -5.47886230e-01
C     6.272671757625000e+00   3.695497649358115e+00   3.466107560000000e+00 -3.63662967e+00  -7.31150280e-01   4.17686870e-01
C     6.109564346850000e+00   2.049527232712159e+00   1.331718147200000e+01  1.97442179e+00   5.50605780e-01   4.41120080e-01
C     7.412807086049999e+00   2.799015993046073e+00   1.339685829600000e+01 -1.75115409e+00  -1.05646288e+00  -4.86445780e-01
C     7.447394573324999e+00   2.942264575623773e+00   3.595125592000000e+00  1.49696636e+00   3.75952419e+00  -2.23543100e-02
C     8.684960653649998e+00   3.670333462991395e+00   3.653157880000000e+00  5.80546670e-01  -3.53101050e-01  -1.27746783e+00
C     2.419825140525000e+00   4.190327115891517e+00   3.349952000000000e-03  3.09588024e+00  -1.73519582e+00  -5.36341000e-03
C     3.692475171450000e+00   4.921956258288670e+00   1.358694318400000e+01 -6.43603960e-01  -1.21983937e+00  -9.18568340e-01
C     3.736851346274999e+00   5.083726082682648e+00   3.437300991999999e+00 -2.08891670e-01   1.86806520e-01  -7.80951100e-02
C     4.932713065275000e+00   5.810379436935474e+00   3.501535288000000e+00  1.80230562e+00   3.68625000e-03  -2.35119590e-01
C     4.929084006000000e+00   4.194935043464366e+00   1.337202238400000e+01 -1.48917360e+00  -1.19023774e+00   4.96520710e-01
C     6.155071956675000e+00   4.860010241584298e+00   1.329771361600000e+01 -4.90936100e-02   2.78512388e+00   5.64818140e-01
C     6.215479271325000e+00   5.110389569856972e+00   3.500097632000000e+00  2.06108500e-01   3.70606650e-01   2.18165200e-01
C     7.479569404874999e+00   5.815320193789306e+00   3.548330848000000e+00 -1.97861303e+00   9.90553260e-01  -6.38136860e-01
C     7.409084184225000e+00   4.240436206835829e+00   1.330664745600000e+01  2.41250500e-02  -3.02867797e+00   1.07443500e+00
C     8.644028737049998e+00   4.898764903555723e+00   1.349998600800000e+01 -1.86808208e+00   2.04754230e-01  -7.78913380e-01
C     8.660558225925000e+00   5.125866483656919e+00   3.439239672000000e+00  1.43404712e+00  -3.41040411e+00   1.29759500e+00
C     9.911453497949999e+00   5.750299236716034e+00   3.407759616000000e+00 -2.49278010e-01   4.22564853e+00   1.38102220e-01
C     7.418969413500000e+00   8.619208866428160e-02   6.698309264000000e+00 -2.16366300e-01  -2.81663500e-01   3.52919770e-01
C     1.258296927525000e+00   7.972786773793842e-01   6.842136064000000e+00  6.42710320e-01  -1.09756057e+00   3.33491970e-01
C     1.182723022500000e+00   6.257218661237545e-01   1.015259488800000e+01 -1.85289212e+00  -1.12837646e+00  -3.64825820e-01
C     2.420870645625000e+00   1.304779096173954e+00   1.021660383200000e+01 -2.00890462e+00   1.07587321e+00  -3.12547800e-01
C     2.498499399300000e+00   4.190485237018080e-02   6.995500272000000e+00 -8.29640660e-01   2.74658844e+00  -7.26165640e-01
C     3.691879060500000e+00   7.920440291323561e-01   7.059486095999999e+00  1.21627219e+00   1.10601717e+00  -6.16628900e-01
C     3.585771533250000e+00   6.227154513139561e-01   1.003842751200000e+01  4.12873811e+00  -9.77828350e-01   8.07113280e-01
C     4.892058941850000e+00   1.320410928971534e+00   1.012474494400000e+01 -2.60586208e+00  -5.31041000e-02  -8.15155970e-01
C     4.934438059950000e+00   9.467081373029280e-02   6.839710776000000e+00 -1.18506194e+00  -1.11757170e-01   1.19239800e-01
C     6.145691694975000e+00   7.644063902949475e-01   6.694001463999999e+00  2.04024447e+00   1.80108782e+00   1.24770454e+00
C     6.089550149100000e+00   5.757146028794161e-01   1.002758246400000e+01  4.97472440e-01   1.10953314e+00   7.29940990e-01
C     7.296656150475000e+00   1.345792475850022e+00   1.011435304800000e+01  1.77221186e+00  -2.45967590e+00   3.70418250e-01
C     1.306605356625000e+00   2.208622639023801e+00   6.889286720000000e+00 -1.86502815e+00  -4.36969370e-01   5.26376420e-01
C     2.474886794550000e+00   2.947865419335236e+00   7.054901400000000e+00  1.81845618e+00   1.18205214e+00  -1.21489901e+00
C     2.397987335775000e+00   2.713391898011395e+00   1.028458683200000e+01 -4.62618600e-01   2.47211752e+00  -6.00179460e-01
C     3.630734723175000e+00   3.499924166659121e+00   1.029107076800000e+01 -6.19985110e-01  -3.32965834e+00  -6.38652120e-01
C     3.726760018350000e+00   2.267493331103801e+00   7.106329120000000e+00 -1.07525638e+00  -2.61788937e+00  -6.42480090e-01
C     4.960687388924999e+00   2.904325752061133e+00   6.982068775999999e+00  1.04289920e+00   2.15709958e+00  -3.97855650e-01
C     4.847855662124999e+00   2.763007604930173e+00   1.017025285600000e+01  1.36219183e+00  -8.06208040e-01   5.43225660e-01
C     6.113410486349999e+00   3.434067197764804e+00   1.013785439200000e+01 -1.78224557e+00   1.98070566e+00  -5.90338100e-02
C     6.196637661750000e+00   2.210042783204256e+00   6.883184672000000e+00 -7.32714910e-01  -2.01395193e+00  -5.32650640e-01
C     7.433310500025000e+00   2.871455130083740e+00   6.898751504000000e+00  2.95978260e-01   1.29137204e+00  -2.55827530e-01
C     7.311309860625000e+00   2.738771075314475e+00   1.018170555200000e+01 -2.83865240e-01  -2.49372050e-01  -7.76113900e-01
C     8.515850499525000e+00   3.435097194556428e+00   1.013221692000000e+01  2.88189491e+00   2.63862840e-01   7.38354060e-01
C     9.919909162800000e+00   4.385040314632178e+00   6.830402528000000e+00 -2.20910533e+00  -1.07574995e+00   7.90734950e-01
C     3.743163718274999e+00   5.051423262207122e+00   6.785217480000000e+00  1.18005474e+00   9.55379210e-01  -1.10693430e-01
C     3.654655144800000e+00   4.872082587863291e+00   1.021313556000000e+01 -1.26009484e+00   8.87932380e-01  -6.69352330e-01
C     4.860860361225000e+00   5.561940726879538e+00   1.010259489600000e+01  1.18912118e+00   2.39255213e+00   4.85260760e-01
C     5.004089050650000e+00   4.355267047926195e+00   6.860594392000000e+00 -1.83619672e+00  -7.89891510e-01   4.14060860e-01
C     6.208969711649999e+00   5.074981004532239e+00   6.895800168000000e+00  4.56127290e-01  -2.85163289e+00   1.92058740e-01
C     6.110764925100000e+00   4.892178124346714e+00   1.007120976800000e+01 -4.92578260e-01  -1.55532460e+00   4.45508900e-02
C     7.317720031500000e+00   5.604075556149470e+00   9.969398128000000e+00  8.13951620e-01  -1.72153300e-01   5.15804080e-01
C     7.418187872924999e+00   4.286748725635577e+00   6.928444927999999e+00  1.17823278e+00   2.61772319e+00  -4.66155780e-01
C     8.649003723299998e+00   5.097368881074070e+00   6.825586904000000e+00 -3.90530000e-02  -2.64104382e+00   3.27352390e-01
C     8.570329575450000e+00   4.861468298971285e+00   1.001150876000000e+01 -7.20498900e-01   1.28189500e-01   4.48657250e-01
C     9.810232845524999e+00   5.555611014581028e+00   1.006984147200000e+01 -4.90303130e-01   4.83217290e-01   6.34302100e-02
