72
Lattice="7.395 0 0 3.6975 6.40425786098592 0 0 0 13.6 " PBC="1 1 1" Properties=species:S:1:pos:R:3:force:R:3 Energy="-580.57771419"
C     3.694261285800000e+00   6.359698186576535e+00   1.344228596800000e+01 -8.21471350e-01  -1.50790191e+00  -9.17403500e-02
C     1.160645434875000e+00   6.802659696786955e-01   1.345923170400000e+01  3.04471661e+00  -1.03726222e+00  -3.25318190e-01
C     1.272735110400000e+00   7.832567469226500e-01   3.610429944000000e+00  2.60866480e-01   6.43550800e-01  -4.53599260e-01
C     2.514730093200000e+00   1.497110807586794e+00   3.615784808000000e+00  1.36781010e-01   9.01327600e-02  -4.12966690e-01
C     6.088017646275000e+00   6.350498662288381e+00   1.340885118400000e+01  2.70716598e+00  -5.87020560e-01   2.08027180e-01
C     3.683705847675000e+00   6.629738330309094e-01   1.349695932800000e+01 -1.23077370e-01  -9.54227070e-01  -1.03323951e+00
C     3.744925798875000e+00   7.929855190803546e-01   3.536784720000000e+00 -3.76280450e-01  -1.39460990e-01  -1.86247000e-03
C     4.950046723424999e+00   1.534869991716461e+00   3.503825120000000e+00  1.68805643e+00  -7.20219110e-01  -2.24101240e-01
C     8.656886201700001e+00   6.320504640813964e+00   1.344352452000000e+01 -1.27687377e+00   1.29893278e+00  -5.44932900e-02
C     6.215853310425000e+00   6.907423108563978e-01   1.338473838400000e+01 -3.55463797e+00  -1.38025120e+00   9.50245500e-02
C     6.208881526274999e+00   8.477204054769450e-01   3.504238287999999e+00  4.58017940e-01  -2.20801726e+00  -7.52425900e-02
C     7.474121989049999e+00   1.554975839055039e+00   3.586680128000000e+00 -2.47837246e+00  -2.94117016e+00  -2.47573790e-01
C     1.205940105675000e+00   2.083655971146150e+00   1.345004871200000e+01  9.50581540e-01  -4.46834800e-01   3.15620240e-01
C     2.461037919225000e+00   2.772140973234633e+00   1.358829856000000e+01 -1.34452318e+00   7.64322070e-01  -9.99857120e-01
C     2.544519630525000e+00   2.934820522457624e+00   3.582020904000000e+00 -2.34211147e+00  -1.69755520e-01   6.80925900e-02
C     3.763090728975000e+00   3.653210206623378e+00   3.515325008000000e+00 -3.32792080e-01  -1.66870171e+00  -3.81782130e-01
C     3.678628662525000e+00   2.120143461792556e+00   1.345704768000000e+01  6.61267960e-01  -2.68186140e+00   8.86200120e-01
C     4.904189477999999e+00   2.799971892574256e+00   1.335082855200000e+01  6.32702030e-01  -2.98529440e-01  -4.07018350e-01
C     4.996625425050000e+00   2.937808172791892e+00   3.455344384000000e+00 -5.04846060e-01   1.26137735e+00   8.64208920e-01
C     6.230552241000000e+00   3.681629549175178e+00   3.532457879999999e+00 -2.43474455e+00  -1.15043501e+00  -2.57043570e-01
C     6.147092936550000e+00   2.104564271994585e+00   1.324334884000000e+01  2.93216380e-01  -1.28894871e+00   9.67021040e-01
C     7.403201609625000e+00   2.756364596337152e+00   1.326802957600000e+01 -1.21452499e+00   1.84548245e+00   6.02586170e-01
C     7.379793032925000e+00   2.921430243953622e+00   3.615532392000000e+00  3.81604228e+00   2.38788461e+00  -3.48846570e-01
C     8.641228213574999e+00   3.642887567634316e+00   3.592208392000000e+00  1.50913327e+00  -1.53052050e-01   1.46465650e-01
C     2.435004191475000e+00   4.188206281858599e+00   1.356536406400000e+01  1.56727800e+00   1.04179900e-01  -5.73739330e-01
C     3.691328317875000e+00   4.900419699744169e+00   1.347523074400000e+01 -5.45058030e-01   1.01122314e+00  -1.09241950e-01
C     3.721018207575000e+00   5.031278541023335e+00   3.476699104000000e+00  6.24761470e-01   1.87806779e+00   6.84814600e-02
C     4.942308484500000e+00   5.762076026494788e+00   3.514381168000000e+00  7.44975170e-01   8.51780420e-01   1.50571180e-01
C     4.920034892399999e+00   4.202667416319372e+00   1.331189093600000e+01 -6.42491440e-01   7.72044200e-02   6.04879720e-01
C     6.157774718250000e+00   4.873689800415837e+00   1.325010164800000e+01 -5.92141120e-01   2.81398437e+00   9.71000950e-01
C     6.199787561999999e+00   5.095195788297015e+00   3.533564240000000e+00  2.81326420e-01  -5.71713460e-01  -2.00067590e-01
C     7.450876915799999e+00   5.765563913410501e+00   3.513725240000000e+00 -8.73269220e-01   1.69082835e+00   5.14561080e-01
C     7.381142250675000e+00   4.179129783363936e+00   1.330127940000000e+01  6.06215310e-01   3.94393530e-01   3.00937600e-02
C     8.616759452699998e+00   4.874629433129056e+00   1.343473674400000e+01 -3.53913130e-01   1.83767722e+00   3.00315780e-01
C     8.670713631525000e+00   5.081305401296724e+00   3.557547840000000e+00  9.52934000e-03  -1.72517419e+00  -6.51607840e-01
C     9.905934905250000e+00   5.750876900775006e+00   3.462906800000000e+00 -2.16933160e-01   2.56747630e+00   6.09700880e-01
C     7.420584185699999e+00   4.819895699498880e-02   6.611472720000000e+00 -6.82874070e-01   7.38825010e-01   1.16569157e+00
C     1.254968068275000e+00   7.613803784560974e-01   6.800001359999999e+00  4.61727370e-01   7.84616600e-02   3.73030600e-01
C     1.188313531575000e+00   6.485744996584855e-01   1.020625477600000e+01 -1.22268991e+00  -1.21989047e+00   2.03094190e-01
C     2.443050690975000e+00   1.356589158005882e+00   1.019709463200000e+01 -1.88386414e+00  -9.43409700e-01   2.30995700e-01
C     2.496719311875000e+00   1.062498400263300e-02   6.966792440000000e+00 -4.61046660e-01   2.91335198e+00  -2.77869660e-01
C     3.726826573350000e+00   7.683131797172832e-01   7.074568767999999e+00 -5.37354860e-01   5.46964490e-01  -1.04152361e+00
C     3.633310808400000e+00   6.468966481417441e-01   1.008508163200000e+01  1.63120959e+00  -1.42869526e+00  -4.83690170e-01
C     4.875808392375000e+00   1.327377544714221e+00   1.009188136000000e+01 -6.08517250e-01   6.74706880e-01   1.21262381e+00
C     4.939265478975001e+00   5.968890006419341e-02   6.828194024000000e+00 -8.85100900e-01  -1.85613080e-01   6.67054720e-01
C     6.134411435924999e+00   7.371511496943595e-01   6.709100728000000e+00  2.90566379e+00   1.99674437e+00   1.82102000e-02
C     6.096696714075001e+00   6.099605392322442e-01   1.014343066400000e+01  3.15641160e-01   1.29441751e+00  -2.01810000e-01
C     7.308310522575000e+00   1.329060199424358e+00   1.024902541600000e+01  1.93753979e+00  -1.12675820e-01  -4.34953710e-01
C     8.660522064375000e+00   2.218364796080433e+00   6.880184376000000e+00 -3.02985140e-01  -1.87730687e+00  -3.55697270e-01
C     2.472737215950000e+00   2.931431068985219e+00   6.954225360000000e+00  1.54591828e+00  -2.70324710e-01   4.17426570e-01
C     2.418577788900000e+00   2.741670859230904e+00   1.030751956000000e+01 -5.54963320e-01   2.06133039e+00  -4.63104110e-01
C     3.656056793099999e+00   3.473430072105193e+00   1.032591097600000e+01 -1.18774888e+00  -3.84597720e-01  -3.09726750e-01
C     3.739270361700000e+00   2.238624986033436e+00   7.104908599999999e+00 -1.75733745e+00  -2.34215152e+00  -1.11345451e+00
C     4.953231934800000e+00   2.897617740250834e+00   6.977621032000000e+00  1.01326019e+00   1.35173769e+00  -6.49579560e-01
C     4.865995671075000e+00   2.739831364245776e+00   1.030157418400000e+01  1.41364830e+00   9.40252190e-01  -9.29753390e-01
C     6.136097348024999e+00   3.470448826028785e+00   1.024559712800000e+01 -1.76061762e+00   5.81654720e-01  -4.29395370e-01
C     6.186894860175000e+00   2.184583104379876e+00   6.808483136000000e+00 -6.87517290e-01  -7.90472760e-01   4.95438070e-01
C     7.422131885250000e+00   2.892947883504479e+00   6.825667144000000e+00 -7.33907900e-02   2.60838420e-01   1.15915990e-01
C     7.338750117374999e+00   2.746902689604473e+00   1.023468829600000e+01 -7.81810710e-01   1.95593170e-01   7.81611000e-03
C     8.527960144800000e+00   3.469048535047696e+00   1.023681003200000e+01  3.09999418e+00  -5.09526200e-02  -4.93697070e-01
C     2.508465308025000e+00   4.339887414803140e+00   6.824266207999999e+00 -1.38921350e+00  -3.23194900e-02  -2.32980840e-01
C     3.713979276825000e+00   5.039353669759009e+00   6.711519488000000e+00  1.41689468e+00   8.56847800e-02   5.72830100e-01
C     3.620028316125000e+00   4.901895112669956e+00   1.026720861600000e+01  7.88119010e-01  -3.54590170e-01  -1.52769670e-01
C     4.838627256750000e+00   5.592171321639302e+00   1.022975761600000e+01  2.37807096e+00   1.68160443e+00  -5.84173710e-01
C     4.952714765474999e+00   4.344046339857424e+00   6.859574256000000e+00 -1.71027560e-01  -1.00528147e+00   1.17717020e-01
C     6.187119483300000e+00   5.029678693367329e+00   6.919189856000000e+00  5.82904880e-01  -1.01988094e+00  -4.68637810e-01
C     6.126742192349999e+00   4.915475277419508e+00   1.012645432800000e+01 -6.68942820e-01  -1.30548076e+00   4.65651610e-01
C     7.374169431225000e+00   5.603099355123871e+00   9.977324615999999e+00 -1.54861200e+00   9.11585190e-01   1.05987804e+00
C     7.437084131550000e+00   4.308263253533039e+00   6.887445008000000e+00 -3.39896940e-01   7.93397710e-01  -5.23120900e-02
C     8.664181406175000e+00   5.051116754425943e+00   6.818110303999999e+00 -6.98045420e-01  -1.17717968e+00   1.44734260e-01
C     8.590539740700001e+00   4.890339590000265e+00   1.004913329600000e+01 -3.59344040e-01  -8.71134000e-02   6.35436740e-01
C     9.818962495125000e+00   5.635710988913406e+00   1.012267529600000e+01 -8.99797380e-01  -2.33415428e+00   2.00550630e-01
