72
Lattice="7.395 0 0 3.6975 6.40425786098592 0 0 0 13.6 " PBC="1 1 1" Properties=species:S:1:pos:R:3:force:R:3 Energy="-582.60765286"
C     3.664851851474999e+00   6.280372807232324e+00   1.353253380000000e+01  1.89807810e-01   1.88139330e-01   1.87689800e-01
C     1.181436736200000e+00   6.064497891159709e-01   1.353753764800000e+01  8.82863360e-01  -3.99855810e-01   1.59887700e-02
C     1.307947179375000e+00   8.318898485579683e-01   3.444315192000000e+00 -4.79323380e-01   1.37295318e+00   5.62826100e-02
C     2.528523247200000e+00   1.566292418863973e+00   3.443854696000000e+00  8.30004140e-01  -7.97108800e-01   2.02509250e-01
C     6.111894992025000e+00   6.290375745669015e+00   1.354919094400000e+01  1.07818259e+00  -5.43057390e-01  -7.17706000e-03
C     3.669176558400000e+00   5.903993099820817e-01   1.352062509600000e+01  1.56167010e-01   1.70281600e-02   3.13728410e-01
C     3.782470102950000e+00   8.702920201767792e-01   3.481626656000000e+00 -4.71224880e-01  -1.02021608e+00  -1.44235460e-01
C     5.020047756450000e+00   1.598276179212913e+00   3.487051424000000e+00 -8.38718640e-01  -8.75428830e-01   3.66493800e-02
C     8.626268868075000e+00   6.290670981956362e+00   1.353031237600000e+01 -2.65399090e-01  -1.93956340e-01   1.24038950e-01
C     6.171857830200000e+00   6.428535120695689e-01   1.356284466400000e+01 -1.65963890e+00  -2.09381159e+00  -1.64199040e-01
C     6.220672705875000e+00   8.839156057946215e-01   3.477305120000000e+00  1.31712170e+00  -1.31413867e+00  -3.18330300e-02
C     7.473764625675000e+00   1.584679107222611e+00   3.445044288000000e+00 -8.31550900e-01  -8.59760170e-01   9.08565300e-02
C     1.189505864400000e+00   2.042889475610584e+00   1.353335211200000e+01  1.55462436e+00  -2.11624789e+00   5.14549800e-02
C     2.437279706925000e+00   2.718278602928889e+00   1.349004046400000e+01 -4.21265700e-02   1.17661060e-01   2.50367990e-01
C     2.542337587875000e+00   2.982665708248426e+00   3.461911552000000e+00 -4.40187170e-01  -2.28391700e-01  -1.17229630e-01
C     3.766764269175000e+00   3.677857377253059e+00   3.485388688000000e+00  5.92801410e-01   9.52327200e-01   1.19928300e-01
C     3.662492698575000e+00   2.033731194743048e+00   1.353527460800000e+01  1.19643348e+00  -1.02839707e+00  -1.55599730e-01
C     4.918838973000000e+00   2.753181616138153e+00   1.358880080800000e+01 -7.42072160e-01  -8.68669320e-01  -1.61940500e-02
C     5.024819343224999e+00   2.996231975758421e+00   3.502962200000000e+00 -6.36548530e-01   1.34027687e+00  -3.11203490e-01
C     6.240759411599999e+00   3.765780857029791e+00   3.471725720000000e+00 -8.34734640e-01  -3.38862126e+00   2.75680300e-02
C     6.162873570750000e+00   2.047711497523692e+00   1.627049600000000e-02 -1.34431598e+00  -8.48524860e-01  -1.35759950e-01
C     7.384854725549999e+00   2.699531739108204e+00   1.761771200000000e-02 -7.19211190e-01   2.29840264e+00  -3.05867520e-01
C     7.434243231375000e+00   3.000142415607738e+00   3.438955432000000e+00  2.18562284e+00   7.12556850e-01   1.42548740e-01
C     8.715683661825000e+00   3.691241379584358e+00   3.448745256000000e+00 -1.20051504e+00   2.22698510e-01  -2.48228400e-02
C     2.461288018125000e+00   4.125371802461310e+00   1.348236489600000e+01 -4.74395330e-01   3.47900240e-01   3.52250920e-01
C     3.671376496950000e+00   4.836714177235341e+00   1.352397260000000e+01 -3.24611000e-03   1.57587130e+00   4.14000000e-05
C     3.755357999325000e+00   5.115175599840907e+00   3.495508856000000e+00 -8.16893700e-02   1.99751500e-02  -1.68697790e-01
C     4.993986778125000e+00   5.828665642488289e+00   3.475752272000000e+00 -7.21637630e-01   1.62905450e-01  -1.08889200e-02
C     4.898084055075000e+00   4.164276388109237e+00   1.359090608800000e+01  4.85063920e-01  -7.94979400e-01  -9.33000800e-02
C     6.138560511600000e+00   4.834151833665555e+00   9.281728000000000e-03  4.02496600e-02   1.73232795e+00  -2.75491830e-01
C     6.214854948450000e+00   5.135405689781968e+00   3.472259520000000e+00  9.38057060e-01   1.03032819e+00   3.16549800e-02
C     7.464854242274999e+00   5.802449300597750e+00   3.478654784000000e+00  1.49910000e-04   2.54495975e+00  -1.48917130e-01
C     7.359598508099999e+00   4.115980278522513e+00   1.359638226400000e+01  1.49117299e+00   1.33313093e+00  -5.51340200e-02
C     8.639447460600000e+00   4.830630388438655e+00   1.353063224800000e+01 -1.78151047e+00   1.30715544e+00  -6.08090000e-03
C     8.699391885224999e+00   5.119386143213543e+00   3.464590752000000e+00 -1.72386790e-01  -6.68203310e-01   1.26011180e-01
C     9.911923856925000e+00   5.835933066222660e+00   3.485970768000000e+00  8.37229270e-01   8.03803690e-01  -8.01091500e-02
C     7.420022757300000e+00   1.017833825096088e-01   7.007776448000000e+00 -1.80336140e-01   8.83730000e-03  -4.88107790e-01
C     1.248326027175000e+00   8.087645857661370e-01   6.926043031999999e+00  1.32719589e+00  -1.75479870e-01  -2.60702330e-01
C     1.145314934325000e+00   5.970665907123918e-01   1.006662398400000e+01  1.47141240e-01  -8.50546600e-01   3.51480800e-02
C     2.384056523850000e+00   1.309424040357233e+00   1.008758920000000e+01 -1.84316640e-01  -5.67799110e-01  -2.41035600e-02
C     2.510181095925000e+00   7.492911249363540e-02   6.851877064000000e+00 -9.76756410e-01   1.43673159e+00   8.95763100e-02
C     3.711529128450000e+00   8.281170362100637e-01   6.812590199999999e+00  6.78261090e-01   6.09188100e-02   2.83238940e-01
C     3.615741434625000e+00   5.940706788854838e-01   1.014545366400000e+01  7.91120560e-01  -2.82971790e-01  -9.23371200e-02
C     4.878806732100000e+00   1.301269498824095e+00   1.011734627200000e+01 -2.59000185e+00  -3.65797620e-01  -2.18375520e-01
C     4.944447747074999e+00   8.403622334086981e-02   6.895215368000000e+00 -4.41683010e-01   9.83689370e-01  -9.63442600e-02
C     6.172002328500000e+00   7.748646074229061e-01   6.961716512000000e+00  5.74791620e-01   1.77354530e+00  -2.04328880e-01
C     6.055709445900000e+00   5.781687144913681e-01   1.010078188000000e+01  1.30196218e+00  -3.22180410e-01   3.68154100e-02
C     7.294941176025000e+00   1.258616565093287e+00   1.004553242400000e+01  5.22098710e-01   1.36433413e+00   3.23161990e-01
C     8.675214376425000e+00   2.234079692102458e+00   6.887893399999999e+00 -5.45160200e-01   6.15505300e-02   1.54296590e-01
C     2.499770451900000e+00   2.978283210552250e+00   6.850124704000001e+00  1.03841460e-01  -6.46447200e-02   8.24245000e-03
C     2.376238455900000e+00   2.720544493402336e+00   1.003960622400000e+01  2.86431040e-01   3.81953040e-01   1.79156620e-01
C     3.622862856600000e+00   3.424271244942148e+00   1.002203924000000e+01 -8.03333240e-01   8.23819400e-02   2.07113290e-01
C     3.737461064025000e+00   2.288952398128196e+00   6.802641799999999e+00 -1.07976792e+00  -2.42764198e+00   2.62832350e-01
C     4.964825002350000e+00   2.936068135931331e+00   6.847189007999999e+00  7.37183110e-01   1.67838335e+00   1.26372880e-01
C     4.839881005050000e+00   2.698593643416871e+00   1.002723348800000e+01  9.05071770e-01   1.20757715e+00   4.57001150e-01
C     6.072228803624999e+00   3.417209333842504e+00   1.006065671200000e+01  4.44990890e-01   9.94990730e-01   1.33038280e-01
C     6.188984132550000e+00   2.227396528812656e+00   6.918834352000000e+00  5.24668800e-02  -8.18329110e-01  -1.62912630e-01
C     7.423715746349999e+00   2.943509499309179e+00   6.927391743999999e+00  5.92892490e-01  -1.16347712e+00  -2.89256970e-01
C     7.311178969124999e+00   2.690744392855920e+00   1.006117296800000e+01 -6.05119970e-01   6.39647690e-01   1.62582000e-03
C     8.536084624575000e+00   3.430352151822796e+00   1.005977516000000e+01  3.41307740e-01  -8.63670290e-01   2.90565590e-01
C     9.909723844424999e+00   4.409740704644675e+00   6.921758079999999e+00 -1.00146543e+00  -1.41746907e+00  -7.62641900e-02
C     3.723046656075000e+00   5.092024463847322e+00   6.973124056000000e+00  1.73371960e+00   5.96297000e-02  -5.16447570e-01
C     3.612551046749999e+00   4.845558201169686e+00   1.004635658400000e+01 -9.68345100e-02   6.79191590e-01   1.56343620e-01
C     4.849877935799999e+00   5.571398086589135e+00   1.005751307200000e+01 -9.61382900e-02   2.55953630e-01   3.24804980e-01
C     4.979103231374999e+00   4.384350896273549e+00   6.879128335999999e+00 -5.89979300e-01  -7.94388450e-01   1.54730050e-01
C     6.216354913275000e+00   5.066899279410969e+00   6.862028376000000e+00  2.68050370e-01  -2.37216720e-01   1.71940520e-01
C     6.091085794800000e+00   4.891917471051811e+00   1.010816613600000e+01 -1.49576400e-01  -2.27526957e+00  -2.01171390e-01
C     7.338014425799999e+00   5.561751352974617e+00   1.016478116800000e+01 -8.29254800e-01   8.25270110e-01  -1.79199290e-01
C     7.462757094224999e+00   4.336393764055353e+00   6.889797671999999e+00 -1.27017093e+00   1.37978700e+00  -9.35128500e-02
C     8.666119894500000e+00   5.083829511447086e+00   6.916865888000000e+00 -1.36232940e-01  -4.38715230e-01  -1.32816240e-01
C     8.562273499425000e+00   4.838469776442502e+00   1.013741973600000e+01 -1.13040549e+00   3.84276300e-01  -1.70399730e-01
C     9.748976658825001e+00   5.575724354901301e+00   1.011039191200000e+01  1.74145581e+00  -1.26112270e+00  -9.15606100e-02
