72
Lattice="7.395 0 0 3.6975 6.40425786098592 0 0 0 13.6 " PBC="1 1 1" Properties=species:S:1:pos:R:3:force:R:3 Energy="-581.18610962"
C     3.645452511000000e+00   6.257923770027930e+00   1.354965932800000e+01  2.16130740e-01   1.55608227e+00   5.69442410e-01
C     1.189490852550000e+00   5.734275143124529e-01   1.352437176000000e+01  1.24808180e-01  -4.56002230e-01   2.50572400e-01
C     1.296239822100000e+00   8.575580500182697e-01   3.369245912000000e+00 -3.86287730e-01  -3.08549310e-01   5.84556430e-01
C     2.559691360425000e+00   1.536747976291328e+00   3.303585656000000e+00 -7.70806370e-01   4.48434360e-01   1.08890895e+00
C     6.122436786374999e+00   6.270581721645642e+00   1.359307134400000e+01  3.06119350e-01   1.06738040e-01   9.91854100e-02
C     3.667540414649999e+00   5.621592226077828e-01   1.357532905600000e+01  5.52284720e-01   2.77748840e-01   2.84223440e-01
C     3.805739690625000e+00   8.675167350331482e-01   3.442851288000000e+00  7.36667600e-02   4.53251230e-01  -4.51583860e-01
C     5.019380616524999e+00   1.607679102730701e+00   3.469471792000000e+00  4.42060400e-01   2.74452600e-02   6.06677960e-01
C     8.630084909924999e+00   6.299606330607791e+00   1.356891937600000e+01 -1.55115200e+00  -1.37597509e+00   7.05387650e-01
C     6.113737049549999e+00   6.205308308727528e-01   1.188340800000000e-02  1.55679864e+00  -1.33352850e-01  -2.50987210e-01
C     6.254591980950000e+00   8.768987806703125e-01   3.533260280000000e+00 -1.24555886e+00   1.01268483e+00  -4.30224440e-01
C     7.464571346550000e+00   1.577670351463206e+00   3.435788944000000e+00  1.10900705e+00   1.47821123e+00  -9.19061000e-02
C     1.223369787900000e+00   1.988070693436027e+00   1.348963708800000e+01 -1.57359928e+00   7.01672040e-01   6.97158340e-01
C     2.436201552900000e+00   2.691482611659442e+00   1.338350622400000e+01  1.24461316e+00  -3.68733570e-01   1.31664844e+00
C     2.536409275200000e+00   2.948238147142689e+00   3.398493800000000e+00  1.04227940e+00   5.31216550e-01  -3.70992050e-01
C     3.786319052550000e+00   3.677945307713477e+00   3.440432664000000e+00 -1.79327281e+00   1.36480471e+00   1.02318978e+00
C     3.689990710275000e+00   1.966054968318441e+00   1.358134039200000e+01 -9.22198910e-01   1.59995715e+00  -1.52970723e+00
C     4.903628641199999e+00   2.734293410346498e+00   1.359736472800000e+01 -2.65154810e-01  -2.25019000e-01   7.12532250e-01
C     5.039023918049999e+00   3.056630851848975e+00   3.524887848000000e+00 -1.13729345e+00  -2.50228481e+00  -1.28373176e+00
C     6.232288808850000e+00   3.748080641071167e+00   3.425075000000000e+00  1.81462724e+00   1.66823252e+00   5.89683930e-01
C     6.126350294324999e+00   2.055807824352883e+00   9.734023200000000e-02  7.66070920e-01  -1.15508100e+00  -3.37013610e-01
C     7.381949525849999e+00   2.742275805428359e+00   1.314901040000000e-01  6.66733950e-01  -1.66973234e+00  -1.59682080e+00
C     7.488830828924999e+00   3.047493576947220e+00   3.395493640000000e+00 -2.28629363e+00  -2.53252826e+00   2.87924210e-01
C     8.702755131225000e+00   3.678984270466105e+00   3.421329016000000e+00  1.56239125e+00   1.11768033e+00  -5.70852100e-01
C     2.456282601450000e+00   4.107475295999276e+00   1.342177988800000e+01 -4.84643530e-01   1.06519440e+00   1.31987414e+00
C     3.669597814575000e+00   4.853848448926878e+00   1.356429782400000e+01  1.82985720e-01  -6.84977390e-01  -7.36607100e-01
C     3.724379567849999e+00   5.114506803192587e+00   3.568301768000000e+00  5.42491160e-01   2.90061690e-01  -7.96313710e-01
C     4.942294507950000e+00   5.833198512159019e+00   3.511259968000000e+00  1.49127353e+00   1.08126546e+00  -4.31093100e-01
C     4.915855866974999e+00   4.158008540941656e+00   2.449577600000000e-02 -2.29620940e-01   8.92939700e-02   1.86178340e-01
C     6.147725430900000e+00   4.870549920872236e+00   1.349699360000000e-01  2.89275910e-01  -1.20724800e+00  -1.12612388e+00
C     6.224463198000000e+00   5.208991893444940e+00   3.456411168000000e+00 -2.66092690e-01  -2.54420853e+00   7.92119700e-02
C     7.485619956899999e+00   5.858224430598540e+00   3.464650320000000e+00  6.74137000e-02  -6.29823680e-01  -6.86004250e-01
C     7.413152987175000e+00   4.125394729704449e+00   7.512884800000000e-02 -1.06486574e+00   2.17435393e+00   7.50189020e-01
C     8.637365102550000e+00   4.853327590635124e+00   2.358049600000000e-02  2.05109550e-01  -2.36036460e-01  -1.39925852e+00
C     8.709192256874999e+00   5.095601754202760e+00   3.395421016000000e+00 -2.27795820e-01   2.23389004e+00   1.32572534e+00
C     9.913693147649999e+00   5.891321250963548e+00   3.538006272000000e+00  3.12580300e-02  -3.23361987e+00  -5.45712850e-01
C     7.407047046600000e+00   1.194932048550240e-01   7.055835312000000e+00  1.04881861e+00  -1.73078040e-01  -1.09984873e+00
C     1.277593070775000e+00   8.014847377715180e-01   6.892272328000000e+00 -1.18414651e+00   4.62970940e-01  -1.18900110e-01
C     1.153594228425000e+00   5.764069671966606e-01   1.008233130400000e+01 -1.62616280e-01   8.39900020e-01  -3.13351070e-01
C     2.370937424100000e+00   1.299848778260432e+00   1.004109134400000e+01  7.27226970e-01   3.78737900e-02  -5.73328100e-02
C     2.486663886675000e+00   1.004890179535242e-01   6.847348672000000e+00  7.81914630e-01  -1.00524899e+00  -1.99571770e-01
C     3.678945057600000e+00   8.732528366706145e-01   6.799085944000000e+00  4.21189710e-01  -1.31022457e+00   1.45979160e-01
C     3.630277083600000e+00   5.835881255776573e-01   1.009681816000000e+01 -1.68817199e+00   6.03486070e-01   4.99352280e-01
C     4.820877186149999e+00   1.298635939906906e+00   1.013853248800000e+01  2.25576642e+00   3.30896800e-02  -8.81052420e-01
C     4.875700869075000e+00   1.147313189232210e-01   6.910848568000000e+00  1.98563802e+00  -1.13038410e-01  -2.49193490e-01
C     6.150110614200000e+00   7.895381711168953e-01   6.950038328000000e+00 -2.43304870e-01  -1.14456530e-01   3.54188970e-01
C     6.067778196825000e+00   5.545347614977170e-01   1.015730443200000e+01 -5.67091230e-01   2.52552100e-02   3.25935700e-02
C     7.292983608599999e+00   1.260938300695273e+00   1.007636756800000e+01 -1.53975940e-01   8.79003700e-02   7.95134740e-01
C     8.676439838849999e+00   2.224226933512584e+00   6.768314040000000e+00  3.34595030e-01   4.44275060e-01   1.22065725e+00
C     2.503871460075000e+00   3.023595576402001e+00   6.792982944000000e+00 -7.12696640e-01  -1.64637713e+00  -6.78945870e-01
C     2.367118350300000e+00   2.741194894786749e+00   9.964644247999999e+00  2.59800350e-01  -1.89573171e+00   2.97950010e-01
C     3.604037331150000e+00   3.420959475117585e+00   9.964454935999999e+00  8.77363070e-01   8.05548350e-01   4.47074250e-01
C     3.705163327575000e+00   2.283483033830599e+00   6.730484824000000e+00  1.37227201e+00   7.71408130e-01   7.27745030e-01
C     4.992665513475000e+00   2.984486566843182e+00   6.793568152000000e+00 -1.48176949e+00  -2.49898004e+00   2.68868780e-01
C     4.863340496325000e+00   2.721488160798007e+00   9.985852632000000e+00 -1.64817641e+00  -2.50548470e-01   9.77955970e-01
C     6.066192893700000e+00   3.437040182348573e+00   1.010699436000000e+01  6.46110500e-01  -1.86649210e-01   2.97496490e-01
C     6.185204030400000e+00   2.191861991735816e+00   6.923730352000001e+00  1.10639210e-01   1.49238310e+00  -7.66437400e-01
C     7.438135145924999e+00   2.877928169673157e+00   6.904881431999999e+00 -1.18701700e-01   1.42646360e+00  -5.11519180e-01
C     7.268752929750000e+00   2.667839628662208e+00   1.015281221600000e+01  1.29894912e+00   1.32722818e+00  -1.19910973e+00
C     8.523359937150000e+00   3.390461246421850e+00   1.001363308000000e+01 -1.01369668e+00   9.41945970e-01   1.29920675e+00
C     9.900198529799999e+00   4.431606313958024e+00   6.879614400000000e+00  1.05565372e+00  -3.21844470e-01   6.38190320e-01
C     3.782670766275000e+00   5.115908503110406e+00   7.012166664000000e+00 -1.70812323e+00  -7.88469250e-01  -1.20433446e+00
C     3.618495517500000e+00   4.845421150051482e+00   1.009040535200000e+01  5.35731450e-01  -1.39154920e-01  -5.04758070e-01
C     4.866299050949999e+00   5.587347762704308e+00   1.006508691200000e+01 -4.75342170e-01  -1.70746695e+00   8.82769670e-01
C     4.988589537375000e+00   4.367819201204059e+00   6.836243183999999e+00  8.82508530e-01   1.37528234e+00   5.55662320e-01
C     6.264447186525000e+00   5.037505785196084e+00   6.836988735999999e+00 -2.27095714e+00   1.98778234e+00   5.15129530e-01
C     6.095297284275000e+00   4.868983375357101e+00   1.016924917600000e+01 -1.89286070e-01   6.32106000e-03  -7.94276600e-01
C     7.335510663675000e+00   5.584637672905692e+00   1.018559284000000e+01 -6.39673210e-01  -1.34198785e+00  -1.92551240e-01
C     7.457495329875000e+00   4.332366510542671e+00   6.891986727999999e+00  5.60124400e-02  -1.00376963e+00  -2.45559210e-01
C     8.654141436524998e+00   5.083105638181171e+00   6.923150720000001e+00 -4.36122850e-01   9.68233350e-01  -2.49179190e-01
C     8.534249444400000e+00   4.818456534672581e+00   1.014994737600000e+01  3.64579880e-01   1.80874900e-01  -2.45506470e-01
C     9.777618307275000e+00   5.524250772777337e+00   1.016720836000000e+01 -4.45620030e-01   6.36296290e-01  -2.82526720e-01
