72
Lattice="7.395 0 0 3.6975 6.40425786098592 0 0 0 13.6 " PBC="1 1 1" Properties=species:S:1:pos:R:3:force:R:3 Energy="-580.69757209"
C     3.692691660074999e+00   6.219557974593764e+00   1.364889200000000e-01  5.83649700e-01   2.95424410e-01   3.56756710e-01
C     1.270427056950000e+00   5.163960610472664e-01   2.079313520000000e-01 -1.74180766e+00   9.56943610e-01  -5.70865400e-01
C     1.337634258975000e+00   9.296956745958882e-01   3.417978656000000e+00  3.40594820e-01   2.12734350e-01  -3.17232700e-02
C     2.541701728800000e+00   1.665077840184159e+00   3.565937272000000e+00  1.83231203e+00  -8.98994780e-01  -3.39856010e-01
C     6.200765439825000e+00   6.229626364545784e+00   7.174720799999999e-02 -2.28887905e+00  -2.56521430e-01   1.95130310e-01
C     3.692376041475000e+00   5.407063036709334e-01   9.239404799999999e-02 -4.41822900e-01   3.81660100e-01   4.16381670e-01
C     3.816735870749999e+00   9.653460646974144e-01   3.486911752000000e+00 -1.89776875e+00  -2.63828681e+00  -6.71704450e-01
C     5.050042800825000e+00   1.616676060342743e+00   3.306986880000000e+00 -1.50369323e+00   6.65841190e-01   6.72002590e-01
C     8.572837811549999e+00   6.235841760841494e+00   3.188792000000000e-03  2.74752088e+00  -6.51339840e-01   7.82148710e-01
C     6.134028264000000e+00   4.990654988523205e-01   6.996139200000000e-02  8.83688310e-01   8.93219480e-01  -3.30083000e-01
C     6.240645047925000e+00   9.098469582103902e-01   3.203313672000000e+00  1.98873789e+00  -1.86681700e-01   3.67865110e-01
C     7.491008619450000e+00   1.621395550087513e+00   3.338982104000000e+00 -2.65048130e-01  -6.89882800e-02   3.82252500e-02
C     1.219143360525000e+00   1.963903393847795e+00   2.600683120000000e-01  4.93067770e-01  -2.38632910e-01  -1.38755590e-01
C     2.445552530400000e+00   2.689441446594303e+00   3.672251600000000e-01  4.36775940e-01  -1.01921440e-01  -7.95541830e-01
C     2.578562254200000e+00   3.074969316145928e+00   3.561982528000000e+00 -1.07442374e+00   7.42959430e-01  -9.50857690e-01
C     3.756049025100000e+00   3.792294356485034e+00   3.325264056000000e+00  3.20424018e+00  -3.05166010e-01   6.06337550e-01
C     3.679864958624999e+00   1.934820890394592e+00   3.092267360000000e-01  7.32073630e-01   1.74961072e+00  -1.68567625e+00
C     4.928231880149999e+00   2.640589767638223e+00   4.580656800000000e-02 -5.59035360e-01   1.10842206e+00   1.03466838e+00
C     5.008640303400000e+00   3.019527015426121e+00   3.332104856000000e+00  7.70925980e-01   2.53510787e+00  -4.33495510e-01
C     6.274699059900000e+00   3.756637241912756e+00   3.318154112000000e+00 -1.22645401e+00  -1.26359291e+00   2.40785520e-01
C     6.176533614749999e+00   1.922477259752650e+00   1.359401396000000e+01 -1.20852978e+00   6.90280860e-01   4.87564370e-01
C     7.383122927474999e+00   2.664907183030693e+00   9.237650400000000e-02  2.98793800e-01   6.30633630e-01  -8.34110560e-01
C     7.504008400875000e+00   3.040751686612841e+00   3.426283903999999e+00  6.48672030e-01   1.05260900e+00  -8.43973400e-02
C     8.765909651399999e+00   3.798582441107454e+00   3.503885368000000e+00 -1.98999294e+00  -6.15294720e-01  -8.19393760e-01
C     2.466323828250000e+00   4.135349444079454e+00   2.630590880000000e-01 -5.48968600e-01  -1.83838448e+00   1.02179350e-01
C     3.699361173600000e+00   4.805634570011075e+00   2.305336000000000e-01 -1.67739970e-01   7.12752600e-01  -8.71314710e-01
C     3.834792722925000e+00   5.241128907684470e+00   3.206303632000000e+00 -9.59609370e-01  -1.92131642e+00   4.89436590e-01
C     5.088239196000000e+00   5.925303780190595e+00   3.286071984000000e+00 -1.94159138e+00  -4.54146590e-01   1.69748930e-01
C     4.910104072950000e+00   4.119871889853720e+00   6.750577600000000e-02  6.86601730e-01  -2.34567020e+00  -5.80271200e-02
C     6.131694328049999e+00   4.819434977188432e+00   1.353633024000000e+01  1.32515526e+00  -2.15476720e-01   2.60626660e-01
C     6.258753554175000e+00   5.160496995694241e+00   3.343835400000000e+00  1.38708485e+00   9.77086840e-01   3.00698920e-01
C     7.489315016550000e+00   5.881104410314333e+00   3.418608336000000e+00  4.08639140e-01   2.20532963e+00  -4.76977390e-01
C     7.383464613450000e+00   4.117111014290274e+00   1.351868818400000e+01  2.93662650e-01  -1.55842351e+00   1.67328884e+00
C     8.632185792449999e+00   4.817886683808198e+00   1.133894560000000e-01 -1.52328138e+00  -2.79787400e-02  -1.10409500e+00
C     8.744311814400000e+00   5.226491143791918e+00   3.304291768000000e+00 -8.46254980e-01  -2.23096653e+00   8.76319700e-01
C     9.960096698699999e+00   5.886265601723708e+00   3.173448888000000e+00  1.07723869e+00   1.95269969e+00   5.96073200e-01
C     7.436699665500000e+00   1.319651127819024e-01   6.585890576000000e+00 -1.80976768e+00   6.92334080e-01   2.30790440e-01
C     1.234816286550000e+00   8.470509684028392e-01   6.712260280000000e+00  5.56615660e-01   6.20462260e-01   3.59586800e-02
C     1.129276954125000e+00   5.211283593077561e-01   1.022669272000000e+01 -1.07355226e+00   4.19187720e-01  -4.35698390e-01
C     2.332247375700000e+00   1.236390652232736e+00   1.042995192800000e+01  9.57437140e-01  -2.91925310e-01  -8.73014950e-01
C     2.467865131125000e+00   1.500695014540722e-01   6.686813456000000e+00  6.81213320e-01   9.12874320e-01   8.27540000e-04
C     3.726437115675000e+00   8.351266885655694e-01   6.694661880000000e+00  2.60454200e-02   4.09270520e-01   2.21215290e-01
C     3.572143694475000e+00   5.249372276274127e-01   1.032081655200000e+01  1.11816108e+00  -2.94770330e-01   4.11664000e-03
C     4.841490341925000e+00   1.265031582106492e+00   1.027610872800000e+01 -1.64248303e+00  -1.75269937e+00  -6.87514560e-01
C     4.977242316600000e+00   1.485110253038412e-01   6.582473304000000e+00 -1.05315252e+00  -6.63789000e-02   1.64937330e-01
C     6.195714728774999e+00   8.758945289952859e-01   6.565690768000001e+00  3.37966880e-01  -6.94780300e-02   7.60162170e-01
C     6.067118303999999e+00   5.390801985577008e-01   1.007685472000000e+01 -7.78563760e-01  -1.68575600e-02   5.61418550e-01
C     7.290081514800000e+00   1.252425761147761e+00   1.007994015200000e+01  1.18673692e+00   4.21520100e-02   9.79299360e-01
C     8.622629381849999e+00   2.275058808998976e+00   6.811862735999999e+00  6.86605820e-01  -2.93342240e-01  -9.63269600e-02
C     2.482450363574999e+00   2.952012240342165e+00   6.882280000000000e+00 -1.38158220e-01   1.14872636e+00  -1.28844596e+00
C     2.353667215050000e+00   2.647571945727509e+00   1.045356003200000e+01 -3.21124490e-01   1.71744494e+00  -7.37163170e-01
C     3.601095600150000e+00   3.372880277744578e+00   1.040542664000000e+01 -1.55560470e+00   3.10554940e-01  -6.94104640e-01
C     3.735015870300000e+00   2.255497515706235e+00   6.810703200000000e+00 -2.02328275e+00  -9.60975990e-01  -9.08159600e-02
C     4.917568105275000e+00   2.948555478119651e+00   6.744074896000000e+00  1.88872889e+00   2.85514875e+00  -2.40517940e-01
C     4.786346418525000e+00   2.670879921996086e+00   1.026611232000000e+01  2.50076755e+00  -2.08996290e-01   2.88343100e-02
C     6.037373321550000e+00   3.376586293683003e+00   1.011432612000000e+01  6.34866160e-01  -2.27850500e-02   6.68614580e-01
C     6.171381961950000e+00   2.313225752226589e+00   6.702340304000000e+00  5.18041980e-01  -2.02586962e+00  -3.86716210e-01
C     7.413304621649999e+00   3.005535505194223e+00   6.746101296000000e+00 -7.82680050e-01   3.81790140e-01  -2.13718260e-01
C     7.327814243475000e+00   2.694378809191470e+00   1.015831328000000e+01 -2.75238454e+00  -1.09346805e+00  -4.03683340e-01
C     8.515433125725000e+00   3.410096765063188e+00   1.025639675200000e+01  1.39852153e+00  -1.82352340e+00   5.59179590e-01
C     9.869984001824999e+00   4.381939052763473e+00   6.672320615999999e+00 -8.37857790e-01   4.26049020e-01   6.60979590e-01
C     3.688447151925000e+00   5.125174695722882e+00   6.627741992000000e+00  1.27012190e+00  -1.24432331e+00  -4.28205000e-03
C     3.619046703825000e+00   4.792829576632898e+00   1.022436453600000e+01 -2.29295484e+00   2.19075470e-01  -2.62409480e-01
C     4.826558210025000e+00   5.504103746060721e+00   1.014223930400000e+01 -1.88129210e-01   6.12740450e-01   6.33890680e-01
C     4.944270414975000e+00   4.402470975377476e+00   6.669416200000000e+00 -1.04616118e+00   4.28783430e-01   2.01744520e-01
C     6.159100382925000e+00   5.171572263067010e+00   6.632598552000000e+00 -1.38995630e-01  -2.92058597e+00   2.96963060e-01
C     6.041662717350000e+00   4.798768565159369e+00   1.015293516000000e+01 -1.37175500e-02  -1.14069083e+00  -9.86263700e-02
C     7.264058916525000e+00   5.470433104191456e+00   1.018647316800000e+01  2.10903350e-01   2.74366601e+00   3.15132250e-01
C     7.387066643999999e+00   4.426438590205632e+00   6.666421888000000e+00  5.19153270e-01   5.88229830e-01   1.15812410e-01
C     8.619180390824999e+00   5.129850828641940e+00   6.611181272000000e+00  1.33581471e+00  -8.93807220e-01   2.22037970e-01
C     8.487973383149999e+00   4.799506207579683e+00   1.019932639200000e+01  1.61123301e+00   7.66929100e-01  -2.41637770e-01
C     9.735081860550000e+00   5.511833108914533e+00   1.012504808800000e+01  1.05576800e+00  -1.00762790e-01   6.34744240e-01
