72
Lattice="7.395 0 0 3.6975 6.40425786098592 0 0 0 13.6 " PBC="1 1 1" Properties=species:S:1:pos:R:3:force:R:3 Energy="-580.992001"
C     3.730453303200000e+00   6.371867045021478e+00   1.350103361600000e+01 -5.97756560e-01   1.34460990e+00   3.27571620e-01
C     1.228789435500000e+00   7.530988404895956e-01   1.352787784000000e+01  6.95187600e-01  -1.73055853e+00   3.03463200e-02
C     1.290370225725000e+00   7.009993702449739e-01   3.421731984000000e+00 -2.13372012e+00   1.93620818e+00  -1.81445220e-01
C     2.453902446750000e+00   1.505277901465338e+00   3.419133975999999e+00  7.02904890e-01  -1.52647022e+00  -2.67452790e-01
C     2.460374291925000e+00   6.300701010403801e-03   1.355039087200000e+01 -2.13551200e-02  -6.59985650e-01  -1.22799490e-01
C     3.685276471725000e+00   6.984370266751879e-01   1.346219283200000e+01  9.52934980e-01   1.03376663e+00   7.22456310e-01
C     3.657191740725000e+00   7.300379404892575e-01   3.419684232000000e+00  1.33832353e+00  -2.25881810e-01   2.59281450e-01
C     4.939722416024999e+00   1.425154423506614e+00   3.444467104000000e+00 -1.61525614e+00  -2.30096160e-01   8.86496500e-02
C     8.641529448900000e+00   6.399493220237318e+00   1.353661706400000e+01 -5.10544290e-01  -4.00938830e-01  -2.06719180e-01
C     6.216567371625000e+00   7.297592271871902e-01   1.356780458400000e+01 -1.69536051e+00  -2.96726794e+00  -2.09023030e-01
C     6.147290937675000e+00   7.405439974234302e-01   3.448689768000000e+00  1.02753736e+00  -1.21141043e+00   1.15096720e-01
C     7.385620218974999e+00   1.402098326699671e+00   3.402839000000000e+00  1.32527240e+00   1.52023217e+00   6.65662100e-02
C     8.607473847000000e+00   2.178044549232552e+00   1.353103956800000e+01  2.21089288e+00  -2.42653783e+00  -3.36813680e-01
C     2.447632854825000e+00   2.889680751357200e+00   1.345312911200000e+01  6.78180750e-01  -1.97959202e+00   2.50741260e-01
C     2.456037050475000e+00   2.941799114162509e+00   3.392362648000000e+00  1.40129761e+00  -2.62102982e+00   2.60727710e-01
C     3.729128636850000e+00   3.558622456117529e+00   3.468891344000000e+00 -4.62195910e-01   1.80172644e+00  -1.75415390e-01
C     3.678442493400000e+00   2.166596682137488e+00   1.345193190400000e+01  7.99980940e-01  -1.30235075e+00   6.09763770e-01
C     4.936041037124999e+00   2.856798729800816e+00   1.424994400000000e-02 -2.57362050e-01  -1.78876446e+00  -3.52841600e-01
C     4.962195525225000e+00   2.824958424827940e+00   3.499139376000000e+00 -1.91587170e+00   9.26153760e-01  -4.20819300e-01
C     6.134839421550000e+00   3.579945048406928e+00   3.472013224000000e+00  1.84022247e+00  -2.26849320e+00  -4.17125230e-01
C     6.205162395900000e+00   2.107545197858100e+00   5.663135200000000e-02 -2.98967085e+00   1.22781420e-01  -4.42817100e-01
C     7.392920119275001e+00   2.765643085124720e+00   1.359615868000000e+01 -5.85366900e-01   3.56710853e+00   2.63211010e-01
C     7.370323328700000e+00   2.859575936221805e+00   3.374946352000000e+00  1.08020422e+00  -5.31478490e-01   4.07798450e-01
C     8.634422484149999e+00   3.590898250624885e+00   3.370152896000000e+00 -1.48740484e+00   3.06393000e-03   3.69311570e-01
C     2.491939997325000e+00   4.263784722056660e+00   1.346526806400000e+01 -2.76704275e+00   8.45577650e-01   1.41528780e-01
C     3.693434450850000e+00   4.934245516781381e+00   1.346913400000000e+01  7.83711520e-01   2.21317511e+00   5.90207890e-01
C     3.740002096950000e+00   5.017774074601689e+00   3.460448600000000e+00 -4.19427740e-01  -6.44582610e-01   1.58722790e-01
C     5.001928157699999e+00   5.702707275281017e+00   3.426462472000000e+00 -2.31784512e+00   1.85514460e-01   1.94167180e-01
C     4.899202696724999e+00   4.251631618086052e+00   2.610506400000000e-02  1.28737420e+00   1.86306100e-01  -3.60889970e-01
C     6.138901310174999e+00   4.960378026936533e+00   5.214770400000000e-02  2.76881470e-01   2.93665530e-01  -4.58294980e-01
C     6.164504020350000e+00   4.957934098094579e+00   3.433636880000000e+00  7.22151150e-01   9.88439270e-01   1.28967110e-01
C     7.369946701349999e+00   5.664425823922866e+00   3.443672320000000e+00  1.61387068e+00   1.92985182e+00  -8.32065900e-02
C     7.339751437350000e+00   4.180157986963358e+00   5.633936000000000e-03  1.73159596e+00   3.14574250e+00  -1.44876330e-01
C     8.604642893099999e+00   4.947774639595789e+00   1.352421427200000e+01 -3.66178000e-03   4.91303520e-01   1.66639770e-01
C     8.652548479575000e+00   4.985895664294546e+00   3.472475760000000e+00 -1.08230491e+00   1.38878114e+00  -3.25234230e-01
C     9.874268664824999e+00   5.732270418286613e+00   3.503502527999999e+00  3.76641640e-01  -1.43709967e+00  -5.20179510e-01
C     2.496330150000000e-02   3.937721987799600e-03   6.953973488000001e+00 -8.67144220e-01  -2.94122840e-01  -3.45260490e-01
C     1.224887204925000e+00   7.083832233872395e-01   6.859480415999999e+00  1.21147514e+00   1.06566064e+00  -3.33980890e-01
C     1.184007644925000e+00   6.859083770236698e-01   1.020606600800000e+01  2.93619657e+00   6.01720500e-02  -7.58594900e-02
C     2.464430005725000e+00   1.425404829988940e+00   1.018333496800000e+01 -5.35172410e-01  -1.61666225e+00   2.93229770e-01
C     2.477391702900000e+00   4.956895583640000e-05   6.726551840000000e+00 -3.21060070e-01   1.09841487e+00   3.45616670e-01
C     3.755689739025000e+00   6.927245567492251e-01   6.645419408000000e+00 -9.96696190e-01  -8.44690900e-02   9.24921680e-01
C     3.714732235725000e+00   6.929668938666474e-01   1.028287432000000e+01 -1.86642120e+00  -6.50785350e-01  -5.43748500e-02
C     4.915221671774999e+00   1.408269853829038e+00   1.026570160000000e+01  2.98735240e-01  -5.44868820e-01  -3.26270770e-01
C     8.675838588375001e+00   6.398845173384465e+00   6.845594680000000e+00  1.08836880e-01   3.87103090e-01  -4.25017120e-01
C     6.208464337350000e+00   7.408348147728528e-01   6.932907088000000e+00 -1.15845866e+00  -2.91773300e-01  -5.60343560e-01
C     6.146640362550000e+00   7.226423675551080e-01   1.024665466400000e+01  6.96368910e-01   1.55288400e-02  -2.96532100e-02
C     7.408395044175000e+00   1.379180818032818e+00   1.018446322400000e+01 -1.77909880e+00   2.88477264e+00  -9.83680600e-02
C     8.610027007725000e+00   2.158788931167469e+00   6.840892751999999e+00  1.13138400e-01  -5.42018000e-02  -5.46102150e-01
C     2.479081349475000e+00   2.823829866507850e+00   6.741785744000000e+00 -5.03132360e-01  -2.56748250e-01   1.35058300e-01
C     2.461687459050000e+00   2.833876674110883e+00   1.013614623200000e+01 -2.32999700e-01  -2.86665430e-01   2.95357440e-01
C     3.701079660674999e+00   3.490309838589374e+00   1.012342860000000e+01 -6.09868720e-01   2.54862710e+00   1.28785080e-01
C     3.737194437299999e+00   2.115856643708808e+00   6.640195512000000e+00 -1.48459516e+00  -1.92230310e-01   6.88952690e-01
C     4.923200285175000e+00   2.832441415881878e+00   6.743783992000000e+00  1.47570460e-01   1.60300409e+00   2.52319300e-01
C     4.911141591450000e+00   2.788576540393644e+00   1.016180956800000e+01  7.91671670e-01   1.87758422e+00  -9.94539000e-03
C     6.147959852400000e+00   3.539929708275761e+00   1.015751836000000e+01  5.39108240e-01  -3.82312620e-01   3.08647870e-01
C     6.152184246150000e+00   2.160854752625369e+00   6.826719920000000e+00  1.39840296e+00   4.93005870e-01   6.00150800e-02
C     7.380596943374999e+00   2.949380858872649e+00   6.812333023999999e+00  5.18314270e-01  -3.50785825e+00   3.17593440e-01
C     7.419184201275000e+00   2.854137504489672e+00   1.014872568800000e+01 -9.89229040e-01  -7.95123500e-01   4.69840540e-01
C     8.632632783224999e+00   3.584277336721482e+00   1.020406952800000e+01  1.66327640e-01  -1.54608463e+00  -2.45092990e-01
C     9.832338755999999e+00   4.234737506064265e+00   6.837816432000000e+00  1.73596021e+00   3.02970030e-01  -2.98697800e-02
C     3.665083536825000e+00   4.979075513929117e+00   6.885287640000000e+00  1.11860420e-01   1.70626700e-01   7.77789000e-03
C     3.671737003200000e+00   4.967756564544774e+00   1.013263620800000e+01 -3.82322210e-01  -3.24509160e-01   5.68527270e-01
C     4.882693544099999e+00   5.679261799596185e+00   1.020672968800000e+01  1.27388193e+00  -7.50969040e-01  -1.18393870e-01
C     4.879771188000000e+00   4.292449347684498e+00   6.839523640000000e+00  1.50562830e+00  -1.12980990e+00  -4.89981540e-01
C     6.124730123775000e+00   5.011694832828084e+00   6.789487063999999e+00  8.70500540e-01  -5.65216390e-01  -3.22620300e-02
C     6.150624529725000e+00   4.959717747951167e+00   1.024561018400000e+01 -6.34261990e-01  -1.86883480e-01  -9.83542500e-02
C     7.399472717849999e+00   5.632379686102370e+00   1.035382388800000e+01 -1.16089818e+00   2.26041600e+00  -6.78351440e-01
C     7.408412755199999e+00   4.332742632606789e+00   6.775879448000000e+00 -1.70614573e+00  -3.38858660e-01   2.15557500e-01
C     8.651978140199999e+00   4.962962593281093e+00   6.846477592000000e+00 -6.89986320e-01   1.62225948e+00  -1.27187600e-01
C     8.626098080550001e+00   4.979010254541524e+00   1.031431235200000e+01  1.30985300e-01   2.64688760e-01  -4.47717750e-01
C     9.825149595825000e+00   5.743672302810242e+00   1.023617423200000e+01  1.35853041e+00  -2.83727352e+00  -8.32665900e-02
