72
Lattice="7.395 0 0 3.6975 6.40425786098592 0 0 0 13.6 " PBC="1 1 1" Properties=species:S:1:pos:R:3:force:R:3 Energy="-581.40437594"
C     3.650564933325000e+00   6.247798702393849e+00   1.354161588000000e+01 -2.62523900e-02   2.16450980e+00   6.10597540e-01
C     1.183736174475000e+00   5.824326053319775e-01   1.352652926400000e+01  3.25056970e-01  -2.94820800e-01   1.70548060e-01
C     1.306556956350000e+00   8.430451051114093e-01   3.383488512000000e+00 -9.36250620e-01   4.94592140e-01   4.85136390e-01
C     2.546726335500000e+00   1.555251990653962e+00   3.328840584000000e+00  1.42070550e-01  -8.47263310e-01   1.01055862e+00
C     6.114036436125000e+00   6.283087444054021e+00   1.358206241600000e+01  5.41963690e-01  -7.32300780e-01   1.68703620e-01
C     3.661675107375000e+00   5.672145516347311e-01   1.356009311200000e+01  8.74284010e-01   2.24821990e-01   3.59823460e-01
C     3.806886766050000e+00   8.790253785353040e-01   3.454848800000000e+00 -4.72389500e-01  -8.45254890e-01  -4.81387430e-01
C     5.024644784249999e+00   1.607628445051028e+00   3.469812335999999e+00 -1.13303730e-01  -2.93582200e-02   5.95779990e-01
C     8.637157007250000e+00   6.305145053018012e+00   1.355572411200000e+01 -1.45058932e+00  -1.31804604e+00   7.06559450e-01
C     6.127258511250000e+00   6.476583705716125e-01   3.662616000000000e-03  8.55440570e-01  -1.84405525e+00  -3.51328760e-01
C     6.238425845399999e+00   8.839318085670074e-01   3.522755504000000e+00 -1.13342400e-02   2.43603240e-01  -3.62436570e-01
C     7.468511698350000e+00   1.578331911300144e+00   3.437598424000000e+00  5.16547930e-01   8.91031800e-01  -2.86842000e-02
C     1.212091044825000e+00   2.019378228197530e+00   1.349711450400000e+01 -8.85088230e-01  -1.16682123e+00   5.30921590e-01
C     2.425635983625000e+00   2.698979371867779e+00   1.340057245600000e+01  1.70398573e+00  -3.76530310e-01   1.14381313e+00
C     2.535557408175000e+00   2.950728314726393e+00   3.415501960000000e+00  7.73760230e-01   7.22118640e-01  -4.11021210e-01
C     3.784713228300000e+00   3.663215002294848e+00   3.443778944000000e+00 -1.24559190e+00   1.91786301e+00   1.05537067e+00
C     3.682445887575000e+00   1.974916155663851e+00   1.357968554400000e+01 -4.54982210e-01   1.45714423e+00  -1.44958951e+00
C     4.914974715750000e+00   2.742219447959191e+00   1.359177009600000e+01 -8.06793710e-01  -3.51454540e-01   6.37850380e-01
C     5.043034337475000e+00   3.039863800303130e+00   3.528651512000000e+00 -1.04219263e+00  -1.13014325e+00  -1.32390278e+00
C     6.234859643625000e+00   3.778563947846088e+00   3.432124695999999e+00  8.64425030e-01  -8.47731180e-01   5.65163580e-01
C     6.138399818249999e+00   2.061245103318601e+00   8.063249600000000e-02  1.64181270e-01  -1.08049871e+00  -2.59074780e-01
C     7.388120098725000e+00   2.725877511050093e+00   1.135537440000000e-01  1.15441580e-01  -6.98463550e-01  -1.36310557e+00
C     7.469348997225000e+00   3.040939331368139e+00   3.403391024000000e+00 -6.36517730e-01  -1.66816840e+00   2.79481970e-01
C     8.709356536800000e+00   3.673925867395384e+00   3.430837320000000e+00  5.07668190e-01   1.18771435e+00  -5.37465020e-01
C     2.461087983375000e+00   4.108649004337278e+00   1.342817066400000e+01 -6.03116790e-01   7.99783330e-01   1.18429192e+00
C     3.666397295549999e+00   4.841998586565941e+00   1.355918504000000e+01  4.39502620e-01   1.77263230e-01  -6.75791500e-01
C     3.732923787825000e+00   5.116999148223964e+00   3.556658128000000e+00  3.74053400e-02  -1.30108920e-01  -7.53227000e-01
C     4.954241980875000e+00   5.822781154196207e+00   3.504789632000000e+00  7.28222750e-01   1.40498945e+00  -3.08780780e-01
C     4.916059155525000e+00   4.171970591587399e+00   1.640404800000000e-02 -5.25546540e-01  -1.00099426e+00   1.34946040e-01
C     6.136926401475000e+00   4.852570543313494e+00   1.136829440000000e-01  9.22432160e-01   2.14699530e-01  -1.09047848e+00
C     6.213341820525000e+00   5.192809550641713e+00   3.459380455999999e+00  5.82433180e-01  -1.68882563e+00   7.98384000e-02
C     7.482297050624999e+00   5.822638851586557e+00   3.472050488000000e+00 -4.28613300e-02   1.74860608e+00  -6.78596930e-01
C     7.394025265049999e+00   4.097354519217960e+00   5.316049600000000e-02  1.02953570e-01   3.51264174e+00   7.20936760e-01
C     8.654711627999999e+00   4.840970062753625e+00   9.686871999999999e-03 -1.25114197e+00   3.29053690e-01  -1.24746046e+00
C     8.709738747374999e+00   5.100916263545303e+00   3.403989560000000e+00 -3.23599800e-01   1.13740259e+00   1.18717470e+00
C     9.904561099124999e+00   5.888566843700541e+00   3.529003480000000e+00  6.92784040e-01  -2.60743371e+00  -4.68399550e-01
C     7.404546279450000e+00   1.160860115883468e-01   7.051328272000000e+00  1.07329872e+00  -9.80050100e-02  -9.77057390e-01
C     1.267024358625000e+00   8.061995524080499e-01   6.901656599999999e+00 -2.88353940e-01  -1.11201870e-01  -1.81831140e-01
C     1.159161258375000e+00   5.825873322018751e-01   1.008105984000000e+01 -7.92953720e-01   4.04579610e-01  -3.52614920e-01
C     2.367443138700000e+00   1.302931019483293e+00   1.005184744800000e+01  1.00311313e+00   4.45136000e-03  -5.22410600e-02
C     2.496708626100000e+00   8.693101193616841e-02   6.849026368000001e+00 -2.00864800e-02   4.60003100e-02  -1.59255010e-01
C     3.677573506950000e+00   8.675206416304430e-01   6.800341496000001e+00  8.83194080e-01  -9.48759820e-01   1.90871300e-01
C     3.623343494625000e+00   5.808809817376566e-01   1.010498101600000e+01 -4.55908380e-01   9.29964530e-01   4.80542540e-01
C     4.852167612675000e+00   1.304876184723111e+00   1.013938684000000e+01 -3.04902560e-01  -6.57096410e-01  -8.92010720e-01
C     4.885417122599999e+00   9.602364916063921e-02   6.909317344000000e+00  1.47756420e+00   9.22798590e-01  -2.76948110e-01
C     6.156774433574999e+00   7.691723109092022e-01   6.951618784000000e+00 -4.51456740e-01   1.41988765e+00   2.64760640e-01
C     6.055432059449999e+00   5.676176996670180e-01   1.014396378400000e+01  2.75477030e-01  -5.73984240e-01   8.02441100e-02
C     7.286402798099999e+00   1.253561620321811e+00   1.006404760000000e+01  5.35457040e-01   4.78097460e-01   7.96930980e-01
C     1.283810343075000e+00   2.220513424592463e+00   6.788006975999999e+00 -4.40923700e-02   7.78672020e-01   1.16878539e+00
C     2.508360890625000e+00   3.014862218043476e+00   6.809736648000000e+00 -9.10904620e-01  -8.23053190e-01  -6.52698780e-01
C     2.365778524200000e+00   2.743517975282885e+00   9.979930376000000e+00  4.24964460e-01  -1.62371806e+00   2.45543730e-01
C     3.609524125350000e+00   3.420506437916568e+00   9.974912112000000e+00  4.21655460e-01   5.15776910e-01   3.83963010e-01
C     3.712755071550000e+00   2.302957677514494e+00   6.742251408000000e+00  9.10275860e-01  -1.04780418e+00   6.98058100e-01
C     4.989814888875000e+00   2.967770941487953e+00   6.804085167999999e+00 -1.24529489e+00  -8.42307350e-01   2.23280680e-01
C     4.862091776625000e+00   2.706846746478475e+00   9.988996951999999e+00 -1.31606798e+00   6.00432950e-01   9.17755300e-01
C     6.055434684675000e+00   3.423407118429098e+00   1.009385336000000e+01  1.47753763e+00   7.97414530e-01   3.86482700e-01
C     6.184175496824999e+00   2.207401987475685e+00   6.926643064000000e+00  2.40170640e-01  -6.36375700e-02  -6.70537750e-01
C     7.428815782049999e+00   2.898470787397786e+00   6.913827784000000e+00  4.84007790e-01   2.83299160e-01  -5.56183160e-01
C     7.278956698649999e+00   2.658641705438519e+00   1.013862034400000e+01  5.73136260e-01   1.90029146e+00  -1.09918913e+00
C     8.528960984099999e+00   3.406681310303872e+00   1.001666533600000e+01 -8.43274580e-01  -1.03197510e-01   1.19865961e+00
C     9.905296642800000e+00   4.440703177992682e+00   6.886165520000000e+00  5.27692270e-01  -1.22266113e+00   5.59310700e-01
C     3.761727756525000e+00   5.114734858814982e+00   7.011107904000000e+00 -3.99764540e-01  -8.52575070e-01  -1.16713083e+00
C     3.618761441699999e+00   4.836074519960284e+00   1.008235918400000e+01  1.93001000e-02   7.74314540e-01  -4.00255760e-01
C     4.867038883725000e+00   5.588527234874384e+00   1.005735789600000e+01 -5.88499480e-01  -1.31227014e+00   8.99780280e-01
C     4.982173413525000e+00   4.368305156290476e+00   6.842326463999999e+00  9.53631690e-01   1.04603139e+00   5.43322820e-01
C     6.267084317475000e+00   5.041861449051828e+00   6.839267959999999e+00 -2.37449955e+00   1.21952419e+00   5.05227750e-01
C     6.095701827750000e+00   4.896515215854663e+00   1.016062405600000e+01 -1.99053460e-01  -1.91390722e+00  -7.78543540e-01
C     7.342346564700000e+00   5.578149455225147e+00   1.018232326400000e+01 -7.59676810e-01  -6.18023090e-01  -1.91206630e-01
C     7.461797482049999e+00   4.323147901566093e+00   6.893062352000000e+00 -4.30534900e-02   1.28907300e-01  -2.25079110e-01
C     8.663503839299999e+00   5.088450439663391e+00   6.923546207999999e+00 -8.86423330e-01   9.11715400e-02  -2.58273680e-01
C     8.553189999075000e+00   4.817868431673297e+00   1.014866095200000e+01 -8.71302040e-01   5.02587920e-01  -2.32752410e-01
C     9.752373699974999e+00   5.540092473104990e+00   1.015628524800000e+01  1.44176302e+00  -6.50681200e-02  -2.79974360e-01
