72
Lattice="7.395 0 0 3.6975 6.40425786098592 0 0 0 13.6 " PBC="1 1 1" Properties=species:S:1:pos:R:3:force:R:3 Energy="-582.12895425"
C     3.701112198675000e+00   6.337264775761319e+00   1.336944382400000e+01  1.50670980e-01   1.10498238e+00   7.43760020e-01
C     1.273750628775000e+00   6.630504279549151e-01   1.341693284800000e+01 -1.84228069e+00  -5.70142800e-02  -6.96764600e-02
C     1.279781177325000e+00   8.087894342866339e-01   3.585745128000000e+00 -2.87981590e-01  -5.65939910e-01  -3.39708950e-01
C     2.494948505175000e+00   1.540156834665049e+00   3.567520040000000e+00 -8.38137800e-02  -5.29457950e-01  -8.34476900e-02
C     6.196384161149999e+00   6.352343152594639e+00   1.341611562400000e+01 -1.78090764e+00   4.89556080e-01  -5.73215400e-02
C     3.696802873350000e+00   6.657243977392009e-01   1.338992474400000e+01  2.93757600e-02   1.06419770e-01   6.71961670e-01
C     3.713708878650000e+00   7.957769429537929e-01   3.521578968000000e+00  5.93983250e-01   4.47504600e-01  -8.70417000e-03
C     4.971181929225000e+00   1.476999836841929e+00   3.475271920000000e+00 -8.97906010e-01   4.45233710e-01   9.05099260e-01
C     8.599605640949999e+00   6.359531035446389e+00   1.343021814400000e+01  2.15842120e-01  -1.06487114e+00   6.35347000e-02
C     6.124596644025000e+00   6.139027442005458e-01   1.340856272800000e+01  2.17871627e+00   1.47512014e+00  -2.72581520e-01
C     6.198869102999999e+00   7.521718882069393e-01   3.528944183999999e+00 -5.71074580e-01   2.33230529e+00  -1.24165600e-02
C     7.409364232874999e+00   1.462431174891687e+00   3.571146616000000e+00  1.90860177e+00   2.23935329e+00  -1.99896760e-01
C     1.231456848975000e+00   2.088899521311603e+00   1.343011600800000e+01 -7.69214100e-01   2.99394430e-01  -3.87360530e-01
C     2.439345352275000e+00   2.821912944045195e+00   1.344894779200000e+01  1.19968697e+00  -9.95268740e-01   2.13822830e-01
C     2.476385243400000e+00   2.953618492256032e+00   3.555763656000000e+00  1.93846227e+00  -3.86667600e-01  -3.21065580e-01
C     3.732663631725000e+00   3.639176044034131e+00   3.490238992000000e+00 -1.73434280e-01   9.74661080e-01   7.89610500e-01
C     3.690047836650000e+00   2.063714457064260e+00   1.345226347200000e+01 -2.48039940e-01   1.75456974e+00  -7.31599440e-01
C     4.935662080349999e+00   2.776722002924470e+00   1.334905484000000e+01 -8.14141030e-01   1.61765530e-01   6.13798630e-01
C     4.949765343675000e+00   2.912700728149813e+00   3.574769927999999e+00  7.16987900e-02  -9.93913280e-01  -1.17733982e+00
C     6.173829559050001e+00   3.592615104071994e+00   3.551213776000000e+00  2.12345129e+00   1.62225065e+00  -5.17978900e-02
C     6.156663952274999e+00   2.045973189812752e+00   1.334240294400000e+01 -4.57537950e-01   5.55760740e-01   9.25928400e-02
C     7.359987780899999e+00   2.800148906261507e+00   1.331515194400000e+01  1.24089243e+00  -9.82032460e-01   4.79519490e-01
C     7.470691115775001e+00   2.938269343400391e+00   3.550449048000000e+00 -2.94833606e+00  -2.07378186e+00   1.86474920e-01
C     8.670302284649999e+00   3.654146573165088e+00   3.559341136000000e+00 -5.77808290e-01   1.54949730e-01  -2.21514310e-01
C     2.457138387825000e+00   4.235909933550696e+00   1.345206355200000e+01 -1.19444477e+00   1.37627750e-01   1.08043270e-01
C     3.683569225050000e+00   4.940048542913484e+00   1.340954260800000e+01  2.80682670e-01  -8.41953780e-01  -5.34025100e-02
C     3.770959304775000e+00   5.093624375545907e+00   3.516263544000000e+00 -7.29614570e-01  -1.15203702e+00   5.26263700e-02
C     5.011755447150000e+00   5.787393979092726e+00   3.518881680000000e+00 -9.60664420e-01  -3.26389400e-01   2.30421870e-01
C     4.905181406324999e+00   4.213529870203454e+00   1.336192098400000e+01  7.10264830e-01   1.31080690e-01   2.39255150e-01
C     6.128915878650000e+00   4.958463345964128e+00   1.337435220000000e+01  8.44995320e-01  -1.95010521e+00  -4.72696130e-01
C     6.209958534075000e+00   5.033340327798783e+00   3.525480536000000e+00 -3.54807500e-01   1.70719850e-01   2.01409070e-01
C     7.412048506950000e+00   5.784744793786358e+00   3.556492344000000e+00  1.04882553e+00  -1.26311557e+00  -5.06222220e-01
C     7.372925185500000e+00   4.219482948097217e+00   1.330113075200000e+01 -6.81131560e-01   2.75268120e-01   1.22097836e+00
C     8.587293816374999e+00   4.940695308914766e+00   1.346605754400000e+01  9.15978960e-01  -6.98655470e-01  -9.33601860e-01
C     8.663940440099999e+00   5.057570004858571e+00   3.537025984000000e+00  5.04436100e-02   1.59620719e+00   3.64859980e-01
C     9.908675935949999e+00   5.792301561890844e+00   3.567271295999999e+00 -1.39500400e-01  -2.75421954e+00  -6.44338190e-01
C     7.420957374375000e+00   4.947090664856341e-02   6.727778424000000e+00  6.74820580e-01  -2.16423250e-01   5.04656870e-01
C     1.258399052475000e+00   7.664421757834842e-01   6.830431904000000e+00 -6.95692300e-01   9.18051300e-02  -1.57686750e-01
C     1.179134302950000e+00   6.155785463547720e-01   1.025933040800000e+01  4.75155520e-01   1.11247902e+00  -7.00336920e-01
C     2.389976147400000e+00   1.326751144252935e+00   1.019003024800000e+01  1.72799708e+00   7.33166380e-01   1.06664540e-01
C     2.479630576124999e+00   8.752884940739941e-02   6.896554696000000e+00  6.14704540e-01  -2.16136224e+00  -1.32015360e-01
C     3.744532236975000e+00   7.373882353203366e-01   6.918707600000000e+00 -9.76852200e-02  -3.66675880e-01   5.08857700e-02
C     3.661390104075000e+00   6.142950690370494e-01   1.009207760800000e+01 -1.58560954e+00   1.11897589e+00   1.15013273e+00
C     4.876545821775000e+00   1.350335784461064e+00   1.021747817600000e+01  8.17318270e-01  -2.74117980e-01  -7.87195900e-01
C     4.996078934550000e+00   3.932163091977120e-02   6.896602160000000e+00 -1.39930510e-01   2.97618750e-01  -8.13868030e-01
C     6.236734867724999e+00   7.993381586220030e-01   6.771387096000000e+00 -2.12647642e+00  -1.54665330e+00   6.60290150e-01
C     6.130892599125000e+00   6.635690447564179e-01   1.018044796000000e+01 -5.65812330e-01  -1.02827634e+00   2.84322740e-01
C     7.369018665824999e+00   1.365001406875306e+00   1.023953424800000e+01 -9.21923460e-01  -2.11112530e-01   7.63235500e-02
C     8.627823629849999e+00   2.175359371997011e+00   6.850060512000000e+00  6.06038950e-01   1.02382861e+00   2.86207980e-01
C     2.501195357475000e+00   2.859557812172061e+00   6.942355279999999e+00 -1.29011206e+00   5.26946500e-02  -1.16634872e+00
C     2.418090236550000e+00   2.782717156792373e+00   1.025075370400000e+01  4.92873510e-01  -1.71454536e+00  -2.86749590e-01
C     3.639271289324999e+00   3.475210904088324e+00   1.027833042400000e+01  1.12381977e+00   4.87814530e-01  -3.71664100e-01
C     3.711595165799999e+00   2.128952070180936e+00   6.923402319999999e+00  1.28188508e+00   2.29919426e+00   1.66879760e-01
C     4.947807665325000e+00   2.908319831518101e+00   6.908651487999999e+00 -6.65168280e-01  -1.73456554e+00  -2.26788800e-01
C     4.893805308075000e+00   2.772254200513598e+00   1.025818093600000e+01 -1.50853649e+00  -5.12327860e-01  -8.52477100e-02
C     6.096077493749999e+00   3.474708361974050e+00   1.021854632000000e+01  1.49703178e+00  -1.39701110e-01   2.89012590e-01
C     6.185499238799999e+00   2.206092252700737e+00   6.837355935999999e+00  2.95409650e-01   5.09811380e-01  -1.34560000e-01
C     7.407672737550000e+00   2.928219333668429e+00   6.807885280000000e+00  9.63271700e-02  -1.57134030e-01   3.26615870e-01
C     7.361925788550000e+00   2.783808954672346e+00   1.025129906400000e+01  2.92512080e-01   7.45330300e-02  -5.69228070e-01
C     8.627837495474999e+00   3.495393154223170e+00   1.020963913600000e+01 -2.74723206e+00   2.36630830e-01   2.89227790e-01
C     9.860336817600000e+00   4.277761438452902e+00   6.790196984000000e+00  1.13371070e+00   6.04918840e-01   8.07478870e-01
C     3.703407865500000e+00   5.022546015218332e+00   6.769987928000000e+00 -5.50197910e-01  -2.14282520e-01   2.74502120e-01
C     3.646177812600000e+00   4.900242237758868e+00   1.024811312800000e+01  4.40562300e-02   1.21838680e-01  -3.26958520e-01
C     4.895447478750000e+00   5.624588650245365e+00   1.022062916000000e+01 -1.43097621e+00  -1.43787657e+00   2.60860770e-01
C     4.926502004774999e+00   4.304342374743411e+00   6.878641864000000e+00  4.48129340e-01   1.19496073e+00  -2.84028220e-01
C     6.162490066049999e+00   5.041464321021929e+00   6.882266536000000e+00 -4.48930930e-01   9.24434810e-01  -3.44624400e-02
C     6.090246979950000e+00   4.882355273641046e+00   1.020755439200000e+01  7.46268970e-01   1.18868790e+00  -4.02945420e-01
C     7.317477586424999e+00   5.613308766833969e+00   1.012769492000000e+01  9.74413010e-01  -8.06444970e-01   1.39158450e-01
C     7.388404917150000e+00   4.366236516959117e+00   6.850682304000000e+00  6.70994540e-01  -1.58105364e+00   8.91602200e-02
C     8.648193822900000e+00   5.013003286751460e+00   6.844435960000000e+00  2.03558900e-01   1.01990062e+00  -8.45849800e-02
C     8.571376041899999e+00   4.915357951415512e+00   1.016531510400000e+01  2.60723240e-01  -1.32720920e-01  -5.96871000e-02
C     9.806277370949999e+00   5.609058965360651e+00   1.017005905600000e+01  3.63226980e-01   1.31285480e+00   2.08871150e-01
