26
Lattice="8.88768389401873 1.33226762955019e-15 0 4.44384194700937 7.69696003302603 0 0 0 30 " PBC="1 1 1" Properties=species:S:1:pos:R:3:force:R:3 Energy="-206.31682319"
C     8.276318785844876e-01   1.000882818096284e+00   3.314809200000000e+00  1.15630903e+00   5.25275298e+00  -3.32454600e-01
C     3.294185594409315e+00   5.478515270793294e-01   3.387808200000000e+00 -1.43481086e+00   1.29848160e-01   3.70565220e-01
C     4.649735897061728e+00   1.004253932650223e+00   3.442868400000000e+00  9.68941310e-01  -3.32871873e+00  -1.42859770e-01
C     1.019577889801112e+01   7.640354892608173e+00   3.468571800000000e+00 -4.14678234e+00   7.12948540e-01   1.21745682e+00
C     7.049207863314815e+00   3.641748135250233e-01   3.485794200000000e+00  7.73873680e-01  -6.39616310e-01  -9.26869920e-01
C     1.244306394231404e+01   6.981276597344921e+00   3.427954200000000e+00  1.99421343e+00   1.15937508e+00  -7.66555350e-01
C     4.947603116127508e+00   7.358198423345228e+00   3.342152700000000e+00 -1.60311440e-01  -1.15769769e+00  -2.24995080e-01
C     6.002258124570226e+00   6.380289568516089e+00   3.285123600000000e+00  1.00273600e-02   2.47490051e+00   7.26074170e-01
C     7.398047860426013e+00   6.847780368645401e+00   3.424106100000000e+00 -1.22461489e+00   3.86309460e-01  -7.10625920e-01
C     8.408109403781767e+00   5.882952266478446e+00   3.505409100000000e+00  2.37750767e+00   1.79175846e+00   4.72090990e-01
C     9.845444617919725e+00   6.255564333649154e+00   3.627277200000000e+00 -2.84031785e+00   1.22076287e+00  -9.55253290e-01
C     1.081474595422150e+01   5.259525135530150e+00   3.580013700000000e+00 -1.49132030e+00  -1.77282309e+00  -8.43082260e-01
C     1.209489745721128e+01   5.613473229172112e+00   3.337355700000000e+00  4.03401517e+00   3.22201230e-01   4.63782460e-01
C     4.281774987801615e+00   4.578435920638707e+00   3.186461400000000e+00 -8.83386590e-01   6.05016139e+00   9.34668060e-01
C     5.622223204676317e+00   5.040125752902209e+00   3.240949500000000e+00  8.18351070e-01   2.58829700e-02  -1.11820673e+00
C     6.698551185848940e+00   4.149630349498576e+00   3.164479500000000e+00  6.62783990e-01  -1.55780939e+00   2.79950194e+00
C     8.053053097289160e+00   4.574430884456698e+00   3.411433800000000e+00  4.71955690e-01  -3.63532578e+00  -1.41909449e+00
C     9.091522344614274e+00   3.535331736176260e+00   3.350853600000000e+00  1.05004505e+00  -1.39732055e+00  -9.95863700e-02
C     1.050743468547989e+01   3.871180813155680e+00   3.443272500000000e+00 -1.34822452e+00  -5.49100210e-01   1.31339169e+00
C     2.690682219347616e+00   2.849357337723377e+00   3.558089100000000e+00 -6.59669501e+00   1.32821956e+00  -2.15044223e+00
C     3.959293642571726e+00   3.304963107931165e+00   3.357471000000000e+00  1.09889690e+00  -3.21510252e+00   4.42495260e-01
C     4.973528086834145e+00   2.347911167512919e+00   3.396803400000000e+00  2.79212448e+00   1.93865050e-01   6.17817190e-01
C     6.391912359283949e+00   2.782063970725091e+00   3.463072500000000e+00 -2.07557037e+00  -1.17681164e+00  -2.82938784e+00
C     7.333602639091137e+00   1.751450412999328e+00   3.302842800000000e+00  3.02738308e+00   1.75913820e-01   9.50361690e-01
C     8.754416315445132e+00   2.110601805560771e+00   3.191535600000000e+00 -1.42896977e+00  -2.38227210e-01   1.56459680e+00
C     2.194730571097018e+00   1.524970135022189e+00   3.378745800000000e+00  2.39457602e+00  -2.55634696e+00   6.46611550e-01
