26
Lattice="8.88768389401873 1.33226762955019e-15 0 4.44384194700937 7.69696003302603 0 0 0 30 " PBC="1 1 1" Properties=species:S:1:pos:R:3:force:R:3 Energy="-204.09963614"
C     1.302245076653876e+01   7.211866975008481e+00  -4.126991999999987e-01  5.27284310e-01   2.27132321e+00  -7.71520700e-02
C     9.209946868567599e+00   7.016768588526457e+00  -3.791150999999999e-01  6.28118490e-01   1.89761970e-01  -2.84161630e-01
C     1.058020930931213e+01   6.613640537864008e+00  -3.374759999999810e-02 -7.44740750e-01   3.78445831e+00  -1.23151221e+00
C     1.089998599734849e+01   5.315503509466733e+00  -6.025049999999865e-02  1.87229171e+00  -6.01826172e+00  -2.06594389e+00
C     6.810116772291122e+00   6.423731826682211e+00  -6.911045999999992e-01  1.43828239e+00  -1.42246667e+00   3.24927250e-01
C     8.216249327499375e+00   5.994646009227388e+00  -4.727969999999999e-01 -1.84525760e+00   1.71498488e+00   1.92852800e-01
C     8.401847140875567e+00   4.594010719259412e+00  -2.485196999999992e-01  6.67298456e+00   3.14972670e+00  -1.10735248e+00
C     9.926042133542039e+00   4.177455167885427e+00  -3.194019000000026e-01 -1.83891090e+00   2.70171120e+00   1.18102903e+00
C     1.025304419747681e+01   2.825091901532799e+00  -5.918606999999980e-01  9.49220170e-01   3.63622161e+00   8.34688340e-01
C     4.494794729459099e+00   5.829160829795186e+00  -3.832565999999993e-01 -2.70108601e+00   4.09865727e+00   2.16502770e-01
C     5.769121377273925e+00   5.461579957517687e+00  -4.623768000000013e-01  3.27646637e+00   1.42892010e+00  -1.13414958e+00
C     6.066093912652402e+00   4.136240256012787e+00  -3.784467000000014e-01  2.52172034e+00  -7.12305700e-02   8.66450850e-01
C     7.378408476712111e+00   3.781847970807492e+00  -3.446940000000005e-01  2.34079177e+00  -7.02635167e+00   2.72671840e-01
C     7.882785469651377e+00   2.203906279284439e+00  -3.266603999999980e-01 -5.88091902e+00   5.34324240e+00   4.08630540e-01
C     9.158872456634212e+00   1.926125916646550e+00  -5.550482999999993e-01  5.08179490e+00  -3.02443354e+00  -1.16125414e+00
C     3.480094702680751e+00   4.946099227358127e+00  -2.747039999999998e-01 -4.53162926e+00  -1.90762801e+00   8.67701350e-01
C     3.801511479426355e+00   3.590381317946024e+00  -4.053038999999998e-01 -1.94515552e+00  -2.26354736e+00   4.15150600e-02
C     5.144930537390289e+00   3.180377726827976e+00  -2.458485000000010e-01 -3.87409063e+00  -3.71992519e+00  -1.64837154e+00
C     5.375909131327136e+00   1.760959083481189e+00  -3.342983999999980e-01  3.29477939e+00  -7.67324660e-01   9.46490400e-02
C     6.795142621412208e+00   1.332402893846030e+00  -1.970793000000022e-01  4.37444040e-01  -2.34202860e+00  -5.86505200e-01
C     1.167374229237014e+01   7.599713635166568e+00  -1.384355999999975e-01 -2.03874701e+00   9.64150030e-01  -5.12903210e-01
C     2.791691590895105e+00   2.553284302908590e+00  -6.547709999999967e-01 -9.53264020e-01  -1.66761647e+00   3.22422340e-01
C     3.113696243447073e+00   1.129003028093250e+00  -7.821216000000000e-01 -1.99832244e+00  -7.20278000e-02  -1.29234213e+00
C     4.431055901238805e+00   7.312993330423434e-01  -6.854789999999973e-01  1.49284226e+00  -6.18219050e-01   2.67285163e+00
C     7.320891431664119e-01   5.616677242723801e-01  -7.239927000000002e-01 -3.24146923e+00  -2.84105743e+00   8.71380670e-01
C     2.041502811539472e+00   4.814440801804970e-02  -9.592427999999984e-01  1.05957170e+00   4.47896105e+00   1.93337456e+00
