26
Lattice="8.88768389401873 1.33226762955019e-15 0 4.44384194700937 7.69696003302603 0 0 0 30 " PBC="1 1 1" Properties=species:S:1:pos:R:3:force:R:3 Energy="-206.24269249"
C     7.382039588196712e-01   9.620640468505818e-01   3.496192500000000e+00  1.84292839e+00   1.04290623e+00  -4.33603140e-01
C     3.265667683047618e+00   4.495559596242085e-01   3.418892100000000e+00 -1.77787073e+00  -2.25732377e+00  -3.05987540e-01
C     4.612184143817341e+00   8.580537944515870e-01   3.304542000000000e+00  1.34014600e-01  -1.57210445e+00  -1.13574004e+00
C     1.009341291013277e+01   7.533272706491605e+00   3.042252900000000e+00 -3.21683800e+00   3.82126234e+00   1.89295845e+00
C     6.908167607825779e+00   2.786959160334571e-01   3.204260700000000e+00  4.51260249e+00  -5.66228950e-01  -5.63828710e-01
C     1.237075876769637e+01   6.935064742051204e+00   3.241541400000000e+00  1.16155336e+00   1.31888362e+00   8.03581760e-01
C     4.878522748714554e+00   7.284369259707068e+00   3.417162300000000e+00 -1.15793004e+00   9.89519730e-01   1.57033280e-01
C     5.921940569618009e+00   6.345679571984391e+00   3.466497600000000e+00 -2.57062900e-02  -1.52964989e+00   9.92754320e-01
C     7.323167212716967e+00   6.718842510584447e+00   3.391057200000000e+00 -1.78388216e+00   2.82034610e+00  -9.81908700e-02
C     8.295985005634975e+00   5.794745951200249e+00   3.202060200000000e+00  4.79746761e+00   6.91231600e-01   6.10516740e-01
C     9.752539436293839e+00   6.251342551072700e+00   3.125658300000000e+00 -3.26705081e+00  -5.53588782e+00  -1.27182590e+00
C     1.070776063709419e+01   5.174690781471496e+00   3.021919800000000e+00 -7.95385200e-02   1.45729120e+00   1.24820373e+00
C     1.204130841172920e+01   5.591623483886949e+00   3.249431700000000e+00  1.42260731e+00  -2.94618678e+00   8.96236300e-02
C     4.184292204551293e+00   4.517422118480897e+00   3.505265700000000e+00 -3.26104890e-01   2.21135223e+00  -9.23199700e-01
C     5.572673344824699e+00   4.915095487509286e+00   3.655350000000000e+00 -4.00729300e-02   2.78123651e+00  -3.00674071e+00
C     6.668314663080595e+00   4.093146824075223e+00   3.324167700000000e+00 -6.39211200e-01  -3.55856076e+00   3.07451515e+00
C     8.042509548932443e+00   4.449478589268877e+00   3.343068900000000e+00 -1.43895857e+00  -1.34558619e+00  -9.50913020e-01
C     9.014325033226907e+00   3.413239092548386e+00   3.347954100000000e+00 -2.52405420e-01  -4.03895000e-02  -3.65036270e-01
C     1.034341265701609e+01   3.828803660318508e+00   3.129037800000000e+00  1.21166220e+00  -3.43725777e+00   1.50431913e+00
C     2.477256711217890e+00   2.731247255154226e+00   3.323703900000000e+00 -1.00309638e+00   1.40145138e+00  -6.34154330e-01
C     3.823538492710400e+00   3.164226579840224e+00   3.343786200000000e+00  1.92649548e+00  -1.03036351e+00   5.37888610e-01
C     4.944791138466939e+00   2.194134603678353e+00   3.306671400000000e+00  5.29180000e-01   2.98322325e+00   1.39792563e+00
C     6.384696537541311e+00   2.675560057215577e+00   3.460893000000000e+00 -4.05852425e+00  -3.00936850e-01  -2.58345654e+00
C     7.302317236276103e+00   1.645071882968702e+00   3.311063400000000e+00  8.03105000e-02  -1.03732640e-01   1.14991607e+00
C     8.638707514381446e+00   2.016149869035832e+00   3.482574900000000e+00  2.05399712e+00  -3.15609250e-01  -9.96838640e-01
C     2.157974932096312e+00   1.316013833823752e+00   3.459364500000000e+00 -6.05628890e-01   3.02111394e+00  -1.89721080e-01
