26
Lattice="8.88768389401873 1.33226762955019e-15 0 4.44384194700937 7.69696003302603 0 0 0 30 " PBC="1 1 1" Properties=species:S:1:pos:R:3:force:R:3 Energy="-206.01459366"
C     3.125973070031767e-01   4.510924267853971e-01   3.702848400000000e+00  1.14809088e+00   2.13626400e-01  -2.72463540e-01
C     7.227820718136369e+00   7.476022255970863e+00   3.968212800000000e+00 -1.85134930e-01   3.21301250e+00   4.20284960e-01
C     4.175253071758497e+00   2.543687502234385e-01   4.080123900000000e+00 -2.14612421e+00   1.21693409e+00  -8.84696260e-01
C     9.592735192017363e+00   6.951055099543929e+00   4.156564200000000e+00  3.50749810e-01   2.42897448e+00  -1.80934435e+00
C     1.089417380893513e+01   7.383433753469186e+00   3.768504000000000e+00  1.78318415e+00  -3.36781656e+00   6.45030360e-01
C     1.198065516897765e+01   6.365352924851472e+00   3.633568500000000e+00 -2.74344330e+00   1.16452987e+00   7.08333080e-01
C     4.420559194991593e+00   6.787624623591736e+00   3.535175100000000e+00  8.68461060e-01  -5.59464710e-01   5.21827120e-01
C     5.434573446884412e+00   5.828687312814140e+00   3.605855400000000e+00  3.25003667e+00  -2.80964427e+00   4.30143960e-01
C     6.921833936507459e+00   6.119986308170319e+00   3.951613800000001e+00 -5.69570460e+00   2.45638662e+00  -1.99794182e+00
C     7.874748072406003e+00   5.170113784189656e+00   3.943201500000000e+00  2.48612321e+00   2.16448642e+00   1.25106361e+00
C     9.203363138082910e+00   5.647490636751100e+00   4.101856800000000e+00  1.54361885e+00  -3.66029950e+00   6.34835450e-01
C     1.026906744843982e+01   4.649395195760081e+00   4.144337400000000e+00 -4.26595100e-02   1.44574829e+00  -1.43324018e+00
C     1.161097160119756e+01   5.028878031271169e+00   3.845291700000000e+00  2.18954397e+00  -2.08282300e+00  -8.92910190e-01
C     3.774221135251282e+00   3.935026557817327e+00   3.595015800000000e+00 -6.39228990e-01   3.52000659e+00   1.25682127e+00
C     5.189137833395866e+00   4.373617505152398e+00   3.477937800000000e+00 -3.00070915e+00   2.61338472e+00   1.24186936e+00
C     6.225946550393147e+00   3.475764731595289e+00   3.655384200000000e+00 -8.02293830e-01  -1.17294505e+00  -5.43943620e-01
C     7.550822878474619e+00   3.873327572277647e+00   3.856018500000000e+00 -7.53575930e-01  -3.11066825e+00  -8.32972650e-01
C     8.505216502643957e+00   2.880419112650844e+00   3.865986600000000e+00  3.33409531e+00  -2.18420478e+00   3.21779880e-01
C     9.934129036558236e+00   3.322607234255936e+00   4.044662700000000e+00 -1.49044028e+00  -5.61809833e+00  -5.83198900e-02
C     2.047439919072084e+00   2.170709906431851e+00   4.054670100000000e+00 -6.31539860e-01   2.57355453e+00  -1.40685435e+00
C     3.412933095881319e+00   2.622464964506231e+00   3.862403400000000e+00  6.37615410e-01  -2.16855448e+00  -1.77310940e-01
C     4.495638434581174e+00   1.658022095188777e+00   3.820561800000000e+00 -3.03603500e-01  -8.80856500e-02   4.21370840e-01
C     5.876843481162429e+00   2.108515852423041e+00   3.641322600000000e+00 -1.91163823e+00  -2.79428334e+00   6.65043190e-01
C     6.790772413708520e+00   9.941731471293316e-01   3.612281400000000e+00  2.26672642e+00   4.13635988e+00   5.24855080e-01
C     8.205837136220421e+00   1.420647924833178e+00   3.682228200000000e+00 -1.27204126e+00   2.09026503e+00   1.77087970e-01
C     1.684887739941646e+00   7.929072635448692e-01   3.855629400000000e+00  1.75989186e+00   3.79618490e-01   1.08965166e+00
