26
Lattice="8.88768389401873 1.33226762955019e-15 0 4.44384194700937 7.69696003302603 0 0 0 30 " PBC="1 1 1" Properties=species:S:1:pos:R:3:force:R:3 Energy="-207.25019497"
C     1.304783745804174e+01   7.391085917191812e+00  -4.386051000000002e-01 -4.77357370e-01   1.21979499e+00   2.45956840e-01
C     9.364918968532029e+00   7.151573223461477e+00  -4.907049000000008e-01 -4.75688103e+00  -2.33110946e+00   1.02289858e+00
C     1.061759481842388e+01   6.751419663002621e+00  -5.167332000000009e-01  5.73451093e+00  -9.97636760e-01  -9.00428070e-01
C     1.101443083641173e+01   5.354488919897085e+00  -5.316072000000034e-01 -1.98085965e+00   1.37817786e+00   5.87040800e-02
C     6.923895612842003e+00   6.585777388616206e+00  -2.359820999999975e-01  1.27388004e+00  -9.32264400e-01  -3.29956820e-01
C     8.334930258976833e+00   6.157013150151437e+00  -3.909998999999971e-01 -2.17063151e+00  -4.65059270e-01  -1.07483730e-01
C     8.671016646775245e+00   4.754725938621823e+00  -4.733057999999986e-01 -3.93887834e+00   5.78001130e-01  -3.58380000e-04
C     9.975419083561818e+00   4.392140778251795e+00  -4.659882000000017e-01  2.08925156e+00  -2.24456990e+00  -5.80528000e-03
C     1.030334128936230e+01   2.966778003582641e+00  -3.415427999999991e-01  2.15745474e+00   3.82810137e+00   1.57332820e-01
C     4.478246973160218e+00   6.050546259019667e+00  -4.261085999999992e-01  9.32010090e-01  -3.72028182e+00  -6.69461800e-02
C     5.867987173055956e+00   5.586610761697813e+00  -3.039206999999990e-01  3.24443570e-01   1.70657280e+00  -8.73334310e-01
C     6.226090309163794e+00   4.220409361816047e+00  -4.753451999999996e-01 -6.10495600e-01  -1.59038605e+00   6.07760530e-01
C     7.573386574723094e+00   3.713074555365038e+00  -5.210198999999989e-01  1.38070197e+00   4.00000856e+00   7.81173140e-01
C     7.956244354608110e+00   2.393758648718816e+00  -4.439384999999980e-01 -9.65430480e-01  -7.57201860e-01  -1.44657760e-01
C     9.336311777128895e+00   2.039847269576196e+00  -2.836098000000007e-01 -3.07539297e+00  -1.71876252e+00  -6.69016730e-01
C     3.444171262130109e+00   4.997339506639443e+00  -5.468139000000001e-01  2.77766268e+00  -6.39167570e-01   6.92309260e-01
C     3.797545572659175e+00   3.554413500695434e+00  -4.521285000000006e-01  1.05403761e+00   3.33800018e+00   5.02252290e-01
C     5.190020601854473e+00   3.228667376481792e+00  -3.992085000000003e-01 -4.67239840e-01  -2.29874910e+00  -5.25572540e-01
C     5.524882755592960e+00   1.760961777417200e+00  -3.939321000000007e-01  1.14211793e+00   2.97916690e+00  -3.62948300e-01
C     6.909597236950085e+00   1.405810187104946e+00  -4.980447000000012e-01 -8.04726020e-01   1.33687774e+00   3.06072620e-01
C     7.192366720203460e+00   6.838949107615780e-02  -5.590200000000003e-01  2.15268541e+00  -2.04711974e+00   7.08342730e-01
C     2.778289185832069e+00   2.631773975844915e+00  -2.565266999999984e-01  1.26677038e+00  -2.33007769e+00  -5.02461150e-01
C     3.185868902728672e+00   1.222531175475390e+00  -1.746608999999992e-01  1.40142569e+00   1.60635570e+00  -4.30696210e-01
C     4.559076632991319e+00   7.483012250222109e-01  -3.388826999999992e-01 -1.72959085e+00   4.69944134e+00   2.45994210e-01
C     7.482555291732577e-01   6.846218116668112e-01  -2.564826000000018e-01  1.79856131e+00  -1.71427437e+00   2.77485710e-01
C     2.204442453558155e+00   3.020732000061734e-01  -1.341278999999993e-01 -4.50803025e+00  -2.88383804e+00  -6.86617350e-01
