26
Lattice="8.88768389401873 1.33226762955019e-15 0 4.44384194700937 7.69696003302603 0 0 0 30 " PBC="1 1 1" Properties=species:S:1:pos:R:3:force:R:3 Energy="-204.13660111"
C     1.261747074040388e+01   6.751485779889279e+00  -1.134039000000016e-01  3.94213591e+00   2.01745185e+00  -1.02943845e+00
C     8.918116523877694e+00   6.774878303842854e+00  -8.579789999999932e-02 -1.26804580e-01  -1.38585017e+00   9.16713710e-01
C     1.030309834673880e+01   6.377505039286036e+00   1.060152000000000e-01 -2.48195343e+00  -4.32682330e+00   1.84344300e-01
C     1.060158418796181e+01   4.911438892707833e+00   1.574298000000000e-01  1.13969720e-01   2.62033394e+00   5.28946760e-01
C     6.547941295795120e+00   6.080903839073990e+00  -4.167129000000003e-01 -1.01097491e+00  -1.17672501e+00   1.51800932e+00
C     7.879344871767332e+00   5.749820180957944e+00  -4.601549999999932e-02  1.43234817e+00   1.61843964e+00  -2.41910564e+00
C     8.315937232945679e+00   4.433193438207004e+00  -1.072032000000007e-01 -1.46752533e+00  -3.23335265e+00   1.89227904e+00
C     9.615100424468444e+00   3.995069465436953e+00   1.851159000000000e-01 -9.74649610e-01  -4.17050489e+00  -2.65352138e+00
C     9.960527545766844e+00   2.475319947494312e+00  -1.369478999999991e-01 -3.56613500e-01   3.56342685e+00  -4.46058700e-01
C     4.115061591477656e+00   5.421841553487601e+00  -5.709509999999796e-02  8.58172120e-01  -2.47740995e+00  -2.77863530e-01
C     5.571626197998029e+00   5.052484838591980e+00  -2.551743000000002e-01 -2.58502893e+00  -1.60732191e+00   2.04026695e+00
C     5.927896115936314e+00   3.606263764059128e+00   8.820269999999999e-02 -4.12780690e-01   3.53106839e+00  -3.11876979e+00
C     7.368780137401615e+00   3.345394700181553e+00  -9.822960000000336e-02 -3.93756686e+00  -2.09731894e+00   7.47525720e-01
C     7.584864128516016e+00   1.892551853965291e+00  -1.316439000000003e-01  3.38351580e-01   2.01118484e+00   1.75569395e+00
C     8.958367907596129e+00   1.521601406525859e+00  -2.423652000000018e-01 -2.36095748e+00  -1.80469145e+00  -3.57473810e-01
C     2.989747717288502e+00   4.422929388067798e+00   1.452102000000000e-01  5.71885425e+00   4.35444050e-01  -1.51551936e+00
C     3.378812566683710e+00   3.039351562131106e+00  -1.133303999999988e-01  3.34397394e+00   1.90604074e+00   3.37393960e-01
C     4.839398894585527e+00   2.643515534431479e+00  -4.361850000000089e-02  1.84831060e-01   2.53971631e+00   9.49476620e-01
C     5.231349619404375e+00   1.300175799170021e+00   3.944220000000000e-02 -4.09351331e+00   8.28522230e-01  -1.20829344e+00
C     6.535254123682980e+00   9.098333227526051e-01   1.583388000000000e-01  4.00696865e+00   8.07080300e-02  -1.78780298e+00
C     1.136950802930626e+01   7.193760338355507e+00   1.040031000000000e-01 -3.28594555e+00   3.94358325e+00   3.80553880e-01
C     2.414307290006717e+00   2.137661853999042e+00  -4.809510000000010e-01 -2.55813123e+00  -1.32055354e+00   2.10574920e+00
C     2.630985689456471e+00   7.414538554403222e-01  -5.550927000000030e-01  4.80012138e+00   4.66858700e-02   9.81015330e-01
C     4.127798750206273e+00   4.246068024741656e-01  -2.302235999999986e-01 -1.75500850e+00  -1.58981531e+00  -2.62608880e-01
C     2.404951713288508e-01   1.044970851208923e-01  -4.459190999999976e-01  3.43491026e+00  -8.02540470e-01   1.05595703e+00
C     6.103589986595038e+00   7.419443673091140e+00  -5.340209999999992e-01 -7.67183130e-01   8.50301600e-01  -3.17469790e-01
