26
Lattice="8.88768389401873 1.33226762955019e-15 0 4.44384194700937 7.69696003302603 0 0 0 30 " PBC="1 1 1" Properties=species:S:1:pos:R:3:force:R:3 Energy="-205.34024692"
C     7.319838243400657e-01   9.122647154564819e-01   3.303729900000000e+00 -5.23754160e-01   1.63494573e+00   2.00335284e+00
C     3.067872900122763e+00   3.098139557387440e-01   3.581262900000000e+00 -3.78468650e+00  -2.56721028e+00   2.50075280e-01
C     4.347991207624651e+00   6.813619951549055e-01   3.595625100000000e+00  3.66749180e+00  -1.84229240e+00   1.62727194e+00
C     9.815472815541494e+00   7.315836048671315e+00   3.727902000000000e+00  1.13710528e+00  -4.70028830e-01  -1.84970140e-01
C     1.119875166977495e+01   7.661227585787127e+00   3.576299100000000e+00  1.77122729e+00   1.80303244e+00   5.46400430e-01
C     1.236980018643394e+01   6.755758131493131e+00   3.597883200000000e+00 -1.97688975e+00   1.66418809e+00  -1.33608615e+00
C     4.849020037603847e+00   7.285241864065669e+00   3.411045900000000e+00 -2.50856797e+00  -4.65556092e+00  -3.08510710e-01
C     5.778847614618144e+00   6.199251526799268e+00   3.346305900000000e+00 -1.81278210e-01  -7.25688740e-01  -9.12774210e-01
C     7.111245678413479e+00   6.536652310920736e+00   3.484353000000000e+00  2.22812905e+00   1.13820101e+00   2.03252288e+00
C     8.031504330595897e+00   5.494213682592082e+00   3.880933200000000e+00  3.85983890e+00  -1.01564700e-01  -3.30045228e+00
C     9.568460082567022e+00   5.892099795595700e+00   3.908355900000000e+00 -3.29346022e+00   2.19695996e+00  -1.23378972e+00
C     1.062288796629183e+01   4.981764938927539e+00   3.669949800000000e+00 -9.20379580e-01   4.62066580e-01   1.46584859e+00
C     3.133842181474162e+00   5.380078310182422e+00   3.525071700000000e+00 -7.60178920e-01   5.79682390e-01   1.39074510e-01
C     4.135635112558995e+00   4.411739855454586e+00   3.320061600000000e+00 -2.82708063e+00  -8.81268660e-01   3.05385530e-01
C     5.435045115577845e+00   4.765567953489681e+00   3.140120700000000e+00  2.10078585e+00   1.97008485e+00   1.95905528e+00
C     6.431745537084856e+00   3.760116219919590e+00   3.287183400000000e+00  4.65513030e-01  -9.80096320e-01  -8.35857980e-01
C     7.793144513351482e+00   4.085884973195720e+00   3.465045900000000e+00 -1.60031450e-01   3.30414105e+00   2.11952163e+00
C     8.857436481905385e+00   3.155448273895610e+00   3.540781800000000e+00 -6.63515380e-01   2.16111357e+00  -1.92011980e-01
C     1.019603557171771e+01   3.631550740784887e+00   3.734615400000000e+00  1.19584735e+00  -5.50599840e-01  -2.05670922e+00
C     2.376774779075154e+00   2.726063044695620e+00   3.555191100000000e+00 -1.72357660e+00  -2.16183859e+00   1.50307970e+00
C     3.693584956291063e+00   3.068306063341561e+00   3.479417400000000e+00  3.17851334e+00  -4.39128140e-01   3.17566230e-01
C     4.684902329836508e+00   2.029773796167333e+00   3.647244000000000e+00  1.88783553e+00   1.42546029e+00  -2.83015698e+00
C     6.099950210123744e+00   2.358199540045819e+00   3.343124700000000e+00 -2.06558366e+00   1.02858579e+00   1.74439685e+00
C     7.099379372801320e+00   1.390056588102744e+00   3.459636300000000e+00  1.54447622e+00  -7.62070220e-01  -1.44770638e+00
C     8.512951942084005e+00   1.845897731348250e+00   3.281850900000000e+00 -5.40821600e-02  -2.56496382e+00   1.38852047e+00
C     2.084598391660287e+00   1.325462160138978e+00   3.646997700000000e+00 -1.59369844e+00  -6.66150270e-01  -2.76304641e+00
