26
Lattice="8.88768389401873 1.33226762955019e-15 0 4.44384194700937 7.69696003302603 0 0 0 30 " PBC="1 1 1" Properties=species:S:1:pos:R:3:force:R:3 Energy="-206.8632099"
C     1.260711636642533e+01   6.667424277587237e+00   1.321440000000000e-02 -6.84949210e-01   1.90911035e+00   3.71049930e-01
C     8.780961741560244e+00   6.638561062322738e+00   1.456440000000000e-02  1.94434471e+00  -2.49969691e+00  -6.40392580e-01
C     1.017536890867330e+01   6.125771959085670e+00  -2.205495000000006e-01  8.09350470e-01   4.35570475e+00   1.59401367e+00
C     1.059863374346283e+01   4.791336144156516e+00  -2.044545000000006e-01 -1.13079145e+00  -1.87883955e+00   6.37326410e-01
C     6.372864410542172e+00   5.947073100491566e+00   2.876880000000000e-01  2.76049258e+00  -1.83596483e+00  -1.08599899e+00
C     7.794811710548013e+00   5.646867490867071e+00   8.024550000000000e-02 -1.45313570e+00  -1.31765924e+00   1.52748090e-01
C     8.143959705224166e+00   4.248397971512338e+00  -8.718359999999947e-02  8.55175760e-01   1.14031844e+00   3.87137160e-01
C     9.499876668708024e+00   3.831296782641826e+00  -8.959739999999883e-02  1.52981219e+00  -1.27061336e+00   4.29917520e-01
C     9.830770071671404e+00   2.406006898184155e+00   1.802805000000000e-01  1.78540640e-01   1.70069718e+00  -1.29161808e+00
C     4.104022910238610e+00   5.277158563080478e+00  -8.424690000000012e-02 -6.91597860e-01   6.48981510e-01   6.44477870e-01
C     5.446756772203347e+00   4.852225409501041e+00   2.838600000000000e-02 -5.34795460e-01   6.77307806e+00   1.18850187e+00
C     5.830041160949790e+00   3.586337643024662e+00   1.268820000000000e-02 -1.83458985e+00  -2.20720494e+00  -6.37757500e-01
C     7.153165503879116e+00   3.267575586403042e+00  -8.741999999999805e-02  1.60292540e+00  -2.02529828e+00   3.23991810e-01
C     7.495327956780631e+00   1.883309575270068e+00  -7.958429999999694e-02  2.36826970e-01  -8.22992050e-01   3.84872070e-01
C     8.821332842393812e+00   1.405504540822154e+00   1.371459000000000e-01  3.24490600e-02  -4.56498100e-02   2.35230520e-01
C     3.108839215141876e+00   4.306074756649140e+00  -1.143512999999992e-01 -3.07115291e+00   7.91029990e-01  -5.34708270e-01
C     3.389524225417478e+00   2.912263591443763e+00  -1.137839999999812e-02 -4.21327680e-01   2.95886610e+00   5.96639930e-01
C     4.769938445423891e+00   2.651082569776173e+00   2.403180000000000e-02  3.38116000e-02  -4.00842598e+00  -1.04070947e+00
C     5.053517241123449e+00   1.238478429991946e+00  -1.106592000000006e-01  1.56175344e+00   1.55113493e+00   1.40412503e+00
C     6.496991844633586e+00   8.922939520538430e-01  -1.175552999999994e-01 -2.63323245e+00  -1.09621375e+00   2.44312900e-01
C     1.123395414114553e+01   7.205273912985983e+00  -4.521420000000020e-02  2.06937190e-01  -3.59696747e+00  -1.51548129e+00
C     2.309434708636743e+00   2.024227058891313e+00   1.953639000000000e-01  2.06747870e-01  -2.09246998e+00   2.63471410e-01
C     2.630371550415869e+00   6.124480332223036e-01   3.438558000000000e-01  4.37285450e-01   1.29861162e+00  -2.86856540e-01
C     4.002935634717915e+00   3.024909140270015e-01   1.164285000000000e-01  7.84975220e-01  -6.63856050e-01  -3.58959430e-01
C     4.685910774563297e+00   7.685821374292585e+00   2.663754000000000e-01  9.72352470e-01   4.44611740e-01  -1.43906330e-01
C     6.076723584631075e+00   7.286196671957391e+00   4.680132000000000e-01 -1.69820846e+00   1.78970752e+00  -1.32142771e+00
