26
Lattice="8.88768389401873 1.33226762955019e-15 0 4.44384194700937 7.69696003302603 0 0 0 30 " PBC="1 1 1" Properties=species:S:1:pos:R:3:force:R:3 Energy="-207.76486544"
C     1.224068751357250e+01   6.328972704482474e+00  -2.566023000000008e-01 -1.11235079e+00  -9.17185110e-01  -6.55603070e-01
C     8.414949365385608e+00   6.009333271387034e+00  -5.509281000000001e-01 -2.66624260e-01   1.85515282e+00   5.80081910e-01
C     9.779381307783465e+00   5.666002749258454e+00  -4.354869000000008e-01  1.26195321e+00  -8.79074250e-01  -4.83660360e-01
C     1.014048025991204e+01   4.259028012100970e+00  -3.752397000000016e-01  9.82303550e-01   1.70550932e+00  -2.39292840e-01
C     6.020776191045437e+00   5.442711860608946e+00  -1.689708000000003e-01  2.73058154e+00   3.56440909e+00  -1.16868369e+00
C     7.366032111082708e+00   5.040976420924724e+00  -4.040007000000010e-01  8.41011880e-01  -5.82446830e-01   8.91093680e-01
C     7.695297601440075e+00   3.636772743317240e+00  -2.817729000000000e-01  1.23098854e+00   2.10893844e+00  -3.35472540e-01
C     9.100010482506297e+00   3.275632995071247e+00  -3.377082000000016e-01 -7.04776450e-01   3.77011829e+00   1.04977490e-01
C     9.451691289413310e+00   1.993986087781445e+00  -2.867864999999981e-01  1.58178624e+00  -5.12611631e+00   1.26119980e-01
C     3.697487850573877e+00   4.942945090107433e+00  -2.594376000000018e-01 -1.17923527e+00   1.23516660e-01   6.67612780e-01
C     5.031998694092760e+00   4.524836138260194e+00  -6.364050000000177e-02 -1.79273261e+00  -8.87103330e-01  -1.01970982e+00
C     5.321671285844008e+00   3.159846701704753e+00  -1.627887000000001e-01  2.19999534e+00  -9.56292470e-01   3.08890870e-01
C     6.669111754097576e+00   2.688151822007055e+00  -1.755035999999990e-01  8.41448720e-01   1.88910801e+00  -9.28060300e-02
C     7.067282213428610e+00   1.361291201200227e+00  -2.144121000000005e-01  3.49817180e-01  -1.80438346e+00  -9.25716370e-01
C     8.449017854189171e+00   9.667725082097337e-01  -2.672348999999983e-01  4.18913160e-01   5.32638320e-01   3.71268520e-01
C     2.698952654293132e+00   3.929512532621436e+00  -3.543860999999993e-01 -2.85913471e+00   1.11189824e+00   8.95443370e-01
C     3.003332896426586e+00   2.583144428436174e+00  -2.270001000000015e-01 -8.77447920e-01  -1.88348582e+00  -1.15210253e+00
C     4.367958323667014e+00   2.184838831110921e+00  -2.767248000000002e-01 -2.59639060e+00  -1.05517334e+00   3.94516240e-01
C     4.645902461123852e+00   8.157690821043764e-01  -3.979740000000014e-01  2.66003473e+00  -2.45864809e+00  -8.72123230e-01
C     6.064413338077974e+00   3.991081593475810e-01  -4.241676000000005e-01 -1.93479225e+00  -1.40708072e+00   1.00337206e+00
C     1.081970688253772e+01   6.679617185909961e+00  -4.067390999999994e-01  8.74465930e-01   5.98229080e-01   1.95255880e-01
C     1.952707340376002e+00   1.572937512959548e+00  -2.931947999999984e-01  1.19220378e+00   3.37008360e-01   1.66712420e-01
C     2.372648625733167e+00   1.743127459210088e-01  -3.529011000000004e-01 -3.67153989e+00   3.08322700e-01  -2.39641660e-01
C     8.110314002347490e+00   7.450214733838275e+00  -5.423571000000003e-01  1.51352605e+00   2.25931640e-01   1.00876347e+00
C     4.413161442757794e+00   7.293900790160219e+00  -2.431833000000019e-01 -1.65525584e+00   4.76888550e-01  -8.78251100e-02
C     5.762310568277405e+00   6.880999447530077e+00  -2.835797999999983e-01 -2.87492500e-02  -6.50679770e-01   5.58528570e-01
