26
Lattice="8.88768389401873 1.33226762955019e-15 0 4.44384194700937 7.69696003302603 0 0 0 30 " PBC="1 1 1" Properties=species:S:1:pos:R:3:force:R:3 Energy="-208.0573278"
C     1.337310909631146e+00   1.587285954938674e+00   3.725445900000000e+00 -1.47398098e+00   3.26853905e+00  -5.03912530e-01
C     3.695384133234489e+00   9.980608046708844e-01   3.669511800000000e+00 -1.68108590e-01   2.02622700e+00  -6.80241990e-01
C     5.057136928276490e+00   1.446542961401308e+00   3.676182000000000e+00 -1.51550310e+00  -2.75978192e+00  -2.44935660e-01
C     6.037348296484793e+00   4.286098374465680e-01   3.572979000000000e+00  2.31295573e+00  -6.08352780e-01   1.54714963e+00
C     7.445999310731788e+00   7.588333602792612e-01   3.733737600000000e+00 -8.23357110e-01   1.94352427e+00  -7.28706900e-02
C     1.293337066648125e+01   7.478263071944397e+00   3.795647100000000e+00 -9.75456320e-01   2.38848222e+00  -8.92678660e-01
C     9.398836366953789e-01   2.485130569718151e-01   3.771364200000000e+00  1.86606505e+00  -2.39044771e+00  -3.71030500e-02
C     6.429594541857099e+00   6.880925787622590e+00   3.738584400000000e+00  6.63313010e-01   5.10029870e+00  -3.99196170e-01
C     7.804060635443947e+00   7.331308477723621e+00   3.630960000000000e+00 -7.28747830e-01  -5.30655160e-01   8.36973460e-01
C     8.830538664138537e+00   6.346774387579058e+00   3.695616000000000e+00 -1.70515199e+00  -1.37216560e-01   2.05040600e-02
C     1.017572530518532e+01   6.723107165228270e+00   3.669405600000000e+00  7.65678300e-02   1.37023691e+00  -5.13310510e-01
C     1.121463289313855e+01   5.774304133843774e+00   3.710698800000000e+00  1.18696000e-02  -2.98022610e-01  -2.05904770e-01
C     3.682712210193947e+00   6.131258660073455e+00   3.681113400000000e+00  4.00078890e-01   1.08946345e+00   8.75886790e-01
C     4.715021048387461e+00   5.215178792438903e+00   3.757633200000000e+00  4.07618500e-01  -2.19911751e+00   2.84304000e-02
C     6.076607199308725e+00   5.590078627039328e+00   3.773306100000001e+00 -3.61023880e-01  -3.64168100e+00   1.65494480e-01
C     7.058633921354773e+00   4.517947897820546e+00   3.810011100000000e+00  7.30043960e-01   2.28643867e+00   2.37303400e-02
C     8.415528930595102e+00   4.997993517333193e+00   3.793909200000000e+00  1.99721162e+00  -2.33818106e+00  -6.01808890e-01
C     9.524592117883634e+00   4.008085255756484e+00   3.719261700000000e+00 -1.14624300e+00   3.77248300e-01   5.12008220e-01
C     1.092386493701450e+01   4.411834297154154e+00   3.732651900000000e+00 -2.00003157e+00  -1.00834067e+00  -2.05409660e-01
C     3.068245384985452e+00   3.436101142016694e+00   3.730603800000000e+00 -1.89276501e+00  -5.31204580e-01  -3.81380860e-01
C     4.398353759248872e+00   3.820061837964436e+00   3.785928300000000e+00 -2.50093510e-01   3.96907710e-01  -1.14280030e-01
C     5.331588563228122e+00   2.780967153920816e+00   3.802719600000000e+00  2.31182462e+00   1.51911451e+00  -1.81886410e-01
C     6.701902108658130e+00   3.152324616606635e+00   3.831662700000000e+00  6.40211590e-01   4.60746200e-01  -9.37918600e-02
C     7.736094958058094e+00   2.198450212197573e+00   3.815386500000000e+00  2.05360620e+00  -1.15354637e+00  -6.95078500e-01
C     9.140217830754445e+00   2.645745959508972e+00   3.718429500000000e+00  5.88194370e-01  -2.13985643e+00   6.85178700e-01
C     2.711569075870043e+00   2.063307449808435e+00   3.630151200000000e+00 -1.01909809e+00  -2.49082262e+00   1.12843414e+00
