26
Lattice="8.88768389401873 1.33226762955019e-15 0 4.44384194700937 7.69696003302603 0 0 0 30 " PBC="1 1 1" Properties=species:S:1:pos:R:3:force:R:3 Energy="-206.438913"
C     4.294971910299383e-01   5.556383876024799e-01   3.884342100000000e+00  1.61749542e+00   3.36175007e+00  -5.84109740e-01
C     2.885835047418317e+00   1.119753745164400e-03   3.644442600000000e+00  1.93987980e-01   1.68663670e+00  -3.72529570e-01
C     4.285197409994770e+00   4.516540739587862e-01   3.568639800000000e+00 -3.57133600e-02   6.99678000e-03  -9.64335700e-02
C     9.821421253430401e+00   7.220651130642718e+00   3.433277400000000e+00 -3.75347852e+00  -1.13576162e+00   1.22019773e+00
C     1.111197032448050e+01   7.563308630586275e+00   3.760343100000000e+00  6.64628000e-02   1.88675803e+00  -2.00737620e-01
C     1.203503041908973e+01   6.561285276952745e+00   3.914547000000000e+00  2.99642426e+00  -2.00963711e+00  -4.02947230e-01
C     4.549336313161160e+00   6.927155884711579e+00   3.977322000000000e+00  2.63417570e-01  -1.93422052e+00  -3.04734900e-02
C     5.642286396184659e+00   5.932661620409795e+00   3.949343400000000e+00 -1.27658472e+00   1.18824217e+00   6.13513490e-01
C     7.006207741625808e+00   6.332510150342662e+00   3.674692800000000e+00 -3.70466410e-01   7.06880290e-01   3.85109890e-01
C     8.083083470744842e+00   5.423958448404652e+00   3.565090800000000e+00 -2.72210264e+00   9.68481800e-01   4.34898890e-01
C     9.406214746532388e+00   5.820685322258152e+00   3.411592800000000e+00  6.18799400e-02   1.40076776e+00  -1.10819710e-01
C     1.033118493773212e+01   4.829882212108354e+00   3.466659600000000e+00  4.75014434e+00  -3.15401370e+00   5.87147340e-01
C     1.173262995119002e+01   5.150337292058174e+00   3.749044500000000e+00 -9.81294130e-01   1.33652566e+00   3.92723600e-01
C     3.853669608173328e+00   4.183628745586290e+00   3.984071700000000e+00  1.78180252e+00  -6.49307770e-01  -8.55214760e-01
C     5.273841727100717e+00   4.596650006853699e+00   4.198994100000000e+00  1.38156020e-01  -1.17484487e+00  -3.24517275e+00
C     6.389155578053043e+00   3.641190182617658e+00   3.896414700000000e+00 -4.74059818e+00   2.75610400e-01   2.64002563e+00
C     7.658609953678523e+00   4.131927880216779e+00   3.809217900000000e+00  4.41568379e+00  -4.22606828e+00  -7.55118860e-01
C     8.714145642664530e+00   3.071859518878611e+00   3.796262700000000e+00 -3.40615730e-01  -1.56916485e+00  -1.07825583e+00
C     1.009825393997386e+01   3.381605279551489e+00   3.504640200000000e+00 -2.64993489e+00   1.45018409e+00   1.60374170e+00
C     2.192233887933468e+00   2.381502394415045e+00   3.650746500000000e+00  9.84213780e-01  -1.07110114e+00  -7.57213260e-01
C     3.618184601155340e+00   2.768172035445346e+00   3.683747700000000e+00 -2.96501378e+00   2.14888333e+00   1.42663756e+00
C     4.619963978546947e+00   1.837869109310557e+00   3.745990800000000e+00  1.76688862e+00  -8.32309800e-01   4.57843000e-01
C     6.020465875491510e+00   2.254773486913101e+00   3.981113700000000e+00 -9.03638830e-01  -8.33453600e-02  -1.82589803e+00
C     7.024600266892135e+00   1.278693891604692e+00   3.896970900000000e+00 -1.85680712e+00  -1.48243091e+00   1.36585600e-01
C     8.339498881064008e+00   1.631753909998394e+00   3.879044700000000e+00  2.39118388e+00   1.54409351e+00   2.50048130e-01
C     1.808200532318126e+00   9.573192558400884e-01   3.724080900000000e+00  1.16850740e+00   1.36039535e+00   1.66451870e-01
