32
Lattice="9.772 0 0 4.886 8.46280024578153 0 0 0 30 " PBC="1 1 1" Properties=species:S:1:pos:R:3:force:R:3 Energy="-257.89577288"
C    -2.074606015163577e-04  -9.584077604009017e-04   2.998500330014868e+00  7.48839100e-02   5.63264100e-02   2.74887800e-02
C     1.221318685014760e+00   7.084387771842924e-01   2.998326105155809e+00 -1.64080000e-04  -1.97955790e-01   1.54470600e-02
C     2.440146970785739e+00  -1.329373993918730e-03   2.999562439450055e+00  1.46589620e-01   1.47476480e-01  -2.54765500e-02
C     3.664081606326359e+00   7.055209933531393e-01   2.998349556200701e+00 -1.52793320e-01  -2.63223200e-02   5.42489000e-03
C     4.883051380903471e+00   4.557180021176143e-03   2.996678917521812e+00  1.61328850e-01  -3.19048430e-01   7.07869100e-02
C     6.107810310130843e+00   7.038926802394272e-01   3.001595715632368e+00 -1.50200030e-01   2.10959180e-01  -4.88268900e-02
C     7.326450911320447e+00   4.120568222988553e-03   2.998108541500481e+00  2.49776770e-01  -2.22594910e-01   2.67384600e-02
C     8.553665249860373e+00   7.049678229968149e-01   3.000209356435811e+00 -2.10724140e-01   7.72986100e-02  -1.51723700e-02
C     1.225421778976502e+00   2.116368783416011e+00   3.000782020388614e+00 -1.99797520e-01   8.36546800e-02   2.69570000e-02
C     2.444825033193867e+00   2.823831264943662e+00   3.003440941374528e+00  4.09007100e-02  -1.92976470e-01  -3.02880600e-02
C     3.665509394501665e+00   2.113066798071953e+00   3.000933522329226e+00 -3.26922300e-02   1.87587710e-01   1.49436800e-02
C     4.887712143082957e+00   2.818835675441104e+00   3.003025216830399e+00 -1.07838700e-01   3.41627500e-02  -2.80922700e-02
C     6.107665950850097e+00   2.116259030446965e+00   3.000412003060105e+00  7.54452200e-02  -1.02627910e-01   1.43200300e-02
C     7.329708741082020e+00   2.819341929163055e+00   2.998798544600772e+00 -4.72230900e-02   2.05489630e-01   1.75497700e-02
C     8.551141550965795e+00   2.117683831758936e+00   3.000985545202994e+00  1.79005900e-02  -1.89029880e-01   6.07859000e-03
C     9.770907367545908e+00   2.819408922852792e+00   3.004680809874829e+00  1.99678270e-01   6.85482400e-02  -3.56628500e-02
C     2.443459291551834e+00   4.231414049404318e+00   3.000225871304957e+00 -2.86196500e-02   4.10530000e-03  -1.92863900e-02
C     3.663223725902549e+00   4.934042971493929e+00   2.997007265783382e+00  5.41753800e-02   1.65343180e-01   3.00630200e-02
C     4.884212814277223e+00   4.229439260870985e+00   3.000746939781990e+00  6.86116200e-02  -2.00391000e-03   5.38523000e-03
C     6.105832681021920e+00   4.934633337017075e+00   3.000971270226409e+00  1.24123100e-02   2.01225710e-01  -4.05548600e-02
C     7.328250770498453e+00   4.233461692999092e+00   2.998832216918633e+00  1.30845950e-01  -1.24217240e-01   6.89396000e-03
C     8.554535074156430e+00   4.938396214759688e+00   2.998379296046529e+00 -2.05458210e-01  -1.56687030e-01   1.13416800e-02
C     9.774568557148040e+00   4.229833305001098e+00   3.002392175289483e+00 -1.33149190e-01  -5.29738000e-03  -2.53308200e-02
C     1.099309698872402e+01   4.933846787411158e+00   2.996797229659802e+00  6.29032800e-02   1.22610600e-01   4.09271100e-02
C     3.664538454047998e+00   6.346759919715743e+00   2.997641914078864e+00 -2.22582400e-02  -2.99520200e-02   8.82214000e-03
C     4.887703650975818e+00   7.050193176990018e+00   3.001904068645990e+00 -1.72077640e-01   1.55890210e-01  -6.64486500e-02
C     6.105235512189324e+00   6.350306839141763e+00   2.996178453002252e+00  2.15349900e-01  -2.85151950e-01   5.75611100e-02
C     7.329759984431194e+00   7.053976161613118e+00   2.997602002138024e+00 -1.37670350e-01  -1.27977510e-01  -1.26192400e-02
C     8.550256869382725e+00   6.346051448189661e+00   2.997235838123981e+00  2.05763000e-02   1.16293310e-01   3.50500100e-02
C     9.769826721379362e+00   7.052433852575795e+00   3.003093855022080e+00  7.01533400e-02   9.56088400e-02  -9.05729800e-02
C     1.099095071398376e+01   6.344818578042813e+00   2.997069117042249e+00  1.34665000e-01   1.50419330e-01   2.20307700e-02
C     1.221577419925341e+01   7.054582742772185e+00   2.997125230391515e+00 -1.35530630e-01  -1.01157420e-01  -5.47826000e-03
