2
Lattice="2.432 0 0 1.216 2.10617378200376 0 0 0 30 " PBC="1 1 1" Properties=species:S:1:pos:R:3:force:R:3 Energy="-16.10461916"
C     0.000000000000000e+00   0.000000000000000e+00   3.000000000000000e+00 -0.00000000e+00   0.00000000e+00   0.00000000e+00
C     1.216000000000000e+00   7.020579273345848e-01   3.000000000000000e+00  0.00000000e+00   0.00000000e+00  -0.00000000e+00
