32
Lattice="9.848 0 0 4.924 8.52861817646915 0 0 0 30 " PBC="1 1 1" Properties=species:S:1:pos:R:3:force:R:3 Energy="-257.98384828"
C    -4.101692165948641e-03  -3.749443001103147e-03   3.002360957461935e+00  1.77118710e-01   1.76485960e-01  -1.46338790e-01
C     1.229559341272820e+00   7.127186833718187e-01   2.995787707047044e+00 -3.31069100e-02  -1.23316300e-01  -1.10333000e-03
C     2.460726383715151e+00   1.492411332831563e-05   2.992682150356963e+00 -4.34311610e-01  -2.14178890e-01   1.80044500e-02
C     3.678708566157782e+00   7.040610283812375e-01   2.994774871117660e+00  6.68753640e-01   4.11610830e-01   6.97721400e-02
C     4.913066399196666e+00   4.225085551402777e-03   3.010759605983843e+00  5.59639290e-01  -4.01617410e-01  -1.17708760e-01
C     6.157881019068877e+00   7.097144369368253e-01   3.007555798153476e+00 -4.56718360e-01   4.64008370e-01  -8.10421700e-02
C     7.394194789142784e+00   8.355207765671101e-03   3.007088316494446e+00 -7.87260890e-01  -4.07990570e-01  -4.66303400e-02
C     8.609888242124802e+00   7.007748834295477e-01   2.995299423481351e+00  6.66806310e-01   1.07281240e+00   1.59034400e-01
C     1.240568322539517e+00   2.131439670437119e+00   2.992892686672196e+00 -6.71823600e-01  -3.02847200e-02  -1.02223170e-01
C     2.465674770389270e+00   2.842627845301871e+00   2.983342598816575e+00 -2.85479200e-02   8.47143900e-02   1.44252840e-01
C     3.693493185310543e+00   2.125663555453069e+00   2.994915139825020e+00  2.59257100e-02   3.41136770e-01   2.24645500e-02
C     4.922936515068116e+00   2.849652586125202e+00   3.007945195897353e+00  1.52488400e-02  -3.84700760e-01  -1.96113320e-01
C     6.156345730620424e+00   2.140419996739085e+00   2.988807469389638e+00 -9.81974000e-02  -4.00072260e-01   2.23655630e-01
C     7.389271853945178e+00   2.848563901121695e+00   2.997405647896298e+00 -3.47394140e-01  -2.12291330e-01   5.24159700e-02
C     8.612031845974609e+00   2.144751763748904e+00   3.004718800047745e+00  2.34060520e-01  -9.83093860e-01  -1.59583060e-01
C     9.842327856324921e+00   2.838845122310582e+00   2.988819332697847e+00  6.66759960e-01   4.74623870e-01   1.80545620e-01
C     2.457202816982457e+00   4.264142816224103e+00   2.996298854749223e+00  4.53731130e-01   1.22727240e-01  -9.39891000e-03
C     3.700303785073985e+00   4.973999130945596e+00   3.013565686425129e+00 -8.32995760e-01   2.62547510e-01  -1.58466830e-01
C     4.920832031399875e+00   4.270008973735020e+00   3.001343721803027e+00  2.20927320e-01  -7.22157500e-02   5.15659500e-02
C     6.148233376082083e+00   4.986197481230601e+00   2.991121886589192e+00  4.34125480e-01  -7.15570240e-01   1.34968600e-01
C     7.384655894965943e+00   4.257508648168845e+00   3.007306681227846e+00 -4.76817160e-01   6.38538370e-01  -1.48191020e-01
C     8.602627331670456e+00   4.969260581663175e+00   3.002746210850482e+00  9.80625770e-01   4.17428600e-02  -4.57889600e-02
C     9.858509866155318e+00   4.270374175829398e+00   2.999293404891935e+00 -1.08609925e+00  -4.81817480e-01  -1.02616770e-01
C     1.107441581484580e+01   4.981190654181812e+00   2.989193399971569e+00  4.72012140e-01  -5.44818770e-01   2.15486600e-02
C     3.694248717774323e+00   6.401772418906605e+00   3.007382634517828e+00 -3.39286400e-02  -8.16740200e-02  -3.89593900e-02
C     4.929906374928552e+00   7.104697567516805e+00   2.990420413871513e+00 -2.91844540e-01   1.53329360e-01   1.68987910e-01
C     6.158458740864321e+00   6.396128972296894e+00   2.993255228825586e+00 -2.88585500e-02   2.28293630e-01  -3.71490400e-02
C     7.386284808423911e+00   7.109265170303909e+00   2.995613841974580e+00  1.99396310e-01  -2.08128740e-01  -6.07453200e-02
C     8.618597593207349e+00   6.388687771509535e+00   2.989556250883402e+00 -3.49673400e-01   3.14273860e-01   1.28648830e-01
C     9.847408047891770e+00   7.102575675476333e+00   2.997678578936559e+00 -2.44908200e-02   7.82858900e-02  -4.88376700e-02
C     1.107722981771677e+01   6.384173039937058e+00   2.984979549388647e+00  2.33122790e-01   1.27556580e+00   2.05204120e-01
C     1.230999904715323e+01   7.121314319654799e+00   3.006318801265778e+00 -2.61849700e-02  -8.78926010e-01  -8.01728000e-02
