32
Lattice="9.98 0 0 4.99 8.6429335297687 0 0 0 30 " PBC="1 1 1" Properties=species:S:1:pos:R:3:force:R:3 Energy="-257.7718931"
C    -4.334515318765814e-03   2.727456979988668e-03   3.001341764890320e+00  2.96774440e-01  -1.94047030e-01  -1.33070700e-02
C     1.252121855150253e+00   7.225110951400447e-01   3.000256142619229e+00 -3.19976840e-01  -1.26396680e-01   8.42435000e-03
C     2.496137152877185e+00  -1.257052501636503e-03   2.998695723090031e+00 -1.85544000e-03   9.14891600e-02   5.45691000e-02
C     3.741967553069819e+00   7.206466824945695e-01   3.001945653507256e+00  5.89459400e-02   5.16146200e-02  -5.57515900e-02
C     4.989931652497966e+00   2.757982824706541e-03   2.996900224454380e+00  3.62320700e-02  -9.91272800e-02   3.87807400e-02
C     6.239374576420381e+00   7.205079426965565e-01   2.996967949831473e+00 -9.76534500e-02   4.27729600e-02   3.27579100e-02
C     7.483795916729590e+00   4.771603805522078e-04   3.000719155043716e+00 -1.06183200e-02  -6.05244100e-02  -3.53646500e-02
C     8.728619550290226e+00   7.189691136771998e-01   2.998443037142354e+00  1.26938950e-01   1.43060160e-01   5.13189800e-02
C     1.249039803777276e+00   2.160140446224224e+00   3.002430038901271e+00 -6.03697400e-02   1.13086530e-01  -2.82690300e-02
C     2.495951768980965e+00   2.882016249044025e+00   3.002609432778773e+00  9.62032000e-03  -1.29890800e-02  -4.32594900e-02
C     3.743985047776983e+00   2.163315087314839e+00   2.999018502371811e+00 -1.10192450e-01  -1.72523030e-01   2.81112400e-02
C     4.988846487100743e+00   2.879396414836165e+00   2.997313781347931e+00  1.30223790e-01   1.07382300e-01   3.69764200e-02
C     6.239707279783605e+00   2.160405643303132e+00   3.000670799574844e+00 -1.36486070e-01  -2.07825500e-02  -4.98520900e-02
C     7.483725182468967e+00   2.880233441714630e+00   2.999343600317498e+00  4.01470700e-02   4.02933100e-02   7.24561000e-03
C     8.730662807006624e+00   2.161781705645127e+00   3.000636684558723e+00  2.07489400e-02  -3.67583200e-02  -3.30139800e-02
C     9.977621678175018e+00   2.882849219245021e+00   2.998497675045198e+00  1.59814890e-01  -1.67078600e-01   1.84160700e-02
C     2.498550710552062e+00   4.320879947777509e+00   2.997853943894805e+00 -2.63520760e-01   7.03101100e-02   5.24015800e-02
C     3.739789203271899e+00   5.041535040130616e+00   3.002736689900616e+00  1.51052400e-01   7.84278700e-02  -3.63541200e-02
C     4.988374200864435e+00   4.320792892221946e+00   3.000511960963443e+00  1.99338600e-02   1.23089200e-02  -8.30290000e-04
C     6.238879979505961e+00   5.039312417589853e+00   3.000316996039359e+00 -1.68320100e-01   1.96862100e-02  -4.09204700e-02
C     7.480965907148034e+00   4.320112271521475e+00   2.997569396967275e+00  2.34862050e-01   5.09666000e-02   3.14639200e-02
C     8.729954362835713e+00   5.044745130196938e+00   2.999244353550568e+00  1.32386280e-01  -2.87027550e-01  -2.40070400e-02
C     9.984065419633088e+00   4.320022277798151e+00   2.996028535501011e+00 -3.32669940e-01   1.98250920e-01   3.50304800e-02
C     1.122579901162018e+01   5.044064591488969e+00   2.998262498910359e+00  2.38662700e-01  -2.01133770e-01  -3.48342500e-02
C     3.739276035828382e+00   6.486013071616486e+00   3.002764785562325e+00  1.76666990e-01  -2.30444400e-01  -3.56879000e-03
C     4.990310106671974e+00   7.198228087074567e+00   3.002740357755213e+00 -3.36297900e-02   2.73345730e-01  -4.40755300e-02
C     6.239320771949429e+00   6.478444499834086e+00   2.995440450280644e+00 -5.00356200e-02   1.43862370e-01   1.02201250e-01
C     7.485007577167933e+00   7.204042718685726e+00   3.002452803791793e+00  2.08676900e-02  -1.77095700e-01  -6.86118800e-02
C     8.732982088092973e+00   6.480091641221412e+00   3.000880722875328e+00  2.70263800e-02   2.32836780e-01   2.95520000e-03
C     9.982570077417106e+00   7.204462972017266e+00   2.999586113962266e+00 -5.37647200e-02  -1.05473770e-01  -3.22236200e-02
C     1.123064948788662e+01   6.480105026869955e+00   2.995721956478454e+00 -1.57624320e-01   1.99622390e-01   5.03575200e-02
C     1.247623107994904e+01   7.203283994217728e+00   3.000236745929918e+00 -8.41872100e-02   2.20852200e-02  -6.76647000e-03
