32
Lattice="10.076 0 0 5.038 8.726071968532 0 0 0 30 " PBC="1 1 1" Properties=species:S:1:pos:R:3:force:R:3 Energy="-256.98006384"
C     6.732322690730511e-03   6.920768016871844e-03   3.001335792860702e+00 -2.91799700e-01  -1.65209080e-01  -2.25508900e-02
C     1.264950572845692e+00   7.318395527982050e-01   2.998170090406431e+00 -1.78728450e-01  -2.25295970e-01   6.60124200e-02
C     2.518972605166474e+00  -4.299918759554331e-03   2.997406012920540e+00  1.76749760e-01   3.71933350e-01  -1.54950500e-02
C     3.791397094700975e+00   7.150091912637577e-01   2.994485601961596e+00 -8.34161790e-01   7.67800050e-01   2.05268000e-02
C     5.033719319325319e+00   6.842013414182202e-03   2.991126709303647e+00  4.97929900e-01  -3.07695580e-01   8.06864000e-02
C     6.289948265625984e+00   7.334328846880793e-01   3.010486364306140e+00  5.42251380e-01  -1.29622260e-01  -2.40330940e-01
C     7.573115583148735e+00  -6.213209819472833e-03   2.993657761977352e+00 -1.17807733e+00   1.30119670e-01   1.00791540e-01
C     8.809121243525674e+00   7.207575938380859e-01   2.999739848236483e+00  7.91815840e-01   2.80940350e-01  -8.49490600e-02
C     1.255795306035579e+00   2.178582750579126e+00   3.006469720624716e+00  3.79288060e-01   1.72780710e-01  -1.83234640e-01
C     2.516916291534001e+00   2.899631018563765e+00   2.986297996957146e+00 -4.31664900e-02   2.89741080e-01   3.25186740e-01
C     3.775905489168178e+00   2.184465438163529e+00   3.001112221647742e+00  2.97628060e-01  -4.71832070e-01  -1.24301600e-01
C     5.041492232722203e+00   2.908051250898799e+00   3.000093644722946e+00 -5.72645220e-01   3.83942690e-01   4.11612900e-02
C     6.283711066983570e+00   2.191285849695162e+00   3.001867532559216e+00  1.02985068e+00  -3.25640940e-01   3.37644900e-02
C     7.572320057361152e+00   2.917741429135873e+00   2.996337141385035e+00 -6.18363840e-01  -6.28757470e-01   2.56226800e-02
C     8.825116254281594e+00   2.174678933231497e+00   2.989448122616943e+00 -2.29235460e-01   5.07703890e-01   1.58320850e-01
C     1.008698170247415e+01   2.916220338874300e+00   3.000997262708963e+00 -3.48169210e-01  -4.67166010e-01  -9.46709500e-02
C     2.513435706386512e+00   4.358787596248317e+00   3.010453033856571e+00  2.25301800e-01  -9.24171800e-02  -3.47322460e-01
C     3.774197348251449e+00   5.078142866240555e+00   2.991455433701137e+00  1.03475580e-01   7.24329140e-01   2.60074570e-01
C     5.033451379101348e+00   4.371652066068546e+00   3.003182584164112e+00  1.51652910e-01  -5.27433240e-01  -1.22021300e-01
C     6.292669157845600e+00   5.085256247285311e+00   2.998438584761849e+00  1.53581680e-01   6.48787100e-01   1.91297690e-01
C     7.557093607663116e+00   4.361163732379102e+00   3.006721209442832e+00 -1.38107080e-01   1.17273590e-01  -1.23182980e-01
C     8.804585306478147e+00   5.085742005014190e+00   3.000116237276239e+00  9.63497050e-01   4.15964670e-01   1.09619100e-02
C     1.008751766943904e+01   4.364788575498217e+00   2.989084181260678e+00 -6.40980180e-01   2.07768800e-02   1.05267730e-01
C     1.133916690510146e+01   5.088816541637672e+00   2.990161445160039e+00 -2.38316120e-01   4.30001360e-01   1.89530220e-01
C     3.785967166628442e+00   6.548443998608851e+00   3.005420091169714e+00 -5.00649630e-01  -5.28463740e-01  -2.02542070e-01
C     5.035177675606747e+00   7.279836588778242e+00   3.001015628791772e+00  3.60940220e-01  -4.35815700e-02   1.13895920e-01
C     6.302750916102598e+00   6.557648575758127e+00   3.015205542634316e+00 -4.22462470e-01  -6.74522910e-01  -2.17121170e-01
C     7.548597445869918e+00   7.280909057002408e+00   3.001629954355814e+00  7.50398380e-01  -4.09537550e-01   9.26700300e-02
C     8.831443284530842e+00   6.546402527748579e+00   3.006040047123515e+00 -9.99691740e-01  -1.21216740e-01  -1.72342920e-01
C     1.007620410933526e+01   7.274898028131677e+00   2.985203446485549e+00 -6.59733700e-02   9.80370700e-02   1.99391400e-01
C     1.132322566621894e+01   6.557382015528569e+00   3.002658753658998e+00  6.59007540e-01  -7.30081510e-01  -2.45786150e-01
C     1.259307437152961e+01   7.261674605071361e+00   2.989108190493438e+00  2.17159240e-01   4.88342230e-01   1.80689510e-01
