32
Lattice="10.024 0 0 5.012 8.68103864753521 0 0 0 30 " PBC="1 1 1" Properties=species:S:1:pos:R:3:force:R:3 Energy="-257.50864164"
C    -8.239430640802133e-04   5.655167959755899e-04   3.000401182148552e+00  1.68368910e-01  -3.57834700e-02  -1.34772600e-02
C     1.253494579670205e+00   7.253469285604937e-01   2.999652335518552e+00 -1.19008550e-01  -1.60117300e-02   4.80471200e-02
C     2.504857609604187e+00  -9.698571433831211e-04   3.004079897786598e+00  4.61484000e-02   8.48035100e-02  -7.73737200e-02
C     3.756633358602485e+00   7.209042703421935e-01   2.996842824103608e+00  1.90949670e-01   1.68770310e-01   8.31288500e-02
C     5.014541235748433e+00  -4.011991841575043e-04   3.002922462271162e+00 -1.53218080e-01  -3.78453000e-03  -8.08711800e-02
C     6.267440899738728e+00   7.238873162288628e-01   2.999421470449517e+00 -4.22856300e-02   4.19300600e-02   1.78813000e-03
C     7.521898761183392e+00   1.217196332685900e-03   2.998498152928865e+00 -9.62286100e-02  -2.58463900e-02   8.23389000e-03
C     8.773478906779474e+00   7.242476814262718e-01   2.998300923127942e+00 -2.38345500e-02  -5.82042100e-02   1.56545100e-02
C     1.249961553132154e+00   2.173096722830085e+00   3.002647819771480e+00  9.53900200e-02  -9.34706100e-02  -3.99911400e-02
C     2.505209931271617e+00   2.893794222273131e+00   2.999027057441184e+00 -1.67266100e-02   8.52915000e-03   4.43736700e-02
C     3.758078708640135e+00   2.172184406648112e+00   2.998933234475198e+00  2.06897100e-02  -1.87616230e-01  -1.87715600e-02
C     5.012828416931660e+00   2.893779029308752e+00   2.998529322874769e+00 -1.39134330e-01   8.47000000e-02  -2.78194400e-02
C     6.263623841672081e+00   2.174750955089068e+00   2.996511843283667e+00  1.53808340e-01  -2.09327010e-01   1.29711900e-02
C     7.519420177039601e+00   2.893127903806773e+00   2.995807741559669e+00  2.10201300e-02   1.30256250e-01   2.53104500e-02
C     8.774454070728503e+00   2.168310867484786e+00   3.000092422918916e+00 -2.27657440e-01   1.24426730e-01  -2.21562500e-02
C     1.002043677222952e+01   2.895697004220581e+00   3.002025578848337e+00  1.81423230e-01  -1.24141850e-01  -1.02481000e-02
C     2.507972826010549e+00   4.338730423985640e+00   3.003534886334481e+00 -1.24530050e-01   1.24487280e-01  -4.33397900e-02
C     3.759652570619004e+00   5.061740089254694e+00   3.001959289327634e+00 -4.89086900e-02   1.59807620e-01  -9.26644000e-03
C     5.010280239268038e+00   4.341676509304965e+00   2.996583434117373e+00  1.55811270e-01  -1.09077010e-01   4.90139900e-02
C     6.266987591633542e+00   5.061137683652856e+00   2.999802151616130e+00 -1.10010520e-01   1.57589280e-01  -1.67546200e-02
C     7.520942933428417e+00   4.345168857090401e+00   2.997834656237265e+00 -2.22382200e-02  -2.94738540e-01   3.18042700e-02
C     8.774166610994348e+00   5.063970789571425e+00   3.003692428833540e+00 -5.14113600e-02   1.63650700e-02  -8.74507100e-02
C     1.002391329553095e+01   4.337787941601937e+00   2.999981810045635e+00  5.06280400e-02   2.10031550e-01   3.44880000e-02
C     1.127706669679442e+01   5.065706661164093e+00   3.000511147113583e+00  2.47620200e-02  -7.62447800e-02   2.77278000e-02
C     3.757293189364585e+00   6.512352891757099e+00   3.002645282063632e+00  1.50345740e-01  -1.58853610e-01  -1.89788200e-02
C     5.014102600346575e+00   7.233115769532096e+00   3.000895740615254e+00 -1.60052980e-01   5.21181300e-02   2.22030600e-02
C     6.262502830193228e+00   6.508401519228467e+00   3.003084934870032e+00  2.84394670e-01   1.08668000e-01  -2.54228400e-02
C     7.521268980018372e+00   7.237625079035253e+00   3.001419890143478e+00 -1.83673200e-01  -3.08976450e-01   4.15508000e-03
C     8.775318446358845e+00   6.509338319927027e+00   2.996959849293199e+00 -2.46603270e-01   6.63017000e-02   5.59316000e-02
C     1.002094250258459e+01   7.230989896132005e+00   2.997262288576674e+00  2.20830200e-01   2.43489360e-01   5.16957600e-02
C     1.127389368420500e+01   6.514287772883360e+00   3.002121084318512e+00  1.86176540e-01  -1.95100410e-01  -4.16719100e-02
C     1.253283271607783e+01   7.233757152591163e+00   3.000514927956695e+00 -1.85224810e-01   1.14902830e-01   1.70664400e-02
