2
Lattice="2.469 0 0 1.2345 2.13821672194378 0 0 0 30 " PBC="1 1 1" Properties=species:S:1:pos:R:3:force:R:3 Energy="-16.13022848"
C     0.000000000000000e+00   0.000000000000000e+00   3.000000000000000e+00  0.00000000e+00   0.00000000e+00   0.00000000e+00
C     1.234500000000000e+00   7.127389073145929e-01   3.000000000000000e+00 -0.00000000e+00   0.00000000e+00  -0.00000000e+00
