2
Lattice="2.498 0 0 1.249 2.16333145865353 0 0 0 30 " PBC="1 1 1" Properties=species:S:1:pos:R:3:force:R:3 Energy="-16.10739331"
C     0.000000000000000e+00   0.000000000000000e+00   3.000000000000000e+00  0.00000000e+00   0.00000000e+00   0.00000000e+00
C     1.249000000000000e+00   7.211104862178426e-01   3.000000000000000e+00 -0.00000000e+00   0.00000000e+00   0.00000000e+00
