32
Lattice="9.624 0 0 4.812 8.33462848602144 0 0 0 30 " PBC="1 1 1" Properties=species:S:1:pos:R:3:force:R:3 Energy="-256.61146414"
C     8.367635399458128e-03   7.610522656832909e-03   3.005021042617556e+00 -4.70645930e-01  -8.29747930e-01  -1.53400950e-01
C     1.213763212141143e+00   6.807568662552096e-01   2.992823223833191e+00 -6.80479860e-01   1.53068886e+00   2.15827100e-01
C     2.410840559410860e+00   9.401524912707670e-03   3.013531666691423e+00  2.18935100e-01  -5.51458680e-01  -1.77828740e-01
C     3.611346882085773e+00   7.008626423430171e-01   3.006951399058366e+00 -8.32318400e-02   2.20913070e-01  -6.67547500e-02
C     4.810020391665729e+00   4.162362336867049e-03   2.999007558557525e+00  3.02484840e-01   2.65835790e-01   2.16570480e-01
C     6.013983113661807e+00   7.077298083683745e-01   3.011636567678219e+00 -1.17516680e-01  -4.11226170e-01  -2.29956400e-01
C     7.211472867467909e+00   1.226366093070635e-02   2.994711443100878e+00  2.39216320e-01  -9.34255540e-01   1.47313400e-01
C     8.416189516686474e+00   6.868502626581555e-01   2.997886947723002e+00  4.81730010e-01   9.73739000e-01  -6.18346300e-02
C     1.188927973921377e+00   2.091964899322930e+00   3.003467330839457e+00  7.22013450e-01  -1.26946155e+00  -8.52680500e-02
C     2.391390473971073e+00   2.772223070972680e+00   2.997149543084936e+00  3.38796320e-01   8.68497190e-01   2.49574800e-02
C     3.599536675610507e+00   2.093382431484739e+00   2.994653329061638e+00  6.39596460e-01  -3.46404400e-01   1.46490270e-01
C     4.821074929495689e+00   2.781263423267557e+00   3.012060370264520e+00 -9.47086160e-01   1.01021700e-02  -1.79366780e-01
C     6.024183548110726e+00   2.090741566194768e+00   3.000045687422251e+00 -3.74902470e-01   9.64481600e-02   1.17121730e-01
C     7.217789559923792e+00   2.788786782825482e+00   2.994632060266016e+00  4.10902300e-01  -1.37962740e-01   8.76034000e-03
C     8.422861293105353e+00   2.088521445588850e+00   2.987795034390522e+00 -4.03095500e-01  -4.48519510e-01   1.21262340e-01
C     9.623499728324012e+00   2.774420314960507e+00   3.004165387029493e+00 -4.17857220e-01   6.95622330e-01  -6.13479300e-02
C     2.397756752886450e+00   4.173043886706237e+00   2.998737011506453e+00  4.51982920e-01  -4.81618720e-01   5.08249000e-03
C     3.603364918203813e+00   4.868531408635243e+00   2.998613004446939e+00 -4.25121500e-02  -5.60589230e-01   2.66677000e-02
C     4.798157292458122e+00   4.167692293785040e+00   3.004978272300716e+00  8.90053920e-01  -2.62226200e-02   6.13196100e-02
C     6.022079958297145e+00   4.848273445910823e+00   3.013711378754612e+00 -1.16524323e+00   1.12967887e+00  -8.48013800e-02
C     7.211875349003189e+00   4.179093942387372e+00   3.006379800450168e+00  9.60746650e-01  -7.57296760e-01  -2.14728100e-02
C     8.431208955751654e+00   4.860703584796867e+00   3.003122909881499e+00 -8.96434020e-01   3.44272500e-01  -2.25560600e-02
C     9.620100895629275e+00   4.171813860523470e+00   3.004607938904155e+00  6.71066340e-01  -3.97743530e-01   1.14656400e-02
C     1.083235436535925e+01   4.865870899141918e+00   3.003794460546562e+00 -7.63511610e-01  -2.01146500e-01  -6.62429900e-02
C     3.617668960032813e+00   6.247941622413495e+00   3.002544710646624e+00 -3.70733720e-01   4.72526330e-01  -4.81970500e-02
C     4.813539700510918e+00   6.944291317202025e+00   2.996622704721672e+00  2.58747300e-01   2.57793440e-01   1.32782660e-01
C     6.013600796944017e+00   6.248892197330870e+00   3.005077137472549e+00  2.04676490e-01  -8.13757400e-02  -1.63108700e-02
C     7.214922494033345e+00   6.954396988677302e+00   3.002976606599252e+00  9.59741700e-02  -4.97245400e-01   4.86669800e-02
C     8.414130338988826e+00   6.248068329045536e+00   2.997882287518690e+00  6.46458870e-01   5.82188970e-01   1.35805970e-01
C     9.629150855099098e+00   6.953329691799325e+00   3.012208955801105e+00 -4.94197650e-01  -5.17255290e-01  -2.33756880e-01
C     1.082777532614865e+01   6.247530675095154e+00   2.994099501722608e+00  4.09779480e-01   6.74059320e-01   2.01158070e-01
C     1.204179371384386e+01   6.944261005978206e+00   3.003504389748173e+00 -7.15712910e-01   3.27164310e-01  -1.12155960e-01
