2
Lattice="2.508 0 0 1.254 2.17199171269137 0 0 0 30 " PBC="1 1 1" Properties=species:S:1:pos:R:3:force:R:3 Energy="-16.09142748"
C     0.000000000000000e+00   0.000000000000000e+00   3.000000000000000e+00  0.00000000e+00   0.00000000e+00  -0.00000000e+00
C     1.254000000000000e+00   7.239972375637906e-01   3.000000000000000e+00 -0.00000000e+00  -0.00000000e+00   0.00000000e+00
