32
Lattice="9.912 0 0 4.956 8.58404380231136 0 0 0 30 " PBC="1 1 1" Properties=species:S:1:pos:R:3:force:R:3 Energy="-258.02068084"
C     3.947554067980296e-03  -2.054418142065858e-03   2.997762806943645e+00 -2.92728370e-01   1.73694570e-01   2.05890800e-02
C     1.242739172791546e+00   7.147906137512694e-01   2.995579858676761e+00 -1.55488650e-01  -3.39798400e-02   1.31102900e-02
C     2.479075880133403e+00   9.499862446405550e-06   2.997662451261685e+00 -3.62819500e-02  -1.31347850e-01  -1.10992000e-02
C     3.714471156094955e+00   7.137407622634893e-01   2.997807926204679e+00  1.58262160e-01   3.40935600e-02   9.36230000e-04
C     4.956235349289273e+00   5.725220062851569e-04   2.996939587958896e+00 -1.37466260e-01  -1.02698130e-01   3.43181300e-02
C     6.192502405739649e+00   7.123166967244103e-01   2.999887547084639e+00  6.32387500e-02   1.48203280e-01   2.08068300e-02
C     7.431610987338012e+00  -4.102574267914728e-03   3.001961647804503e+00  8.78195100e-02   2.53296330e-01  -4.84848700e-02
C     8.668680358083225e+00   7.170328682164930e-01   2.998502825044776e+00  2.46104800e-01  -1.41462880e-01   2.58890000e-02
C     1.235857667296423e+00   2.144461712491107e+00   2.995585466044404e+00  2.72919160e-01   1.04474000e-01   3.88404100e-02
C     2.478200495924356e+00   2.864089182991527e+00   2.999379324897731e+00 -5.63631000e-02  -1.67534520e-01   6.65536000e-03
C     3.715676888685308e+00   2.143169242027050e+00   3.000645130617614e+00 -6.63218200e-02   1.21615190e-01  -2.76523100e-02
C     4.953083035617768e+00   2.860869174837878e+00   3.000092509923943e+00  5.42377200e-02  -7.58250300e-02   5.08484900e-02
C     6.193334711528744e+00   2.145864385829806e+00   3.003127174370201e+00  5.72153900e-02  -8.00833200e-02  -6.45100800e-02
C     7.436043339115582e+00   2.858571051880880e+00   2.996747602754947e+00 -2.33515670e-01   1.18950030e-01   6.33697000e-02
C     8.670380438029129e+00   2.148590762033292e+00   2.999966060137071e+00  1.99081030e-01  -2.00772660e-01  -2.76607600e-02
C     9.914488606545273e+00   2.860420286999000e+00   3.000192999492262e+00 -2.13448180e-01   5.97905100e-02  -5.24746600e-02
C     2.479465802146653e+00   4.294047416375922e+00   3.002594727019131e+00 -1.19063030e-01  -7.11490200e-02  -4.83888500e-02
C     3.714461401743260e+00   5.010784974628961e+00   2.998170909482720e+00  1.04257870e-01  -1.30321410e-01   5.81094900e-02
C     4.951545442265662e+00   4.289303307070884e+00   3.004080726280319e+00  1.41431370e-01   2.00187040e-01  -6.28687000e-02
C     6.196004354563159e+00   5.004505492086462e+00   3.000972631228116e+00 -1.17107140e-01   7.33440000e-04   2.13424400e-02
C     7.434064684048064e+00   4.289165152772266e+00   2.998855031858208e+00  1.67985100e-02   1.09911590e-01  -1.80929400e-02
C     8.670877187341366e+00   5.010157861712051e+00   2.997143335667893e+00  1.83429000e-01  -1.71105150e-01   8.48838000e-03
C     9.914021853932026e+00   4.292236509808200e+00   2.995719407700475e+00 -1.90749330e-01  -2.68327100e-02   5.16705300e-02
C     1.114963098131922e+01   5.005139275514075e+00   2.999932707631201e+00  1.16278460e-01   1.75465670e-01  -1.72925200e-02
C     3.714393004862955e+00   6.439603885862975e+00   2.997935709385700e+00  1.63146140e-01  -1.30452300e-02   2.15599500e-02
C     4.953380284018154e+00   7.153637053814625e+00   3.003296817970246e+00  2.58595810e-01  -8.21695200e-02  -5.44413200e-02
C     6.199463732281907e+00   6.436733744759535e+00   3.002091078228809e+00 -2.65315170e-01  -4.20018800e-02  -1.07874700e-02
C     7.435488253842284e+00   7.150700176079261e+00   2.998454948332023e+00  2.64008800e-02   1.68180870e-01   2.26738500e-02
C     8.676992251396362e+00   6.440364569345302e+00   2.999739723615268e+00 -2.39513790e-01  -1.67039230e-01  -1.54659500e-02
C     9.910590420059277e+00   7.152340522000785e+00   3.000090780135587e+00  2.49600000e-01   1.11156380e-01  -2.96375500e-02
C     1.115168579163341e+01   6.437608514389150e+00   2.998664427021581e+00 -4.19842200e-02  -1.89009700e-02   3.74553000e-03
C     1.239236373752851e+01   7.154203599039500e+00   2.997329607081228e+00 -2.33469870e-01  -1.23483140e-01   2.59034700e-02
