32
Lattice="10.096 0 0 5.048 8.74339247660769 0 0 0 30 " PBC="1 1 1" Properties=species:S:1:pos:R:3:force:R:3 Energy="-256.92310524"
C     8.779576314667843e-04  -5.474026483134936e-06   2.999253016439240e+00 -3.03400300e-02   5.21985000e-03   1.16179200e-02
C     1.262636733536816e+00   7.289462583938017e-01   2.998881679117484e+00 -3.19751500e-02  -2.45333300e-02   2.26075000e-02
C     2.522845948660112e+00  -2.019541194327928e-04   3.001229343231013e+00  5.73241500e-02  -1.66421400e-02  -2.75295100e-02
C     3.784965960196816e+00   7.276622163257144e-01   3.000100293153164e+00  4.93005300e-02   2.81347500e-02   1.04636200e-02
C     5.048739391924230e+00  -2.879459391754576e-04   2.999564721654959e+00 -6.49909400e-02  -1.80913100e-02   1.31055900e-02
C     6.308847399892640e+00   7.282085950855273e-01   3.000108947228824e+00  5.70867100e-02   3.48732900e-02  -1.02728000e-02
C     7.572133357645130e+00   5.478942411099285e-04   3.000162105300302e+00 -3.70260000e-03  -2.29424000e-03   1.26186100e-02
C     8.834249804457256e+00   7.293422186528808e-01   3.000919115497871e+00  1.31127200e-02  -4.46712600e-02  -2.10398100e-02
C     1.262769522033536e+00   2.185252976771459e+00   3.000198443089533e+00 -5.59073400e-02   4.65770000e-02  -1.44273000e-02
C     2.523080972084787e+00   2.914653825049050e+00   2.998845796688456e+00  7.40757800e-02  -3.93872500e-02   2.79167400e-02
C     3.786792219726399e+00   2.185308522949327e+00   3.001127979207657e+00 -5.27109800e-02  -8.48043000e-03  -2.61401400e-02
C     5.048822710516567e+00   2.913308794854925e+00   2.999733899913317e+00 -5.40425800e-02   7.58537700e-02   5.61772000e-03
C     6.309508252101860e+00   2.186523534806990e+00   2.998934983032251e+00  3.19109600e-02  -5.50986300e-02   1.81139800e-02
C     7.571999565223417e+00   2.914251975155108e+00   3.000546634627791e+00  5.88998000e-03   6.51041000e-03  -1.30740500e-02
C     8.834386863480054e+00   2.185434593367526e+00   2.999606347398477e+00 -1.97130300e-02   2.49068100e-02   1.75267400e-02
C     1.009536786363166e+01   2.914553681908400e+00   3.000329343166514e+00  3.69012700e-02  -3.41246400e-02  -1.43791800e-02
C     2.523265319526876e+00   4.370743182392880e+00   3.000048145471860e+00 -1.66279100e-02   5.38711100e-02  -1.97993700e-02
C     3.785010248464131e+00   5.101205153628031e+00   2.998975512078178e+00  2.32486800e-02  -6.81857600e-02   1.15744200e-02
C     5.047345672915219e+00   4.372350611037310e+00   3.000073219881534e+00 -6.19551000e-03  -5.15270400e-02  -7.13694000e-03
C     6.309030528484465e+00   5.099311300335963e+00   3.000274276362902e+00  5.38695600e-02   2.22162900e-02  -7.81864000e-03
C     7.572262954083222e+00   4.371189449801820e+00   3.000680767489893e+00 -1.22731600e-02   4.99378000e-03  -2.24370000e-04
C     8.835016133858836e+00   5.100346684289766e+00   3.000552498768683e+00 -8.08937800e-02  -1.94949600e-02  -1.63403300e-02
C     1.009474732984668e+01   4.371245874561405e+00   2.998742695175172e+00  6.13267400e-02   4.17048000e-03   1.85419700e-02
C     1.135700918931683e+01   5.099481273730532e+00   2.999095275513319e+00  2.99709400e-02   3.88058800e-02   1.24736500e-02
C     3.786498202448851e+00   6.556637176754822e+00   2.998982332070656e+00 -7.71039000e-03   7.59665100e-02   1.74552800e-02
C     5.049078233324496e+00   7.286049594826331e+00   3.000081057647075e+00 -6.33892000e-03  -1.76040500e-02  -1.97873900e-02
C     6.311259084141790e+00   6.556644404570973e+00   2.998750008917358e+00 -3.89623200e-02   2.05070200e-02   1.67380200e-02
C     7.572569036523176e+00   7.285848207581282e+00   2.999585068763847e+00 -6.90713000e-03  -1.92097700e-02   1.06750000e-03
C     8.834481296918522e+00   6.556578642227452e+00   2.999271845573564e+00  1.75568600e-02   4.38849400e-02   1.68378300e-02
C     1.009707299457144e+01   7.285393219133124e+00   3.000877233787026e+00 -3.49138500e-02   3.09395700e-02  -1.23702300e-02
C     1.135827111291498e+01   6.558565431284944e+00   3.001237848640026e+00  1.95986400e-02  -7.21127600e-02  -1.15554800e-02
C     1.262073449856040e+01   7.287053050293318e+00   3.001079447604405e+00 -6.96789000e-03  -2.59738800e-02  -1.23815600e-02
