2
Lattice="2.435 0 0 1.2175 2.10877185821511 0 0 0 30 " PBC="1 1 1" Properties=species:S:1:pos:R:3:force:R:3 Energy="-16.10913209"
C     0.000000000000000e+00   0.000000000000000e+00   3.000000000000000e+00 -0.00000000e+00  -0.00000000e+00   0.00000000e+00
C     1.217500000000000e+00   7.029239527383693e-01   3.000000000000000e+00  0.00000000e+00   0.00000000e+00   0.00000000e+00
