32
Lattice="9.596 0 0 4.798 8.31037977471547 0 0 0 30 " PBC="1 1 1" Properties=species:S:1:pos:R:3:force:R:3 Energy="-256.37923608"
C    -1.957922505911422e-03   1.407926936477625e-03   3.002101414467711e+00  2.52462340e-01  -2.42394790e-01  -1.69571000e-02
C     1.199349876158446e+00   6.912788417208842e-01   3.000957819811893e+00  3.29059800e-02   1.67840400e-01  -3.48141600e-02
C     2.402646949693072e+00   7.311395314050894e-04   2.997534123387892e+00 -3.77787560e-01   1.71889300e-02   1.60665600e-02
C     3.596700852327641e+00   6.913908082800085e-01   2.998496695179555e+00  1.75754780e-01   1.28205850e-01   1.39053500e-02
C     4.795946935467753e+00  -7.567148882807528e-04   3.002578649154665e+00  1.81672300e-02   1.11943590e-01  -5.11420600e-02
C     5.994630610228993e+00   6.909637698399614e-01   2.998088447180123e+00  1.16807600e-01   1.86287010e-01   5.09262600e-02
C     7.194995636867615e+00   7.132167443807734e-04   3.003189346556760e+00  1.58655560e-01  -8.88787800e-02  -3.48959100e-02
C     8.400134248355021e+00   6.912382978754027e-01   3.002060784829669e+00 -3.80911130e-01   2.06045700e-01  -1.50087800e-02
C     1.196697569577748e+00   2.079525193255228e+00   2.997732704748044e+00  1.76196000e-01  -1.66650490e-01   3.79074600e-02
C     2.398750930615275e+00   2.770270588087145e+00   3.002126341201512e+00 -3.84938900e-02  -6.71251000e-03  -3.74346600e-02
C     3.595840253887745e+00   2.075955089683851e+00   2.998718884167553e+00  2.20545090e-01   1.61127580e-01   7.71970000e-03
C     4.799254795306982e+00   2.774208962096542e+00   2.997482672748601e+00 -1.41590600e-01  -4.58375940e-01   1.12721500e-02
C     5.999916323326939e+00   2.080469949754246e+00   2.999461167083017e+00 -3.09285570e-01  -2.62972680e-01  -3.38284000e-03
C     7.193666405145169e+00   2.769802274074218e+00   3.002613383069110e+00  3.96302480e-01   3.66259000e-03  -5.48400300e-02
C     8.398409776241351e+00   2.078112037361148e+00   2.996221610323064e+00 -1.64285590e-01  -3.34244600e-02   6.03922100e-02
C     9.596042975408878e+00   2.772257190092897e+00   2.997447035831718e+00 -7.79861900e-02  -8.62828200e-02  -2.70999000e-03
C     2.401156220623131e+00   4.156121102480252e+00   3.001180023691379e+00 -8.43542400e-02  -1.02910000e-04  -6.93147000e-03
C     3.598369932135290e+00   4.849779963629530e+00   2.999616823130016e+00  1.91300130e-01  -1.31042070e-01  -3.27258000e-03
C     4.800508048233171e+00   4.151699972439356e+00   2.997594862865555e+00 -1.80532230e-01   4.28917450e-01   2.62421700e-02
C     5.999400193980081e+00   4.845731386236324e+00   3.001155583468659e+00 -1.46734800e-02   1.82970630e-01  -2.40924000e-02
C     7.197354428013749e+00   4.154901954766571e+00   3.000656522168072e+00 -5.92666700e-02  -7.84870700e-02   1.10741300e-02
C     8.395971266484818e+00   4.844092081492797e+00   2.999426837593070e+00  5.97547900e-02   2.52216680e-01   2.24887300e-02
C     9.594796264439662e+00   4.155242651548444e+00   3.000204107754188e+00  1.41413720e-01   2.32776400e-02  -2.03126700e-02
C     1.079586598258066e+01   4.846887676798256e+00   2.999202344947228e+00 -6.36665600e-02   1.37730440e-01  -4.06735000e-03
C     3.600978659571021e+00   6.234993139201648e+00   3.000598018002384e+00 -1.23847230e-01  -2.12016380e-01  -1.64021000e-02
C     4.796186026999211e+00   6.924158199342938e+00   2.998864769287590e+00  2.97592130e-01   1.56251070e-01   2.84851300e-02
C     6.000787533541805e+00   6.234230562220075e+00   2.999360989000492e+00 -3.17183250e-01  -1.28202530e-01  -7.04236000e-03
C     7.193984536996068e+00   6.928657339293389e+00   2.997624485247595e+00  4.60240060e-01  -2.64728320e-01   3.15115600e-02
C     8.399488312851142e+00   6.230724015883555e+00   3.001863405341321e+00 -3.63325050e-01   9.93819700e-02  -3.17371500e-02
C     9.594632056867745e+00   6.927443960715665e+00   3.001254266646023e+00  6.53923600e-02  -1.60535030e-01  -7.75458000e-03
C     1.079379278190299e+01   6.234748842406671e+00   2.996172131875354e+00  1.73308880e-01  -1.44285080e-01   4.51275600e-02
C     1.199773887819237e+01   6.923447791294599e+00   2.999758149497813e+00 -2.39609880e-01   2.02044330e-01   9.67923000e-03
