32
Lattice="9.96 0 0 4.98 8.62561302169301 0 0 0 30 " PBC="1 1 1" Properties=species:S:1:pos:R:3:force:R:3 Energy="-257.77022889"
C     1.011693364383248e-02  -7.833611691997941e-03   2.996824884758928e+00 -6.99740060e-01   7.01409790e-01   1.11884300e-02
C     1.238991877493465e+00   7.189578733723940e-01   3.004253485796374e+00  4.38247300e-01  -3.05110350e-01  -6.35334800e-02
C     2.494543259669864e+00  -5.147663571033963e-03   3.009591957038426e+00 -6.26863700e-01   2.22699020e-01  -1.82426450e-01
C     3.730921708086910e+00   7.078569474124754e-01   3.001159757157755e+00  3.39011890e-01   5.61122900e-01   2.84814400e-02
C     4.974576583720381e+00  -1.493061187339971e-03   2.988846828327875e+00  3.29576120e-01  -1.21569810e-01   2.03314960e-01
C     6.225636297344527e+00   7.152464927272918e-01   3.003771810285314e+00  8.76237600e-02   3.68581200e-02  -4.93277400e-02
C     7.482265029354194e+00   4.863659196457031e-03   3.002400561135351e+00 -8.12768330e-01  -4.42645650e-01   7.41907000e-03
C     8.710928629856475e+00   7.304744124219227e-01   3.000429617015206e+00  5.85269090e-01  -7.41727970e-01   2.18770700e-02
C     1.234017372063799e+00   2.152625236755159e+00   2.991042955161224e+00  4.43374560e-01  -3.25156600e-02   1.41984560e-01
C     2.476408498924524e+00   2.867799239717491e+00   2.992088081299535e+00  7.38694210e-01   3.47531990e-01   1.71938270e-01
C     3.745998162796327e+00   2.155948991530602e+00   3.009860963243555e+00 -8.85808080e-01  -1.84660540e-01  -1.48560840e-01
C     4.984404564772293e+00   2.872986339399467e+00   3.006463184014887e+00 -8.17704700e-02   3.94553700e-02   1.46786900e-02
C     6.225695182858619e+00   2.149247247879190e+00   3.009654964751936e+00  1.33918440e-01   2.76426390e-01  -1.31162350e-01
C     7.471377195759493e+00   2.880146869739740e+00   2.992561935577636e+00 -2.43285480e-01  -4.58902240e-01   1.82538480e-01
C     8.710898743858085e+00   2.154015384689787e+00   3.006517299127915e+00  2.82410730e-01   5.88249650e-01  -8.86301300e-02
C     9.967026967861443e+00   2.877385838995953e+00   3.006849918592584e+00 -6.12643710e-01  -3.01977960e-01  -1.03767190e-01
C     2.483527241909549e+00   4.319682548577912e+00   3.007690489648697e+00  3.73259400e-01  -7.10420120e-01  -2.28736260e-01
C     3.739999131571559e+00   5.021896794051022e+00   2.994177106645387e+00 -3.43266120e-01   5.77192660e-01   1.08108340e-01
C     4.972476448415017e+00   4.312931786869890e+00   2.998416620965200e+00  6.39595370e-01  -1.07421480e-01   4.42393300e-02
C     6.224654809462198e+00   5.041947274754721e+00   3.005461558202333e+00 -2.27950280e-01  -6.97676990e-01  -1.41599550e-01
C     7.463316043595022e+00   4.309181659977975e+00   2.996325740547661e+00  3.80317160e-01   4.79280810e-01   1.18992990e-01
C     8.717967751043442e+00   5.028113259709118e+00   3.012086880894532e+00  3.48943000e-03   3.08964200e-02  -1.17004580e-01
C     9.967757728362105e+00   4.303646643747995e+00   3.005555841720632e+00 -1.82918750e-01   5.52975240e-01  -3.64015000e-03
C     1.121272181347958e+01   5.034737136110224e+00   2.996268844671645e+00 -4.20937760e-01  -1.80156220e-01   2.12512160e-01
C     3.743073134551449e+00   6.469369455793498e+00   2.996294185367478e+00 -6.70943800e-01  -2.08447360e-01  -2.85599800e-02
C     4.976820203317368e+00   7.193643091718799e+00   2.987699585661555e+00  2.93932510e-01  -4.63671990e-01   1.11037790e-01
C     6.226526053256322e+00   6.465011741475153e+00   2.996123307593474e+00 -2.56851850e-01   4.52318500e-01  -4.97700400e-02
C     7.460571462069184e+00   7.189408230392064e+00   2.990283309798466e+00  7.45378380e-01  -2.48020860e-01   2.05784030e-01
C     8.725277118029856e+00   6.473141102051228e+00   3.007408657010175e+00 -6.63559520e-01  -3.18235310e-01  -7.12587500e-02
C     9.960646727540992e+00   7.188810318332735e+00   3.004606427638823e+00  1.62915950e-01  -3.54059900e-02  -7.66992000e-03
C     1.121012602552729e+01   6.466366634265357e+00   3.014078731096726e+00 -5.47973320e-01   8.15144300e-02  -1.57551790e-01
C     1.243526457787698e+01   7.177695112305022e+00   3.005155192402901e+00  1.30026694e+00   6.10635190e-01  -1.08964100e-02
