2
Lattice="2.415 0 0 1.2075 2.09145135013942 0 0 0 30 " PBC="1 1 1" Properties=species:S:1:pos:R:3:force:R:3 Energy="-16.07045036"
C     0.000000000000000e+00   0.000000000000000e+00   3.000000000000000e+00 -0.00000000e+00   0.00000000e+00  -0.00000000e+00
C     1.207500000000000e+00   6.971504500464731e-01   3.000000000000000e+00  0.00000000e+00  -0.00000000e+00   0.00000000e+00
