32
Lattice="10.072 0 0 5.036 8.72260786691687 0 0 0 30 " PBC="1 1 1" Properties=species:S:1:pos:R:3:force:R:3 Energy="-257.13500724"
C     4.531769215159407e-03  -1.426900492544787e-03   3.002065811567948e+00 -2.48067800e-01   3.97788000e-02  -2.48988500e-02
C     1.257629573101357e+00   7.267039847631952e-01   3.002892146801354e+00  1.52079900e-01   1.56133300e-02  -2.14619200e-02
C     2.515357552728439e+00  -7.334409661748527e-04   3.001438685138071e+00  1.87386870e-01  -2.17404400e-02  -7.73369000e-03
C     3.777963403313340e+00   7.266577584865460e-01   2.997002582355972e+00 -5.79825700e-02   8.67119000e-02   4.37683900e-02
C     5.039298761865948e+00   4.835651779182710e-03   2.997083667709573e+00 -1.54904330e-01  -2.47850860e-01   2.72422300e-02
C     6.293670280375292e+00   7.265043764400378e-01   2.999878206836143e+00  2.35705730e-01   1.39214410e-01  -2.20259000e-03
C     7.557316257520768e+00  -3.468995979192704e-03   3.001142903747541e+00 -1.95452300e-01   1.47103450e-01  -2.86120200e-02
C     8.812134104722315e+00   7.257132573798785e-01   2.998894782566913e+00  1.52971140e-01  -1.36554900e-02   4.32633200e-02
C     1.261911787200676e+00   2.181007939165644e+00   2.999199789485122e+00 -1.17348280e-01  -5.22213900e-02  -2.03675900e-02
C     2.517979025337937e+00   2.908044616701158e+00   2.996229130376937e+00  1.32080740e-01  -5.79561000e-02   4.57834800e-02
C     3.779935573491758e+00   2.182179624160201e+00   3.001525158623876e+00 -1.18834200e-01  -7.70568600e-02  -8.32068500e-02
C     5.036652744631357e+00   2.910460399824144e+00   2.997085239012961e+00  1.52193700e-02  -1.53359850e-01   6.28184200e-02
C     6.294806750707653e+00   2.183366125602836e+00   3.001082199076484e+00  7.76400500e-02  -9.78745500e-02  -8.41291000e-03
C     7.555852150305921e+00   2.909921853413215e+00   3.004263927492863e+00 -6.59265100e-02  -8.53025000e-02  -5.46627300e-02
C     8.814516956583274e+00   2.180799796093799e+00   3.001402242935667e+00 -4.11298300e-02  -5.93276000e-02  -2.12895600e-02
C     1.007363818257182e+01   2.905045723818767e+00   2.996525356877013e+00  5.54601000e-03   4.54692100e-02   6.32873000e-02
C     2.520457945968766e+00   4.358464441703020e+00   2.997224835925677e+00 -9.33030600e-02   1.90562690e-01   3.58047100e-02
C     3.781268375160644e+00   5.088285169627401e+00   3.002086781576768e+00 -2.45432170e-01   7.77468000e-03  -2.87704500e-02
C     5.035432010650374e+00   4.359295985647957e+00   3.001445122090470e+00  3.74208300e-02   2.09995650e-01  -1.31613600e-02
C     6.290812310250096e+00   5.091153746852688e+00   3.002625748482060e+00  2.53415510e-01  -2.61177450e-01  -1.89069500e-02
C     7.553863119879981e+00   4.361018610168469e+00   2.998882421218615e+00 -7.10369000e-03   1.01576650e-01   7.21895100e-02
C     8.816585983966483e+00   5.085847391865092e+00   3.003019500107344e+00 -2.03587440e-01   1.76082400e-02  -4.42509000e-02
C     1.007190639077016e+01   4.359050754923199e+00   3.002007979202963e+00  5.63043700e-02  -3.15889000e-03  -2.47491000e-02
C     1.132829513778606e+01   5.087110443091875e+00   3.001606686251156e+00  2.22599600e-01  -6.44692700e-02  -2.93870300e-02
C     3.774171187253646e+00   6.545260118194643e+00   3.001664642423133e+00  2.54328860e-01  -1.97148100e-01  -1.84202000e-02
C     5.037091377145810e+00   7.268420517201626e+00   2.999971948267907e+00  1.02929100e-02  -1.06843000e-03   4.74634500e-02
C     6.297196177624446e+00   6.538259400540186e+00   3.003897717087726e+00 -1.24756180e-01   1.91166480e-01  -2.60700500e-02
C     7.556375542566967e+00   7.266357902845793e+00   3.002499949879732e+00 -1.03173350e-01   3.30364600e-02  -1.35534900e-02
C     8.812311430544387e+00   6.538620181981437e+00   2.999457267748306e+00  2.36172100e-01   1.60368720e-01   4.71980400e-02
C     1.007496611290411e+01   7.270935015271963e+00   3.001176005603757e+00 -7.96511600e-02  -1.03470340e-01  -4.11621200e-02
C     1.133361407643729e+01   6.539906046289771e+00   2.999870324083640e+00 -1.72985340e-01   6.61954500e-02   2.02478200e-02
C     1.259048175617580e+01   7.267072198624402e+00   2.999209325931536e+00  4.74230000e-04   4.46620100e-02   2.22137000e-02
