32
Lattice="9.672 0 0 4.836 8.37619770540309 0 0 0 30 " PBC="1 1 1" Properties=species:S:1:pos:R:3:force:R:3 Energy="-257.23086732"
C    -2.361412535859427e-03  -2.307508750395451e-03   3.001873152269642e+00  2.09738810e-01   1.41106250e-01   7.29694000e-03
C     1.210465503698598e+00   7.005862669609910e-01   3.003246753735912e+00 -2.37558570e-01  -2.24747000e-01  -1.93902000e-02
C     2.416651256651629e+00  -1.266050533440329e-03   3.002849926150819e+00  6.78722000e-03   1.18681700e-02  -2.17213300e-02
C     3.625536277340884e+00   6.982625200625335e-01   2.996999100917251e+00  3.54248400e-02  -1.90316250e-01   5.52749400e-02
C     4.832782384085044e+00  -2.273264266623806e-03   3.001502330274087e+00  6.22821500e-02   1.26084000e-02  -6.53972100e-02
C     6.043114168281278e+00   6.947015475598822e-01   2.997635203343173e+00 -4.77594600e-02   1.66052200e-02   3.76329400e-02
C     7.251213959680223e+00  -3.724206076427737e-03   2.999304321419588e+00  1.86504190e-01   2.61547820e-01  -2.13589400e-02
C     8.463542751844461e+00   6.994652167849881e-01   2.999022682190440e+00 -1.72615230e-01  -1.81494320e-01   1.36889000e-03
C     1.208679499986419e+00   2.095988306396988e+00   3.000615770017386e+00 -5.59865000e-03  -1.08243680e-01   4.81155000e-03
C     2.417989478585636e+00   2.787346733779588e+00   3.002985094315109e+00  1.41265460e-01   1.43072010e-01  -4.68992500e-02
C     3.630052787273519e+00   2.089974800869820e+00   2.997996641608406e+00 -1.57478810e-01   2.34118880e-01   2.56161000e-02
C     4.838475329079533e+00   2.792482678504532e+00   3.000011898459905e+00 -1.62635030e-01  -2.38932060e-01   4.82688000e-03
C     6.041215880589724e+00   2.090525278226473e+00   3.000949734623655e+00  3.81105220e-01   1.56805960e-01  -8.08106000e-03
C     7.255099657362902e+00   2.794797297461436e+00   3.002271951467518e+00 -2.18215200e-01  -3.13613520e-01  -5.06667700e-02
C     8.463085330701142e+00   2.095306562973497e+00   2.996787218765578e+00  2.16207200e-02   4.32551000e-03   3.01499100e-02
C     9.672286602613434e+00   2.793375189277976e+00   2.996929054610737e+00 -5.82709800e-02   8.16693200e-02   4.82849400e-02
C     2.417898695990592e+00   4.184597429034138e+00   2.998825660419903e+00  4.97970000e-04   4.85393700e-02  -1.46083500e-02
C     3.625132748022817e+00   4.883823155657805e+00   2.996391022230696e+00  1.74446010e-01   3.83657100e-02   6.08771300e-02
C     4.836793851834495e+00   4.184013364280863e+00   3.001620808085508e+00 -9.80045200e-02   2.66315320e-01  -4.22757800e-02
C     6.043112241772831e+00   4.885529526481864e+00   2.998581702183325e+00  4.11389300e-02   9.79883000e-03   1.68683800e-02
C     7.253194473970836e+00   4.187098584012182e+00   2.998081805784893e+00 -6.24704800e-02   1.48145270e-01   2.11607700e-02
C     8.460091900633177e+00   4.887755007219878e+00   2.998470652959966e+00  8.86568800e-02  -7.56290700e-02   4.92354700e-02
C     9.669580374071616e+00   4.190796280600804e+00   3.004147654273187e+00  1.78290780e-01  -7.19820000e-03  -1.00146290e-01
C     1.088429698877998e+01   4.887665736360923e+00   2.996143006987508e+00 -2.23716130e-01  -4.09133600e-02   6.13300800e-02
C     3.630997235791472e+00   6.282387308022827e+00   3.002242487613341e+00 -3.29262190e-01  -2.10514310e-01  -5.67509100e-02
C     4.837361678269890e+00   6.975729887824690e+00   3.002947779564976e+00 -1.18274130e-01   3.37504700e-01  -7.78549000e-03
C     6.042564089280377e+00   6.283700227334725e+00   2.999907631164704e+00  1.51807740e-01  -3.11640250e-01   1.80181000e-02
C     7.251567130765433e+00   6.976660470590062e+00   3.001857773359202e+00  4.17942500e-02   2.50001960e-01   9.68346000e-03
C     8.460855710088744e+00   6.282188643850464e+00   3.003007789295425e+00 -1.69579000e-03  -5.11589900e-02  -5.41711700e-02
C     9.669458622714298e+00   6.978535224519289e+00   2.998354788123168e+00  9.10541800e-02   5.80894200e-02   3.93398500e-02
C     1.088324433008239e+01   6.285785693957145e+00   2.996613475882147e+00 -1.95031410e-01  -2.65677470e-01  -1.34047600e-02
C     1.208870490337953e+01   6.979688535919561e+00   2.997117980256010e+00  2.76171230e-01  -4.09650000e-04   3.08811900e-02
