32
Lattice="9.744 0 0 4.872 8.43855153447557 0 0 0 30 " PBC="1 1 1" Properties=species:S:1:pos:R:3:force:R:3 Energy="-257.76009782"
C     1.541557228832046e-03   2.448157499810277e-03   3.003613910327800e+00 -1.09652470e-01  -1.42734380e-01  -6.82486400e-02
C     1.221170079705110e+00   7.014427583291795e-01   3.002669765407530e+00 -6.34555300e-02   4.32748900e-02  -2.37242800e-02
C     2.439968184791514e+00  -6.839715675355743e-04   2.999569774301327e+00 -2.07904370e-01  -7.87235500e-02  -1.63814600e-02
C     3.653944981792814e+00   7.009956186253030e-01   2.996639954772150e+00  1.23044640e-01   2.28281500e-02   1.84239700e-02
C     4.870904054211718e+00  -3.377893479900416e-03   2.997485527541954e+00  6.00703800e-02   2.59340690e-01   1.17207600e-02
C     6.086810481478022e+00   7.053758295925843e-01   3.001801932175860e+00  1.72328090e-01  -1.28393000e-01  -7.52017500e-02
C     7.310488440719656e+00   4.468700342690769e-03   2.999202943300648e+00 -2.28726150e-01  -1.90960410e-01   8.76204000e-03
C     8.525207836787622e+00   7.065390314434153e-01   2.999406382475176e+00  1.82368410e-01  -2.50196500e-02   4.35617500e-02
C     1.218092138150944e+00   2.107161872954860e+00   2.998846407003602e+00  2.59789100e-02   1.14838270e-01   2.91866500e-02
C     2.437743472154495e+00   2.810713074150425e+00   3.002778911663276e+00 -3.22728400e-02  -2.44572100e-02  -4.35222200e-02
C     3.657972090907963e+00   2.106786839777585e+00   2.998214762999308e+00 -2.37295180e-01   1.83058600e-02   1.50539600e-02
C     4.872113834012968e+00   2.808494936171485e+00   2.996837374069245e+00  5.52112400e-02   2.53355290e-01  -2.01880000e-03
C     6.087982192202074e+00   2.110937835274926e+00   2.995602052480808e+00  1.47493130e-01  -1.29549690e-01   5.97771800e-02
C     7.308511468611644e+00   2.812310361178176e+00   3.001346688816648e+00 -9.56162500e-02   3.32028300e-02  -3.20440000e-04
C     8.526032434409656e+00   2.112673703521073e+00   3.002564126897282e+00 -1.38176900e-02  -8.65878100e-02  -4.22902700e-02
C     9.742914973368213e+00   2.813468374171258e+00   2.997125330360191e+00  1.55434280e-01   6.56273100e-02   6.91238600e-02
C     2.437236498554795e+00   4.217057176392959e+00   3.001322664710754e+00 -5.74422100e-02   4.85556500e-02  -2.48571700e-02
C     3.656924746222504e+00   4.917637828774000e+00   2.997576855262201e+00 -8.36960700e-02   1.47020740e-01   5.30437300e-02
C     4.876112982167380e+00   4.217200182412631e+00   2.998161030082962e+00 -1.77041590e-01  -5.95027700e-02  -2.68680900e-02
C     6.089598557514020e+00   4.922876697299097e+00   2.996480404340302e+00  1.44642230e-01  -8.90876200e-02   4.43099000e-02
C     7.309322939953153e+00   4.217245106416765e+00   3.004170700296221e+00 -1.89175230e-01   5.11795000e-02  -5.88205200e-02
C     8.523282613066417e+00   4.919510749208841e+00   3.001958778969918e+00  1.72615580e-01   1.47579290e-01   4.42423200e-02
C     9.743870007590264e+00   4.222447962685969e+00   3.003042101789843e+00  3.34839000e-03  -2.13927150e-01  -5.59741600e-02
C     1.096106937782537e+01   4.924418018646786e+00   2.998620493558144e+00  9.76271200e-02  -7.75781700e-02   3.77549900e-02
C     3.651865335907418e+00   6.327048492290657e+00   3.003479141767705e+00  7.91010800e-02  -4.31061500e-02  -1.04452920e-01
C     4.868966524608804e+00   7.031720584056502e+00   2.995479235762934e+00  9.26869900e-02   6.87056500e-02   8.53921400e-02
C     6.089014487910927e+00   6.328273374564754e+00   2.996526774028740e+00 -9.35765000e-02   5.08796100e-02  -2.42224200e-02
C     7.305733258525027e+00   7.031129647386127e+00   2.996393804998401e+00  2.02826100e-01  -4.22351400e-02   5.21805400e-02
C     8.526060869115353e+00   6.325566089974846e+00   3.003039814724560e+00 -9.17803400e-02   1.69537300e-01  -6.28657000e-02
C     9.744444930600050e+00   7.034627240364018e+00   2.998469705840887e+00 -1.67324310e-01  -2.97445920e-01   1.68815400e-02
C     1.095889072637937e+01   6.330135993435174e+00   2.998107874320451e+00  2.26277670e-01   3.04708100e-02  -1.92273000e-03
C     1.218033280576362e+01   7.032145673871480e+00   2.997822709809937e+00 -9.22775100e-02   1.04606800e-01   4.22762400e-02
