2
Lattice="2.484 0 0 1.242 2.15120710300054 0 0 0 30 " PBC="1 1 1" Properties=species:S:1:pos:R:3:force:R:3 Energy="-16.12287648"
C     0.000000000000000e+00   0.000000000000000e+00   3.000000000000000e+00  0.00000000e+00   0.00000000e+00  -0.00000000e+00
C     1.242000000000000e+00   7.170690343335151e-01   3.000000000000000e+00 -0.00000000e+00   0.00000000e+00   0.00000000e+00
