32
Lattice="9.76 0 0 4.88 8.45240794093612 0 0 0 30 " PBC="1 1 1" Properties=species:S:1:pos:R:3:force:R:3 Energy="-257.84115827"
C     4.802957010259062e-04   2.438249412915235e-03   2.998073678161420e+00 -1.60028090e-01  -1.44336680e-01   4.90348300e-02
C     1.217898913631692e+00   7.041937344264632e-01   2.999018935386804e+00  2.36055190e-01  -8.15006700e-02   1.16568000e-02
C     2.439441402336709e+00  -3.968488607662206e-03   3.000085390644165e+00  9.36717900e-02   2.56315380e-01   1.53737600e-02
C     3.663718716960097e+00   7.043635599746542e-01   3.002403089035737e+00 -2.36002330e-01   1.56874500e-02  -3.41934100e-02
C     4.881583345931075e+00   1.118812070515844e-03   2.997536683416040e+00  7.59308700e-02  -6.65757300e-02   8.51578700e-02
C     6.103954000329423e+00   7.033838510791798e-01   3.001368270862293e+00 -6.65285200e-02   7.62780500e-02  -5.39314100e-02
C     7.323758283304043e+00  -4.201718239737032e-03   2.998317523518125e+00 -2.60063560e-01   1.71761080e-01   2.82480000e-02
C     8.536462184667856e+00   7.027939843858854e-01   3.001634388723694e+00  2.75573800e-01   4.69471700e-02  -6.55905600e-02
C     1.222959199483878e+00   2.110601427357882e+00   3.001919924954306e+00 -7.75893500e-02   2.01308050e-01  -1.71777600e-02
C     2.442258626273359e+00   2.818950975953813e+00   2.998669814133788e+00 -3.49387800e-02  -6.84353100e-02   3.43153700e-02
C     3.663704016438897e+00   2.116585892778328e+00   3.002817233830180e+00 -2.45206150e-01  -2.56343630e-01  -1.24209300e-02
C     4.876981596759691e+00   2.817326585362451e+00   3.004036692286142e+00  3.69235700e-01   1.06817310e-01  -2.92646900e-02
C     6.101726280689602e+00   2.114380293006354e+00   2.999303326141909e+00 -7.97474800e-02  -9.96240900e-02   3.29925100e-02
C     7.321199021298031e+00   2.818642218180726e+00   2.998528269375381e+00 -4.43755000e-02  -2.76483700e-02   4.33377000e-03
C     8.538281112285087e+00   2.110730273669592e+00   2.996855009633524e+00  1.28911240e-01   1.40601160e-01   6.55565300e-02
C     9.761748326355544e+00   2.817359007963768e+00   3.003955443895334e+00 -4.90605900e-02  -1.29346100e-01  -5.20348500e-02
C     2.442829509179270e+00   4.227365102784723e+00   2.998161577625455e+00 -2.32623140e-01  -3.22907700e-02   4.85779300e-02
C     3.658795739697522e+00   4.928492611210259e+00   3.003418043250950e+00  2.22317130e-01   2.19046770e-01  -3.81147500e-02
C     4.881000425985766e+00   4.226982584811408e+00   3.002886176666437e+00 -8.71134900e-02  -9.63618700e-02   5.21510000e-03
C     6.102125367533511e+00   4.926747458911652e+00   3.000770453088310e+00 -1.28878280e-01   2.59086640e-01   2.83522600e-02
C     7.319193779364195e+00   4.227394019812563e+00   3.001904248886836e+00  2.06550390e-01  -9.80549100e-02  -4.15878100e-02
C     8.540659817012250e+00   4.931180302978417e+00   2.998930631297867e+00 -7.25416000e-03   3.57713300e-02   1.36698100e-02
C     9.760946265954630e+00   4.225797458999494e+00   3.001447529576319e+00  5.78942000e-03   6.66906000e-02   1.52241000e-02
C     1.098059400778738e+01   4.934411040308623e+00   3.002594788222152e+00  3.18487900e-02  -2.67149530e-01  -5.63109700e-02
C     3.660902355303206e+00   6.340376949840964e+00   3.000905255042605e+00 -1.39618210e-01  -1.13794770e-01   1.34187600e-02
C     4.877862627564829e+00   7.044279816715676e+00   3.002989473476817e+00  2.78860110e-01  -1.67760700e-02  -3.19086400e-02
C     6.103189559747831e+00   6.337804035720209e+00   3.002269715813452e+00 -2.71990930e-01  -2.59222300e-02  -9.56410000e-04
C     7.320126602882571e+00   7.041500525447872e+00   3.001891143972222e+00  1.59389700e-02   8.52380400e-02  -3.59921500e-02
C     8.540963308006619e+00   6.342182590206913e+00   2.997482904882713e+00  4.18968000e-03  -2.26176140e-01   6.21720000e-02
C     9.759381799202455e+00   7.043176591153792e+00   3.003655106853912e+00  7.51827300e-02   1.02939710e-01  -1.00019400e-01
C     1.097967738271341e+01   6.338480566267488e+00   2.997620506543844e+00 -2.14190600e-02   1.39358780e-01   5.72952400e-02
C     1.219890820909439e+01   7.044111049965304e+00   2.997903158235186e+00  1.22381820e-01  -1.73510670e-01  -1.09086000e-03
