32
Lattice="9.86 0 0 4.93 8.53901048131456 0 0 0 30 " PBC="1 1 1" Properties=species:S:1:pos:R:3:force:R:3 Energy="-257.95448962"
C    -2.618878408345117e-03  -1.061595459634563e-02   3.006093677863506e+00 -3.89744000e-02   7.89386050e-01  -7.21798000e-02
C     1.227159210654746e+00   7.166937373986300e-01   3.009164494034707e+00  5.32949200e-02  -9.11231780e-01  -1.28272250e-01
C     2.452942251702689e+00  -1.080022217700190e-02   2.997496294441981e+00  3.31414550e-01   6.38620890e-01   1.35808000e-02
C     3.684837147532812e+00   7.056237492609742e-01   2.991935813039655e+00  5.69271960e-01   2.29018110e-01   1.22342640e-01
C     4.937030809458406e+00  -2.840317253051334e-03   2.999115105555989e+00 -7.66747390e-01   2.71972550e-01   1.27739300e-02
C     6.162559191378609e+00   7.131739667237795e-01   3.000717622457250e+00 -7.95509000e-03  -1.93070330e-01   4.42057400e-02
C     7.383992931607589e+00   1.526201534089506e-03   3.013893988167026e+00  4.14304420e-01  -5.82079510e-01  -1.67629570e-01
C     8.623836892000066e+00   6.985868467708166e-01   3.004021951441227e+00 -1.46630200e-01   3.97732590e-01   5.79834500e-02
C     1.239405461876893e+00   2.124569033181573e+00   2.996346567978456e+00 -2.39054370e-01   3.74392480e-01   1.01470060e-01
C     2.455983563295010e+00   2.845404754498996e+00   3.004319358099790e+00  7.47808800e-01   3.43546250e-01   6.75832500e-02
C     3.703447281110766e+00   2.145486344576986e+00   3.007880755508901e+00 -1.01276872e+00  -1.01873653e+00  -9.36890500e-02
C     4.920554085079241e+00   2.839877908207852e+00   3.006999571302369e+00  8.14892480e-01   3.81248300e-02  -8.45768000e-02
C     6.170650716061447e+00   2.125854147645336e+00   2.997184757355101e+00 -8.81889560e-01   4.30682550e-01   7.39072700e-02
C     7.383513463637447e+00   2.839005467567384e+00   2.999326644086821e+00  8.66983660e-01   5.30721040e-01   5.30321800e-02
C     8.623789297951939e+00   2.126318238865611e+00   2.998519572932240e+00  2.19787220e-01   1.19969400e-02   1.94070000e-04
C     9.872522951452870e+00   2.833539945456040e+00   2.995277536630018e+00 -9.15204850e-01   2.09127510e-01   6.77898200e-02
C     2.458158718208628e+00   4.276917963647493e+00   3.015272465281066e+00 -4.81321000e-03  -4.15314300e-01  -1.70094480e-01
C     3.693432702534067e+00   4.988275707597331e+00   2.994122132651324e+00 -1.34148800e-02  -3.23651780e-01   1.05690280e-01
C     4.915665027712992e+00   4.254600339203446e+00   2.994695592798162e+00  3.56586050e-01   7.29051430e-01   2.68910800e-02
C     6.152125314943031e+00   4.976630913357681e+00   2.992404160241406e+00  2.29834080e-01   3.32687640e-01   1.12948880e-01
C     7.393082380528577e+00   4.278878269202374e+00   3.009638151166465e+00 -2.94042190e-01  -5.07747840e-01  -2.33680420e-01
C     8.626616572750352e+00   4.992754614300033e+00   2.992482942966340e+00 -3.15633600e-02  -9.98002260e-01   1.34092330e-01
C     9.855328028614098e+00   4.257664459178764e+00   3.004462418854910e+00  1.38650000e-02   2.37033720e-01  -8.76644900e-02
C     1.108105573605285e+01   4.973999074504870e+00   3.007485661207369e+00  3.19049850e-01   9.42909300e-02  -8.65724200e-02
C     3.704380149335579e+00   6.412105457602829e+00   2.995991845086892e+00 -4.08561000e-01  -3.64502970e-01  -7.07469000e-02
C     4.924114221865168e+00   7.123286845322077e+00   2.987862257077125e+00  7.36461640e-01  -4.56424040e-01   1.72854900e-01
C     6.171945314286952e+00   6.415215313818878e+00   2.997220226373726e+00 -1.06406119e+00  -8.67492890e-01  -1.22309090e-01
C     7.389876587976046e+00   7.112103682334485e+00   2.994182569821574e+00  4.55050080e-01  -3.19067400e-02   1.58707800e-02
C     8.626208418021061e+00   6.397323406878328e+00   2.990676394502114e+00  3.32609350e-01   8.76285170e-01   1.16601380e-01
C     9.865938950972721e+00   7.122108636466855e+00   3.009072684855177e+00  2.78651000e-02  -6.75699370e-01  -2.85156880e-01
C     1.110598953949746e+01   6.394863377186939e+00   2.985949984281191e+00 -1.01290984e+00   2.05679740e-01   2.99657080e-01
C     1.232217040500107e+01   7.105234556179970e+00   2.999462436680915e+00  3.49511090e-01   6.05509920e-01   3.10224000e-03
