32
Lattice="9.716 0 0 4.858 8.4143028231696 0 0 0 30 " PBC="1 1 1" Properties=species:S:1:pos:R:3:force:R:3 Energy="-257.46853595"
C    -7.265517265418064e-03   3.944697706757041e-03   2.998508158817011e+00 -7.00665400e-02   4.58143400e-02  -9.92286300e-02
C     1.216082071321734e+00   6.931547590569684e-01   2.990503497278254e+00 -2.81560500e-02   4.90665600e-02   1.43326540e-01
C     2.435811319273864e+00  -3.391067073355916e-04   2.994974556551793e+00 -1.07772780e-01  -3.02122370e-01  -1.07253110e-01
C     3.651984492891311e+00   6.891874140892179e-01   2.986142460201697e+00 -6.04852220e-01   8.90575750e-01   3.15631650e-01
C     4.852309062183350e+00  -5.537129579701728e-03   3.015303801887205e+00  9.45515400e-01   6.87552000e-03  -4.10139250e-01
C     6.078753684972733e+00   7.061269108306343e-01   2.990691719120706e+00 -4.73870300e-01  -2.10249760e-01   1.51543100e-01
C     7.289925663732035e+00  -4.583392594473874e-03   2.997427396604627e+00 -5.99143330e-01   8.45427800e-02  -1.17349700e-02
C     8.486070427739284e+00   7.123916392670914e-01   2.994275265297411e+00  7.70700170e-01  -6.99432270e-01   1.23881600e-02
C     1.218272170380839e+00   2.092071986707139e+00   3.008387956139404e+00 -7.84062290e-01   4.39661050e-01  -8.13682000e-02
C     2.419237280301824e+00   2.795798071701936e+00   3.006458787894935e+00  5.34782660e-01   7.45452630e-01  -3.83745500e-02
C     3.632651917391888e+00   2.103028520206188e+00   3.007905582691241e+00  7.01208710e-01  -1.90107940e-01  -1.64889930e-01
C     4.854340558908463e+00   2.815710174364266e+00   3.000727600381626e+00 -4.59661000e-02  -4.51802500e-01  -9.02715700e-02
C     6.076841161438706e+00   2.112506533667573e+00   2.986654746348814e+00 -2.21460240e-01  -2.19474480e-01   1.88559460e-01
C     7.297141201645519e+00   2.807761432813833e+00   3.010674676660055e+00 -9.05879110e-01   2.05362560e-01  -3.42263780e-01
C     8.491206929183154e+00   2.105364934675944e+00   2.994033506049080e+00  5.94079150e-01   1.15442310e-01   1.57426780e-01
C     9.709011848006112e+00   2.805880730284495e+00   3.008662892360718e+00  3.72654110e-01  -7.26385190e-01  -9.71441900e-02
C     2.440905251808330e+00   4.216854488639337e+00   2.993725532494962e+00 -5.82084620e-01  -5.53823490e-01   1.63584320e-01
C     3.651308323316580e+00   4.921708646747682e+00   2.994278505297064e+00 -1.63067880e-01  -4.22413770e-01   4.67279900e-02
C     4.860323609817894e+00   4.213397975710376e+00   2.991163365155607e+00  2.76989840e-01   3.46699440e-01   8.66214000e-02
C     6.084624021109470e+00   4.918820298048955e+00   2.997063121979858e+00 -6.17904930e-01  -2.09367210e-01  -1.16545490e-01
C     7.283826432100900e+00   4.207257535924206e+00   2.988906443629627e+00  7.16757210e-01   3.60567240e-01   2.86945980e-01
C     8.505342741353093e+00   4.917359681314342e+00   3.007233192954697e+00 -4.67638720e-01  -8.37663760e-01  -1.87955480e-01
C     9.710186385590973e+00   4.194869675593929e+00   3.003453430417495e+00  4.74370150e-01   9.30555610e-01   1.32022480e-01
C     1.093339952181957e+01   4.909734345712974e+00   3.010477484180775e+00 -1.06415740e-01  -5.24370870e-01  -9.86742200e-02
C     3.636884484552495e+00   6.318814501993315e+00   3.009564704054563e+00  1.37285510e-01  -1.60182170e-01  -1.33754480e-01
C     4.850258982478101e+00   7.016235467809127e+00   2.993719366029711e+00  5.17597990e-01   1.27496580e-01   1.11212110e-01
C     6.085796384008285e+00   6.322090621164177e+00   2.994575793830354e+00 -7.79455120e-01  -2.44768670e-01   1.24368500e-02
C     7.300304229335551e+00   7.007712604170115e+00   2.996853235384895e+00 -8.86634600e-01   7.50109200e-01  -5.33490300e-02
C     8.488801884545406e+00   6.310170138853511e+00   2.993792301599401e+00  1.27581799e+00  -1.24114420e-01   3.48183500e-02
C     9.711793068825587e+00   7.005941891524191e+00   2.990067933128473e+00 -8.63899900e-02   1.89533570e-01   2.64711880e-01
C     1.092732172052609e+01   6.307367537037669e+00   3.011148507866494e+00 -4.13797740e-01  -1.00468230e-01  -1.06055230e-01
C     1.213120805244601e+01   7.001500578538169e+00   3.008143058769958e+00  6.26859410e-01   6.88991960e-01   3.10450600e-02
