32
Lattice="9.792 0 0 4.896 8.48012075385722 0 0 0 30 " PBC="1 1 1" Properties=species:S:1:pos:R:3:force:R:3 Energy="-257.96411116"
C     1.891699473825761e-03  -1.531945229065084e-03   2.998686229510417e+00 -1.18602070e-01   1.67612490e-01   3.22975000e-02
C     1.224223748540104e+00   7.033405867366168e-01   3.000806533928734e+00 -2.12835600e-02   1.62467310e-01  -8.73921000e-03
C     2.445062897973152e+00  -1.282642769723824e-03   3.000698005298863e+00  2.93561880e-01   1.42574350e-01   1.58863500e-02
C     3.674154841120756e+00   7.096623414993820e-01   3.002772930919512e+00 -2.24936040e-01  -1.73156870e-01  -3.83355900e-02
C     4.893307461130171e+00   1.889362675492611e-03   3.001281383768573e+00  2.21055920e-01  -1.21188370e-01   3.04198100e-02
C     6.121850009068290e+00   7.095469064257508e-01   3.001965695793582e+00 -1.66467830e-01  -2.36155840e-01  -2.01113400e-02
C     7.342186660386607e+00   1.561307726533455e-03   3.000359937729995e+00  1.94908760e-01  -6.99424300e-02  -1.88395900e-02
C     8.570579963108759e+00   7.062836697541902e-01   2.998382530878801e+00 -1.10602790e-01   1.85372400e-02   1.04559200e-02
C     1.224927473394468e+00   2.118277036863278e+00   3.000776925251567e+00 -2.02380440e-01  -9.14967000e-03  -1.97446800e-02
C     2.446075750087615e+00   2.822594111444002e+00   2.998202609359681e+00  8.35136200e-02   1.97155590e-01   2.84155100e-02
C     3.674234769556245e+00   2.121611913684911e+00   2.999306366473515e+00 -1.77911340e-01  -8.94035700e-02   2.61467200e-02
C     4.893548646702962e+00   2.824648871542358e+00   3.002661704963269e+00  3.58505670e-01   6.84222000e-02  -2.78624900e-02
C     6.123981686758308e+00   2.116537708688469e+00   2.999648568650005e+00 -2.36975740e-01   3.00084310e-01   3.69878600e-02
C     7.344897747073923e+00   2.826289859178546e+00   2.999951886597637e+00  8.01829400e-02   1.02981240e-01  -1.09749000e-03
C     8.571205834163869e+00   2.121159103786882e+00   2.999423378041252e+00 -2.20587890e-01  -1.10625080e-01  -8.37445000e-03
C     9.788348152408792e+00   2.827581994226982e+00   2.999048886123226e+00  3.55903470e-01   7.22556000e-02  -1.76317000e-03
C     2.445427175288469e+00   4.238111720692690e+00   3.000638756341212e+00  5.98831500e-02   4.49688900e-02  -5.82482100e-02
C     3.670630629478376e+00   4.944788881848140e+00   2.996805913668395e+00  1.32598210e-01   1.40057570e-01   6.99770600e-02
C     4.899037428406888e+00   4.238749556887928e+00   3.002816424933593e+00 -3.67051200e-01  -9.42211600e-02  -2.12783400e-02
C     6.117019810713331e+00   4.943349756436171e+00   3.003214928333970e+00  2.30523400e-01   1.80174710e-01  -2.45258700e-02
C     7.344557854166435e+00   4.242957842499684e+00   3.000573453618530e+00 -9.72510900e-02  -2.16229210e-01  -3.83448000e-03
C     8.564983440414677e+00   4.950440470158831e+00   2.997057081221686e+00  1.52273320e-01  -1.24885210e-01  -5.49586000e-03
C     9.790169714365303e+00   4.243016671370923e+00   2.996463112306153e+00 -9.50175000e-03  -6.18323500e-02   1.63617600e-02
C     1.101503373611358e+01   4.949797047218297e+00   2.998050311045992e+00 -1.28284900e-02  -1.82726170e-01   2.75206200e-02
C     3.676004302352253e+00   6.364282188763824e+00   3.000375296611002e+00 -3.63172610e-01  -2.69911940e-01  -2.45120200e-02
C     4.893715079747407e+00   7.071330267547128e+00   3.003670764351974e+00  3.51159280e-01  -3.41458120e-01  -5.54420100e-02
C     6.120576046027583e+00   6.356009301337343e+00   2.999842428500297e+00 -5.41809700e-02   2.84034110e-01   4.25302500e-02
C     7.346682843937655e+00   7.068913976017090e+00   3.000088416706384e+00 -1.56003350e-01  -2.43949210e-01  -2.92834700e-02
C     8.571420002667013e+00   6.360769484930304e+00   2.995931598237355e+00 -1.87614060e-01   6.36922700e-02   5.35745100e-02
C     9.792829425067595e+00   7.063437589673011e+00   3.002439443002949e+00 -7.75576000e-03   3.39368100e-01  -3.41989400e-02
C     1.101580685138926e+01   6.361047515270985e+00   3.002606965584054e+00  5.36023900e-02  -3.39981900e-02  -4.94369500e-02
C     1.223817562028282e+01   7.066737652736775e+00   2.997343386711288e+00  1.67435010e-01   9.44474100e-02   6.05502800e-02
