32
Lattice="9.892 0 0 4.946 8.56672329423567 0 0 0 30 " PBC="1 1 1" Properties=species:S:1:pos:R:3:force:R:3 Energy="-258.0580808"
C    -8.962292490032743e-04  -8.046480363372024e-04   3.000770755891420e+00  2.74734000e-03  -1.30820850e-01  -6.66076800e-02
C     1.232094275793980e+00   7.119299717741860e-01   2.997737369488004e+00  2.50165130e-01   9.81841300e-02   4.41088700e-02
C     2.474863358706941e+00   2.542644974416858e-03   3.002100879316655e+00 -1.26182870e-01  -1.74143690e-01  -3.70239000e-02
C     3.711982316307996e+00   7.145730109029199e-01   3.001768979422022e+00 -1.24821540e-01   1.44522600e-02   2.54991300e-02
C     4.944272529994624e+00   2.321600324689197e-03   3.003639129939605e+00  8.27110400e-02  -1.71501910e-01  -8.14687300e-02
C     6.180865119869024e+00   7.174376551754923e-01   2.997310839153120e+00  4.01683900e-02  -2.66591400e-01   4.55381200e-02
C     7.414639163075687e+00  -3.665924050215335e-03   2.996952701900741e+00  2.09499040e-01   1.38294230e-01   8.99226000e-03
C     8.657461980874603e+00   7.103366826941120e-01   2.997689568377854e+00 -2.67676290e-01   1.00449190e-01   4.13223700e-02
C     1.234429029278935e+00   2.140962741260791e+00   2.998338527967298e+00  1.75284390e-01  -5.77194000e-02  -1.29000500e-02
C     2.475794960664620e+00   2.853483791443794e+00   2.998726141999821e+00 -1.71132980e-01   4.21838600e-02   9.44424000e-03
C     3.712524665024862e+00   2.141399076046172e+00   3.001537543109263e+00 -1.12256060e-01   1.62972000e-02  -1.03299900e-02
C     4.944808488016799e+00   2.854814545954718e+00   3.001862213835375e+00  1.70811400e-01   9.90334000e-02  -1.95007300e-02
C     6.183083276416133e+00   2.140121942570090e+00   3.000282399401799e+00 -2.37036200e-02   2.03728880e-01  -8.30035000e-03
C     7.419707333507052e+00   2.856358009708274e+00   2.999334072923459e+00  2.32390300e-02  -1.19303130e-01  -1.19687000e-03
C     8.657583539740001e+00   2.141405755806685e+00   3.002426439619144e+00 -1.10805220e-01  -1.19976490e-01  -6.74626700e-02
C     9.892736587508127e+00   2.853481709422625e+00   2.997472488311649e+00 -6.64853000e-02   1.11242360e-01   3.23956600e-02
C     2.472059647528122e+00   4.282637302080458e+00   2.999605516614384e+00  1.02916700e-02  -8.06489500e-02   2.27187300e-02
C     3.709030282058841e+00   4.994303159641804e+00   3.000861633785723e+00  5.42651000e-03   1.38534200e-01   8.13340000e-04
C     4.945556226206997e+00   4.284919404349433e+00   2.999545340770458e+00  7.93551000e-02  -1.08060260e-01   3.89421100e-02
C     6.184117795260028e+00   5.000448607364159e+00   3.002745161896479e+00 -1.38716650e-01  -2.29390120e-01  -8.95393600e-02
C     7.419233610174778e+00   4.281896028551825e+00   2.995477080417344e+00 -3.19336300e-02   1.65569290e-01   7.64025400e-02
C     8.653141460828403e+00   4.999375876244994e+00   2.998843343334051e+00  1.25059890e-01  -1.54056920e-01  -1.79907300e-02
C     9.888858762863462e+00   4.281894680590094e+00   2.998486159078394e+00  8.39842600e-02   8.12184000e-02   1.50331400e-02
C     1.112719533336909e+01   4.996560593755111e+00   3.002652090086953e+00 -5.42285100e-02  -2.93060600e-02  -4.80568000e-02
C     3.710819219698595e+00   6.423582390607256e+00   3.002511443487780e+00 -1.15747990e-01  -4.60551800e-02  -4.51787300e-02
C     4.945634462279620e+00   7.136723158800051e+00   2.995583046081886e+00 -4.86322500e-02   7.08786400e-02   6.66783400e-02
C     6.179271685935518e+00   6.423962358645352e+00   2.996947085416857e+00  3.00349060e-01   1.24476730e-01   3.21529900e-02
C     7.421868104905274e+00   7.137998835473265e+00   2.999846050865152e+00 -1.74774180e-01   1.54739390e-01   2.45650000e-03
C     8.658645100110769e+00   6.426969011404942e+00   3.000542200155994e+00 -2.62480180e-01  -1.40349380e-01  -3.12286700e-02
C     9.888584618005343e+00   7.136512628473074e+00   2.995969641386570e+00  2.65794750e-01   2.79815810e-01   8.32408900e-02
C     1.112663951229890e+01   6.424857362503446e+00   2.999803532575020e+00 -1.23737200e-02  -1.01248760e-01   6.86190000e-04
C     1.236351105543300e+01   7.135477605393445e+00   3.000744633292235e+00  1.70639900e-02   9.00745400e-02  -9.64017000e-03
