32
Lattice="9.808 0 0 4.904 8.49397716031777 0 0 0 30 " PBC="1 1 1" Properties=species:S:1:pos:R:3:force:R:3 Energy="-257.84558856"
C     1.460171831091504e-03   7.671227896172301e-03   2.991156701553479e+00 -4.90450560e-01  -1.55253780e-01   1.34125170e-01
C     1.225426580369811e+00   6.985445818745750e-01   3.007779935306001e+00  1.78128550e-01   9.64043150e-01  -1.18212330e-01
C     2.443401085453726e+00   5.718037251793489e-03   3.010766049989500e+00  7.22676940e-01  -5.56628620e-01  -1.62152400e-01
C     3.690794938033474e+00   6.975697951875823e-01   3.005461876658156e+00 -1.25416684e+00   9.45736550e-01   7.43358200e-02
C     4.903230504679348e+00   1.442821395501530e-02   3.001671658494732e+00  1.86805170e-01  -1.32994955e+00   1.31322100e-02
C     6.117095376645431e+00   7.075346208717553e-01   2.999434677434155e+00  8.51366200e-01   5.71735930e-01   3.39756900e-02
C     7.355490561520243e+00  -9.972515328148630e-04   3.006276279801043e+00 -1.24201310e-01   4.14651330e-01  -8.43437200e-02
C     8.578668368958507e+00   7.178385111471394e-01   2.998935602937478e+00  9.17397700e-02  -8.78068770e-01   6.17876900e-02
C     1.240486502917147e+00   2.125297940393109e+00   2.996410907414558e+00 -1.36003723e+00  -3.96318750e-01   4.69056300e-02
C     2.446271928599921e+00   2.829271135094772e+00   2.986948774507740e+00  6.43282250e-01   5.90504000e-03   2.74179060e-01
C     3.673413470173078e+00   2.122223237116374e+00   3.010128398895919e+00  3.31054880e-01  -2.64216670e-01  -9.02739000e-02
C     4.907012201814197e+00   2.826462771978760e+00   3.014190563449334e+00 -5.03528730e-01   4.01629300e-01  -1.88218630e-01
C     6.120448649561190e+00   2.136817820760497e+00   2.998347035828127e+00  8.11824430e-01  -9.68439840e-01   3.08460400e-02
C     7.364141362850315e+00   2.831301401548686e+00   2.992408731085782e+00 -5.18550580e-01  -1.88388850e-01   2.28275910e-01
C     8.586501676862344e+00   2.113540895011075e+00   3.012991167451029e+00 -5.29238580e-01   5.29765820e-01  -1.78743410e-01
C     9.793275751894708e+00   2.820172843677371e+00   3.007309405030699e+00  1.27816664e+00   4.44535890e-01  -1.16797200e-02
C     2.462888222140177e+00   4.241528505801785e+00   3.009826873039139e+00 -6.71999830e-01   3.13848660e-01  -1.76779120e-01
C     3.677905794796708e+00   4.943151633212528e+00   3.007545579317041e+00  5.46556830e-01   5.23799670e-01  -1.47446500e-01
C     4.917163074560898e+00   4.243178101102642e+00   2.991974237754607e+00 -1.00833956e+00  -1.99336000e-02   1.86460060e-01
C     6.117897203285861e+00   4.956075096116893e+00   2.993115939851224e+00  1.22174801e+00  -3.86181610e-01   7.86317800e-02
C     7.361201979931010e+00   4.236265249433554e+00   3.010079536536354e+00 -2.34576120e-01   5.70700590e-01  -1.87226800e-01
C     8.593160146665518e+00   4.942457930125663e+00   3.008260640831241e+00 -1.01167562e+00   9.92466650e-01   5.90520900e-02
C     9.795285169181103e+00   4.244583387516126e+00   3.006766823032022e+00  1.31923632e+00  -2.26300080e-01  -4.34667200e-02
C     1.104413174077777e+01   4.965217378636754e+00   2.997203976263074e+00 -4.94087670e-01  -8.96456660e-01   3.67559400e-02
C     3.675347160686140e+00   6.371305690441661e+00   2.992590540648300e+00  2.72346960e-01  -2.66588360e-01   1.61949230e-01
C     4.893113994633797e+00   7.091781246166447e+00   2.995227788081740e+00  7.52292880e-01  -7.98760110e-01  -4.91634800e-02
C     6.132985943374758e+00   6.361564445140552e+00   2.998040659224166e+00 -6.70878210e-01   8.88184200e-01  -1.16136790e-01
C     7.352558842540167e+00   7.082033003983725e+00   2.988709746056857e+00 -1.26233400e-02  -1.59106620e-01   2.82612110e-01
C     8.579995358547000e+00   6.379441632948192e+00   3.010616238252192e+00  2.05273210e-01  -6.94289660e-01  -1.66204340e-01
C     9.806999017590947e+00   7.074692104261250e+00   3.001846541981442e+00  8.27972400e-02   5.05763640e-01  -3.93583200e-02
C     1.103704485630975e+01   6.370494713988695e+00   2.985887376509977e+00  1.02749040e-01   2.94902790e-01   2.28011700e-01
C     1.227207328618015e+01   7.083141636044894e+00   3.004961374505045e+00 -7.13691150e-01  -1.82787680e-01  -1.71629960e-01
