2
Lattice="2.417 0 0 1.2085 2.09318340094699 0 0 0 30 " PBC="1 1 1" Properties=species:S:1:pos:R:3:force:R:3 Energy="-16.07524485"
C     0.000000000000000e+00   0.000000000000000e+00   3.000000000000000e+00  0.00000000e+00  -0.00000000e+00   0.00000000e+00
C     1.208500000000000e+00   6.977278003156626e-01   3.000000000000000e+00 -0.00000000e+00   0.00000000e+00  -0.00000000e+00
