32
Lattice="9.768 0 0 4.884 8.4593361441664 0 0 0 30 " PBC="1 1 1" Properties=species:S:1:pos:R:3:force:R:3 Energy="-257.76448687"
C    -9.630670238043077e-03   1.126578169530589e-02   3.006374968984413e+00  1.92654400e-02  -8.44269660e-01  -1.90017770e-01
C     1.211225259385069e+00   6.948872834742031e-01   2.999919166893914e+00  4.74065680e-01   7.70394080e-01   1.59143670e-01
C     2.443270946747766e+00  -9.517581454239740e-03   3.011930148664076e+00 -5.88174300e-01   5.97746880e-01  -2.18860570e-01
C     3.652240639510437e+00   7.027577248450932e-01   2.990396227148874e+00  7.96402780e-01   1.00401560e-01   1.94165550e-01
C     4.883586319520701e+00  -2.278542040145389e-03   3.003682018777734e+00 -3.86674340e-01   3.63657900e-02  -5.20377800e-02
C     6.103119599946520e+00   7.124534571667065e-01   3.005329966353098e+00 -2.47342920e-01  -1.68708840e-01  -1.10106140e-01
C     7.317231243257766e+00   5.787810666411273e-03   2.998183208670429e+00  2.26013130e-01  -2.17136060e-01  -3.05153000e-02
C     8.533995211653277e+00   7.147905678425434e-01   2.994621991773309e+00  2.72792180e-01  -4.64077900e-02   9.89667800e-02
C     1.225532992242094e+00   2.124198737081521e+00   3.003501764350037e+00  1.01173710e-01  -1.09374766e+00  -1.17471200e-01
C     2.441877005859689e+00   2.815039006129267e+00   2.999715326032276e+00  2.81953040e-01   7.29923950e-01  -5.55572000e-02
C     3.671171978358155e+00   2.118533130468582e+00   2.994991772621604e+00 -8.15249620e-01  -2.82456410e-01  -5.45804800e-02
C     4.875222427450214e+00   2.827377915823980e+00   2.989226312680973e+00  7.22379140e-01   4.99558200e-02   9.90934400e-02
C     6.101492872880193e+00   2.123683149798664e+00   2.992155635713646e+00 -7.19048800e-02  -8.56406100e-02   7.09754500e-02
C     7.321494279305414e+00   2.827160048242570e+00   2.997920238878940e+00  3.03594270e-01   1.26838630e-01  -4.09855000e-02
C     8.550166703737840e+00   2.126077859144411e+00   2.998008887280549e+00 -2.92503120e-01  -2.91441090e-01  -8.35054600e-02
C     9.780542741427761e+00   2.816259268210985e+00   2.986980988636520e+00 -7.15141400e-01   5.61106580e-01   1.69621550e-01
C     2.439802993549024e+00   4.243089609350688e+00   2.988660996493400e+00  4.18381300e-02  -1.29179431e+00   1.72616350e-01
C     3.654495452917813e+00   4.927689548020053e+00   3.005325464183376e+00  6.25353330e-01   5.64361340e-01  -5.10981000e-02
C     4.893793849270336e+00   4.240573793160336e+00   3.008037531590544e+00 -1.08833013e+00  -7.50649950e-01  -6.89069900e-02
C     6.100660582030808e+00   4.922955810434724e+00   3.010770597131694e+00  3.44625760e-01   1.25678061e+00  -3.50300100e-02
C     7.323920674560673e+00   4.241687808818213e+00   2.997902394519650e+00 -2.45253530e-01  -8.41666070e-01   2.78760900e-02
C     8.536390849632859e+00   4.931967789149130e+00   2.993384736803933e+00  5.21951760e-01   2.87806110e-01   2.23288000e-02
C     9.758371964484306e+00   4.227512910897346e+00   2.994751378757295e+00  6.55255510e-01   2.13421570e-01  -4.12628900e-02
C     1.099685863132460e+01   4.938600602661988e+00   2.998926171531257e+00 -9.44462700e-01  -1.76913470e-01  -1.40570400e-01
C     3.651123268549543e+00   6.335834938386225e+00   3.004587483154358e+00  7.96842120e-01   2.96531980e-01  -1.33214500e-01
C     4.891715176392664e+00   7.041714105340374e+00   2.994268457588489e+00 -1.11962515e+00   6.08275820e-01   2.27147120e-01
C     6.098265432716635e+00   6.347301234171118e+00   3.010459292697165e+00  4.66863380e-01  -4.45633700e-01  -1.01167510e-01
C     7.324003368649904e+00   7.053603936981224e+00   3.000967609486429e+00 -1.48957120e-01  -5.54046130e-01   1.17151850e-01
C     8.539147225568010e+00   6.343813207959337e+00   2.997557584196182e+00  6.77568400e-02  -1.14708500e-01   2.73623700e-02
C     9.756738836740698e+00   7.041520173954932e+00   3.003548695997857e+00  6.17076670e-01   3.12271330e-01  -8.95426400e-02
C     1.099265475171186e+01   6.341312038465960e+00   2.989189741758931e+00 -4.67635110e-01   2.49209420e-01   1.23638180e-01
C     1.220954869686319e+01   7.045568941241512e+00   2.988700154124501e+00 -2.03948550e-01   4.43828790e-01   1.04343230e-01
