2
Lattice="2.453 0 0 1.2265 2.12436031548323 0 0 0 30 " PBC="1 1 1" Properties=species:S:1:pos:R:3:force:R:3 Energy="-16.12703868"
C     0.000000000000000e+00   0.000000000000000e+00   3.000000000000000e+00  0.00000000e+00  -0.00000000e+00  -0.00000000e+00
C     1.226500000000000e+00   7.081201051610759e-01   3.000000000000000e+00 -0.00000000e+00   0.00000000e+00   0.00000000e+00
