32
Lattice="10.02 0 0 5.01 8.67757454592007 0 0 0 30 " PBC="1 1 1" Properties=species:S:1:pos:R:3:force:R:3 Energy="-257.545318"
C     1.087293791863684e-04  -5.551846903400406e-04   2.999810916564827e+00  3.89855100e-02   3.40975700e-02  -6.00426000e-03
C     1.253363664211461e+00   7.218905328947645e-01   2.999052030647562e+00 -4.92058100e-02   6.25163600e-02  -8.38960000e-04
C     2.505427726457241e+00   8.162611515381442e-04   2.999089950007161e+00 -5.21128000e-03  -4.83934600e-02   1.13952900e-02
C     3.757688108790215e+00   7.241114736555583e-01   2.999271551315903e+00  2.22568000e-03  -5.31436700e-02  -4.00162000e-03
C     5.009211747189973e+00  -9.810158893870408e-04   2.999297842219026e+00  7.14475000e-02   6.99640800e-02   4.79891000e-03
C     6.263698952580691e+00   7.239119784484749e-01   2.999178212236895e+00 -4.37497000e-02  -9.98047200e-02   1.15197100e-02
C     7.515792142995558e+00  -5.659452636605436e-04   2.999828918980076e+00 -1.28496500e-02   4.80601800e-02  -1.77210000e-03
C     8.768602274698154e+00   7.239269238538418e-01   2.999589460435053e+00 -3.67245200e-02  -7.77575000e-02   1.99773000e-03
C     1.251686903186624e+00   2.169075080755975e+00   2.998761749710918e+00  4.67591700e-02   1.00583900e-02  -2.20440000e-04
C     2.504379828015379e+00   2.893265483223750e+00   2.998785713702972e+00  6.51884000e-03  -2.32797000e-02   1.20388000e-02
C     3.757747602659206e+00   2.169653666850321e+00   2.999010894951957e+00 -2.88559600e-02   1.06915800e-02   8.92177000e-03
C     5.009704268329583e+00   2.891363721161789e+00   3.000977980966423e+00  3.83122000e-02   3.13107300e-02  -1.78495700e-02
C     6.263704706746815e+00   2.168291291162007e+00   3.000978317591545e+00 -4.57740900e-02   7.20711900e-02  -1.12245000e-02
C     7.515192638255996e+00   2.893132260261215e+00   3.000326110760871e+00  1.93863200e-02  -5.28951700e-02  -9.44330000e-04
C     8.767705014691959e+00   2.168192336505746e+00   2.999273616577070e+00 -1.32908000e-03   1.01759900e-01   7.02632000e-03
C     1.002011193561984e+01   2.893198982143644e+00   2.999375491548992e+00 -1.73740000e-02  -5.67210500e-02  -3.44957000e-03
C     2.504463668704469e+00   4.339670022655080e+00   3.001189891266485e+00  3.20459000e-02  -4.13484900e-02  -2.57694000e-02
C     3.758464057500195e+00   5.061566552269105e+00   3.000247641659419e+00 -7.09631200e-02   5.76506000e-02   5.63020000e-03
C     5.009636263007201e+00   4.338386949449540e+00   2.999193592878712e+00  1.65508200e-02  -3.65213800e-02   1.79801500e-02
C     6.261842923992603e+00   5.060778365137607e+00   3.000013605731238e+00  8.02875000e-03   5.41787200e-02  -2.75521000e-03
C     7.514690012398015e+00   4.339019750489482e+00   3.000325504398347e+00  1.84810000e-04  -1.47438000e-03   5.21699000e-03
C     8.766604713787688e+00   5.063005257575207e+00   3.001118181601427e+00  4.15583100e-02  -6.16428500e-02  -1.24255500e-02
C     1.002025625312761e+01   4.338506127492255e+00   2.999657285950294e+00 -5.49147300e-02   3.13046700e-02   4.09342000e-03
C     1.127175938491856e+01   5.061359281598841e+00   2.999365072382415e+00  2.88141500e-02   3.42960600e-02   1.04265000e-02
C     3.756682388044359e+00   6.509349766724746e+00   3.001144816563884e+00  5.50517600e-02  -6.81693600e-02  -1.57861300e-02
C     5.010245424079244e+00   7.231891529986477e+00   2.999600164983208e+00 -5.46167000e-02  -2.75032700e-02   1.14491700e-02
C     6.261478099286459e+00   6.508089471977493e+00   3.000021790727561e+00  3.34714300e-02  -1.94856600e-02   4.41484000e-03
C     7.513969092733372e+00   7.231382349834473e+00   3.001232855881459e+00  4.12458800e-02   1.28129000e-03  -1.76936300e-02
C     8.767237065009054e+00   6.507769078526560e+00   3.000765153596010e+00 -1.42930700e-02   4.04916700e-02   6.20916000e-03
C     1.002063714423143e+01   7.230843853036241e+00   3.000335761890820e+00 -4.14104200e-02   5.88720000e-04  -1.24915400e-02
C     1.127260121346113e+01   6.507671877786009e+00   2.999025023692462e+00 -1.74243700e-02   6.35965000e-03   1.53529700e-02
C     1.252453066394618e+01   7.231204354320835e+00   3.000398144875917e+00  1.41094600e-02   1.45931000e-03  -5.24514000e-03
