32
Lattice="9.604 0 0 4.802 8.31730797794575 0 0 0 30 " PBC="1 1 1" Properties=species:S:1:pos:R:3:force:R:3 Energy="-256.34147535"
C    -4.394328832919080e-03  -7.508137906081470e-03   3.003332896359837e+00  4.78757460e-01   2.74196500e-02   1.46813600e-02
C     1.196483037642105e+00   6.936511421336293e-01   2.999792688832566e+00  1.42067850e-01  -4.90218400e-02  -1.53691100e-02
C     2.407934360990418e+00   9.565020821022683e-03   2.996848583896135e+00 -5.90287760e-01  -9.65353420e-01   3.37588500e-02
C     3.605382769351956e+00   6.878768679015818e-01   3.000328577946485e+00 -4.77085200e-02   4.37153370e-01   4.13290000e-03
C     4.808517553476501e+00   9.133506438445288e-03   3.000897623042619e+00 -5.26148980e-01  -9.78044620e-01   1.32788440e-01
C     5.991685168658956e+00   6.886563534899204e-01   3.010159524118175e+00  1.50737536e+00   3.88291710e-01  -1.58554040e-01
C     7.215650834960104e+00   2.633303756503842e-03   3.008669111907353e+00 -1.38818333e+00  -4.32160750e-01   1.02122310e-01
C     8.405949861878472e+00   6.808300944804780e-01   3.015001842527417e+00  7.65841700e-02   8.52856490e-01  -2.02353070e-01
C     1.190738434652059e+00   2.082544938533722e+00   2.999799806530542e+00  3.23345400e-01  -4.54275980e-01   2.86475900e-02
C     2.404459411081238e+00   2.760591261070097e+00   3.011433526641187e+00 -5.56185270e-01   4.16321770e-01  -8.06947000e-03
C     3.595859474350767e+00   2.072422709318422e+00   3.011699648979085e+00  9.08486100e-01   2.60797550e-01  -2.60581500e-02
C     4.812262051005404e+00   2.774064628342532e+00   3.010318562382400e+00 -8.28899480e-01  -1.55351250e-01  -7.66772700e-02
C     6.005013172737623e+00   2.075823541719882e+00   2.991995107046446e+00 -1.77154950e-01   1.76177980e-01   2.72380700e-01
C     7.194364433138075e+00   2.785286769356182e+00   3.010058951753880e+00  5.79316410e-01  -1.18706881e+00  -2.44553640e-01
C     8.404042538060066e+00   2.075987510059895e+00   2.989110324166516e+00 -7.10064960e-01   3.29652300e-02   2.50966530e-01
C     9.592772817438169e+00   2.762660715839119e+00   2.994354485376687e+00  5.49637090e-01   9.12994330e-01   2.67546000e-02
C     2.405280850161780e+00   4.150261556461382e+00   3.007709559658297e+00 -3.86730570e-01  -1.61599700e-01  -1.17310070e-01
C     3.598060659168581e+00   4.837225048166780e+00   2.998836752610849e+00  1.19036010e-01   9.62825760e-01   6.72784600e-02
C     4.804355660608755e+00   4.164682593708410e+00   3.007786634471214e+00  1.07703300e-01  -6.36759170e-01  -2.62855000e-03
C     6.006486765349651e+00   4.847668033977686e+00   3.006275038417696e+00 -5.98365440e-01   1.09279990e+00  -1.85673400e-02
C     7.190357718673922e+00   4.157736931733398e+00   3.003893929661928e+00  1.35406068e+00   4.19970430e-01  -1.19852000e-03
C     8.418213969068706e+00   4.846197544000239e+00   2.993329386597584e+00 -1.08079754e+00   5.48204350e-01   1.02141510e-01
C     9.615773756099076e+00   4.167078232049363e+00   3.003328885195149e+00 -7.27997910e-01  -1.11113756e+00  -1.75462900e-01
C     1.080419336235133e+01   4.846243664454699e+00   2.988671944766044e+00  7.06864430e-01   5.07807540e-01   1.48437430e-01
C     3.592261193846780e+00   6.235300908629520e+00   2.996265109900476e+00  1.51001800e-01  -4.06687460e-01   2.01967500e-02
C     4.802419563622829e+00   6.923479935743341e+00   2.997229654648223e+00 -8.42691400e-01   3.97649900e-01   3.74163500e-02
C     5.994594747891134e+00   6.252476844638762e+00   3.001947169888250e+00  5.41152650e-01  -1.46072597e+00  -2.78588800e-02
C     7.198425872473340e+00   6.920867266944168e+00   3.000967857631184e+00 -4.69363400e-02   1.35471330e+00  -4.44144400e-02
C     8.395442043774063e+00   6.244140229821572e+00   2.997078927302098e+00  6.93819230e-01  -7.92452390e-01   8.18449300e-02
C     9.604415344784504e+00   6.932407527613523e+00   3.014173921243519e+00 -3.21623100e-01   2.65765590e-01  -2.33115170e-01
C     1.080059810979310e+01   6.241388257953537e+00   2.994017239087777e+00 -2.11284540e-01  -5.43554770e-01   1.01898620e-01
C     1.199299926244181e+01   6.929411263176750e+00   3.005021711668675e+00  8.01852160e-01   2.79478830e-01  -7.32566900e-02
