32
Lattice="9.8 0 0 4.9 8.4870489570875 0 0 0 30 " PBC="1 1 1" Properties=species:S:1:pos:R:3:force:R:3 Energy="-257.98739704"
C     3.702902348570025e-03  -3.703286588938877e-04   3.001101796663004e+00 -2.84806740e-01   1.69072200e-02  -1.63639900e-02
C     1.225203833930234e+00   7.072925888230300e-01   2.998447830431611e+00 -5.06300000e-03  -9.51488000e-03  -1.06321600e-02
C     2.449415623847754e+00  -2.810441507780909e-04   2.995710577860449e+00  9.23730200e-02   1.87475050e-01   4.89348000e-02
C     3.674968609166336e+00   7.117282779273270e-01   2.998359113224169e+00  8.06852000e-02  -4.08291610e-01   2.48149400e-02
C     4.901005636142375e+00  -3.168064169191519e-03   3.003725129712701e+00 -1.81973900e-01   3.08487790e-01  -4.88539000e-02
C     6.123788228181476e+00   7.049692669412118e-01   2.997298478237208e+00  1.88097600e-02   1.51426920e-01   5.21876900e-02
C     7.346726530277120e+00  -1.446505044004654e-03   2.997704996540216e+00  1.65159150e-01  -8.49346300e-02  -4.75252000e-03
C     8.571322836123464e+00   7.046469982632987e-01   2.999265482066507e+00  2.10312790e-01   1.44924830e-01  -5.60620000e-04
C     1.221211975908594e+00   2.120352471936207e+00   2.998191488442209e+00  2.90250030e-01   1.73223180e-01   4.88762400e-02
C     2.448080842673348e+00   2.831799018852943e+00   3.002076926160279e+00  1.46657200e-01  -3.79248940e-01  -5.43352600e-02
C     3.678661875700865e+00   2.117967440463536e+00   3.000501860890584e+00 -3.02632620e-01   4.38356550e-01  -6.24756000e-03
C     4.899136381960306e+00   2.833257845152044e+00   3.000156493572034e+00  1.44405790e-01  -3.72628470e-01   9.25593000e-03
C     6.127173466988946e+00   2.123765926285636e+00   3.000533749295759e+00 -2.33094670e-01  -1.55395140e-01  -4.78458000e-02
C     7.348147138956481e+00   2.828229384378758e+00   2.996664471809414e+00  1.82804570e-01   6.09857600e-02   4.45484700e-02
C     8.574394486046586e+00   2.122295379842821e+00   2.998187319805912e+00  4.45719100e-02  -7.91299000e-02   1.29127800e-02
C     9.802790926279798e+00   2.832330007026853e+00   3.002249810561280e+00 -3.26845940e-01  -2.67920990e-01  -7.25862200e-02
C     2.451625178622630e+00   4.242304541853639e+00   2.998571416881737e+00 -9.90290300e-02   4.07001600e-02   7.10155400e-02
C     3.673623504150640e+00   4.949253212625841e+00   3.001352867791199e+00  1.72856590e-01   1.90425900e-02  -3.64744400e-02
C     4.898805788416062e+00   4.240084683680855e+00   2.998999870849842e+00  7.47637600e-02   3.18367460e-01   2.53542000e-02
C     6.128222930554910e+00   4.948581873377793e+00   2.999726759553669e+00 -2.29390160e-01   3.97123400e-02  -1.25956800e-02
C     7.349055708936207e+00   4.243416604917222e+00   3.001247117245815e+00  1.53400790e-01   2.64454000e-02  -4.65983000e-02
C     8.575492050382229e+00   4.953700167283376e+00   2.998638939545698e+00 -4.00678200e-02  -1.63412410e-01  -1.50759000e-03
C     9.797862122964842e+00   4.241960602110249e+00   2.996142600687660e+00  2.09511360e-01   2.18288170e-01   9.26821800e-02
C     1.102755970116303e+01   4.948287046420629e+00   3.004413354985147e+00 -2.20510750e-01   1.72478240e-01  -1.08298940e-01
C     3.675532576460300e+00   6.363041114869897e+00   2.999881033423387e+00  1.32420980e-01   4.61258700e-02   4.16954000e-03
C     4.902068279544442e+00   7.073956634176523e+00   3.000649799546041e+00  1.10928300e-02  -1.92122080e-01  -2.66387900e-02
C     6.127342503589913e+00   6.363101500837477e+00   2.996179309825522e+00  4.39566000e-03   1.43132390e-01   6.30804700e-02
C     7.352117076057976e+00   7.076145668611474e+00   3.000796392935634e+00 -1.14862800e-02  -2.64867300e-01  -5.54062400e-02
C     8.579764433362655e+00   6.366185815916786e+00   3.000000736201877e+00 -3.20506800e-01   4.65276500e-02   3.20244900e-02
C     9.797123727910876e+00   7.074925458202346e+00   3.004518436923889e+00  3.27585860e-01  -1.73805280e-01  -5.02830800e-02
C     1.102483467046559e+01   6.366246388307975e+00   2.998617810089098e+00  4.72815900e-02  -1.49578070e-01   6.03785000e-02
C     1.225374780064763e+01   7.068626562341851e+00   2.997801786055484e+00 -2.53931110e-01   1.48242120e-01   9.74532000e-03
