32
Lattice="9.812 0 0 4.906 8.49744126193291 0 0 0 30 " PBC="1 1 1" Properties=species:S:1:pos:R:3:force:R:3 Energy="-258.02036336"
C    -2.961577936806795e-03   4.553166909829987e-03   3.001051600533322e+00  1.81173420e-01  -2.30985670e-01  -3.15601100e-02
C     1.226796652788250e+00   7.120010606688846e-01   2.998784768748911e+00 -1.12963020e-01  -1.42212400e-02   3.49903600e-02
C     2.451648429188712e+00   1.703869894239821e-03   2.999760108078238e+00 -9.46204400e-02  -8.02805200e-02  -4.03561200e-02
C     3.676314925611191e+00   7.037013053078824e-01   2.997495394335854e+00  2.73205500e-01   2.80991880e-01   1.97250800e-02
C     4.908250527455244e+00  -1.235538306704940e-03   2.999439207952542e+00 -2.75192690e-01  -2.47363000e-02   3.26989000e-03
C     6.130816655046078e+00   7.070897401239176e-01   3.002956127070612e+00  1.13963020e-01   1.15858900e-02  -7.57636500e-02
C     7.356608502640809e+00  -3.494759511978863e-03   2.996781953471940e+00  6.43445600e-02   1.64906330e-01   5.38550200e-02
C     8.581615308755046e+00   7.045623285614923e-01   3.002498689732946e+00  5.62483400e-02   3.27096030e-01  -4.17317100e-02
C     1.227049469846894e+00   2.128379592120893e+00   3.001867014136733e+00  7.11932600e-02  -1.16463630e-01  -2.05218300e-02
C     2.452011401626364e+00   2.835251088527801e+00   3.002646415792294e+00  2.03087530e-01   2.98216000e-03  -5.05839500e-02
C     3.682719163192121e+00   2.125237349328297e+00   2.998098141304557e+00 -3.17882910e-01  -1.86052970e-01   4.87375400e-02
C     4.906135763087297e+00   2.828459219578744e+00   3.002742449789426e+00  1.45814290e-01   3.14868290e-01  -6.18254200e-02
C     6.134687189805484e+00   2.123706978065084e+00   2.998741465345093e+00 -9.71747800e-02  -3.70351400e-02   5.33308900e-02
C     7.358405709251455e+00   2.834214077445824e+00   2.999264361112747e+00  1.13730640e-01   2.75936200e-02  -1.09530000e-03
C     8.586368453234185e+00   2.126450164145284e+00   3.000248118883018e+00 -7.37208000e-02  -1.76599240e-01   2.17406000e-03
C     9.814215002751519e+00   2.833167650954277e+00   2.998884011940082e+00 -1.83506430e-01  -2.53348600e-02   2.69271200e-02
C     2.454313679383970e+00   4.252900656526617e+00   2.998319398342660e+00 -2.24546970e-01  -1.79664340e-01   4.84830600e-02
C     3.675310900744190e+00   4.956736528883521e+00   3.001028525495291e+00  3.90011050e-01  -3.96486000e-02   5.75000000e-05
C     4.907424972845520e+00   4.250434618546647e+00   3.000102465762271e+00 -1.14841910e-01  -1.63506640e-01   2.62750300e-02
C     6.133919558994038e+00   4.958187608697904e+00   3.000085439312822e+00 -7.36769100e-02  -3.02173400e-02   1.65042700e-02
C     7.359267944696414e+00   4.251867034391217e+00   3.000196554786099e+00  8.87454700e-02  -8.13924500e-02  -2.90213500e-02
C     8.589502174190249e+00   4.959111415695509e+00   2.997067023165491e+00 -2.67782000e-01  -1.05243680e-01   6.56330300e-02
C     9.809912639882313e+00   4.246488209247635e+00   2.999602991617924e+00  2.74973190e-01   2.45821430e-01  -1.91728000e-02
C     1.103918600704545e+01   4.960845375280380e+00   3.000056464977450e+00 -1.14099450e-01  -1.58999030e-01  -3.47831000e-03
C     3.679916199036381e+00   6.368727251132078e+00   3.003761053188388e+00  1.15345440e-01   3.41918200e-01  -8.91632000e-02
C     4.909767577684266e+00   7.081980096148526e+00   2.996988746800954e+00 -2.40360060e-01  -1.14963000e-03   8.05144200e-02
C     6.134221150214901e+00   6.373815448449490e+00   3.001493184526637e+00 -8.73323800e-02   3.88300200e-02  -5.83845500e-02
C     7.355703783893175e+00   7.082843097997644e+00   2.997425432751324e+00  1.95820180e-01  -3.47437300e-02   6.98925900e-02
C     8.584326388030899e+00   6.373927265065160e+00   3.003524683469277e+00 -2.52955400e-02   3.73564000e-02  -8.89166600e-02
C     9.809898176754361e+00   7.078934236847698e+00   2.998820538348207e+00  9.85398500e-02   1.67106720e-01   3.96679600e-02
C     1.103734899192041e+01   6.375435087808865e+00   3.000324525760688e+00  1.08081690e-01  -5.34255700e-02  -3.31220400e-02
C     1.226849649776158e+01   7.082801399758922e+00   2.996270188007571e+00 -1.91281150e-01  -2.21356390e-01   5.46591800e-02
