32
Lattice="9.808 0 0 4.904 8.49397716031777 0 0 0 30 " PBC="1 1 1" Properties=species:S:1:pos:R:3:force:R:3 Energy="-258.01030845"
C     1.679590411395866e-03   9.905512137132195e-04   3.003232094180299e+00 -2.02043830e-01   1.05596040e-01  -1.78009000e-03
C     1.226819485320731e+00   7.087119515901625e-01   3.002939916990433e+00  1.05226400e-02  -9.37012000e-03  -2.57330800e-02
C     2.450994408574885e+00  -3.602334138499480e-03   3.002773304984823e+00  9.38254600e-02   3.27127000e-01  -4.25350100e-02
C     3.679556563605569e+00   7.056142095938210e-01   2.998505089640448e+00 -1.86981620e-01   1.78840890e-01   2.60772200e-02
C     4.902263183135880e+00   2.846111029754950e-03   2.999239637150065e+00  1.56941600e-02  -2.03603610e-01   2.83975700e-02
C     6.126323196624298e+00   7.034068987868183e-01   3.001844136232073e+00  1.51117530e-01   3.94354270e-01  -2.66013600e-02
C     7.354300926297580e+00  -7.112440864092903e-04   3.004666494989429e+00  1.29873100e-02   2.98025600e-02  -2.53537400e-02
C     8.578842078156098e+00   7.071449937284846e-01   3.002293888561556e+00  1.60342700e-01   8.30425300e-02   2.12669500e-02
C     1.228430658615678e+00   2.125848208913937e+00   2.997038381356225e+00 -2.82822760e-01  -1.75971980e-01   1.98154600e-02
C     2.449502522119773e+00   2.828917968883240e+00   2.995815212568040e+00  2.48150470e-01   2.48850690e-01   5.51130900e-02
C     3.679548783789822e+00   2.123464662576712e+00   2.999850275195706e+00 -1.84742700e-01  -9.53410800e-02  -4.78342000e-03
C     4.902376350961814e+00   2.831818750640494e+00   3.004040389646323e+00  1.03034810e-01  -9.18787400e-02  -6.78896600e-02
C     6.128011058914147e+00   2.125129333611625e+00   2.997877663484161e+00  1.24148340e-01  -1.96061850e-01   5.90869900e-02
C     7.358451232881568e+00   2.832455556158685e+00   2.999358349515294e+00 -2.42742920e-01  -9.07005100e-02   2.55137000e-03
C     8.581141814656934e+00   2.125331312130803e+00   3.001339048464225e+00  8.31645000e-03  -2.07857640e-01  -1.69623900e-02
C     9.804767986829473e+00   2.829704654821574e+00   2.998721872427965e+00  2.18360430e-01   1.98842560e-01   1.67092000e-03
C     2.451333250723289e+00   4.248687660845997e+00   3.002749835836528e+00  5.01663200e-02  -1.22717750e-01  -3.71954900e-02
C     3.680728957530606e+00   4.952381770405646e+00   3.002657929594535e+00 -1.35260840e-01   2.31478050e-01  -1.51683300e-02
C     4.905113378040847e+00   4.244521197704377e+00   3.000373723150494e+00 -3.93627000e-02   1.31505470e-01   2.63725300e-02
C     6.129286758899504e+00   4.953079751650325e+00   2.998843707059685e+00  9.55247100e-02   1.77057840e-01   2.92548000e-03
C     7.357716538075048e+00   4.245136939011285e+00   2.999833207595167e+00 -1.19069170e-01   1.27322390e-01  -1.62646300e-02
C     8.581886028924671e+00   4.952235986403885e+00   2.999631465942426e+00 -5.62074000e-03   3.37776200e-01   1.48479700e-02
C     9.805557355349269e+00   4.249883873375571e+00   2.999126447058717e+00  9.52192600e-02  -2.73143500e-01   6.28094000e-03
C     1.103262153770681e+01   4.956133551751844e+00   3.001468068681314e+00  9.88551000e-03  -1.30262700e-02  -3.05368100e-02
C     3.679976803592195e+00   6.374685902849831e+00   3.001354004931249e+00 -1.45500650e-01  -3.28416230e-01   2.27747900e-02
C     4.900272709637394e+00   7.080627401578234e+00   3.002067697492456e+00  3.08019450e-01   5.81609000e-03  -9.96286000e-03
C     6.128449696127864e+00   6.373817944361559e+00   2.998769267513554e+00  5.39210100e-02  -1.93891390e-01   6.19120000e-03
C     7.357415467775159e+00   7.081791690042948e+00   2.998473862627709e+00 -1.02625290e-01  -2.85889400e-01   4.88785300e-02
C     8.585376182662108e+00   6.374288291671226e+00   3.002701754614311e+00 -2.69503690e-01  -2.59263610e-01  -3.42892100e-02
C     9.804792659432179e+00   7.080710422858385e+00   3.002815937727263e+00  2.20525930e-01  -4.70857200e-02  -4.44918100e-02
C     1.103073388038978e+01   6.369656586933975e+00   2.997060005708021e+00  1.91160940e-01   1.85337330e-01   8.60111300e-02
C     1.226260894909415e+01   7.080043584766254e+00   3.002978677045138e+00 -2.54646510e-01  -1.68530520e-01  -2.87142500e-02
