32
Lattice="9.836 0 0 4.918 8.51822587162374 0 0 0 30 " PBC="1 1 1" Properties=species:S:1:pos:R:3:force:R:3 Energy="-257.96310487"
C     4.682965900209609e-04  -4.981360059876237e-03   2.997997601261250e+00 -2.17540590e-01   3.29416190e-01  -5.09334100e-02
C     1.224234331322844e+00   6.997949172162825e-01   3.004782047145037e+00  1.60002850e-01   8.65113350e-01  -1.16990960e-01
C     2.451310522194326e+00  -9.606505817350961e-03   2.999348079095893e+00  3.60606070e-01   7.95952810e-01   1.13584560e-01
C     3.691822089504964e+00   7.112512173598831e-01   3.000143544955232e+00 -5.91659690e-01  -6.84771000e-02  -7.06714900e-02
C     4.911913712755096e+00  -3.851178867620697e-03   2.997255098958714e+00  2.86545840e-01   2.22607170e-01   4.51191000e-02
C     6.137682461444830e+00   7.169673748866122e-01   2.991207981742275e+00  4.13052700e-01  -5.67594130e-01   1.99394040e-01
C     7.380265653446610e+00   8.189230146183415e-03   3.010246954824920e+00 -2.16417770e-01  -8.65440900e-02  -2.88440920e-01
C     8.609899128867688e+00   7.166792924687595e-01   2.986326849637321e+00 -1.10893940e-01  -3.95296760e-01   2.67133740e-01
C     1.217602193701823e+00   2.140469931043192e+00   2.991894472091654e+00  7.72126230e-01  -7.59745560e-01   1.09463280e-01
C     2.467113063144823e+00   2.846943361716193e+00   3.000547668914193e+00 -9.13974060e-01  -5.65289680e-01  -1.33030780e-01
C     3.684015748392219e+00   2.136178844456951e+00   2.994433639799788e+00  6.18741540e-01  -2.65970990e-01   1.00657540e-01
C     4.924782781584463e+00   2.849789417156296e+00   3.001901948580821e+00 -3.61988550e-01  -8.11010620e-01  -3.99651000e-03
C     6.147042082096064e+00   2.125101740511862e+00   3.003075773835731e+00  2.28199040e-01   4.68982010e-01  -1.59421740e-01
C     7.386976416111895e+00   2.832266685078330e+00   2.989060090379305e+00 -6.21703430e-01   4.09760150e-01   2.02431450e-01
C     8.610762653119986e+00   2.126735450826843e+00   3.000497870772825e+00 -1.64394050e-01   1.67478090e-01  -2.10851280e-01
C     9.830294757530176e+00   2.841358806654983e+00   2.990512612483876e+00  2.67402930e-01   7.22096300e-02   4.71301500e-02
C     2.455988832783176e+00   4.251479932473696e+00   2.991295275286796e+00  3.12382200e-02   8.61136670e-01   1.27717370e-01
C     3.678529093508822e+00   4.974452642535252e+00   2.994751363214226e+00  5.36570850e-01  -8.75230850e-01   4.41505000e-02
C     4.923921678020123e+00   4.249067156112254e+00   3.005810569503472e+00 -5.84266290e-01   1.09577594e+00  -1.48392680e-01
C     6.144692216952496e+00   4.971661452482726e+00   2.993473076086273e+00 -5.28575100e-02  -1.58056120e-01   1.87665750e-01
C     7.368671416700389e+00   4.264586235246196e+00   2.998389793811137e+00  2.81847250e-01  -4.92949220e-01  -9.01664500e-02
C     8.594827365769584e+00   4.974613085281510e+00   2.997549247490239e+00  5.32084830e-01  -3.85241430e-01  -8.80084700e-02
C     9.835227097866889e+00   4.254918788653697e+00   2.991531181199803e+00 -3.54735270e-01   6.22630500e-01   9.03666900e-02
C     1.106255250529735e+01   4.975109858629290e+00   3.002709014278338e+00 -4.55856300e-02  -5.73533050e-01  -2.37768580e-01
C     3.679218604013309e+00   6.379509376494760e+00   2.997312698870697e+00  6.19638420e-01   7.80248440e-01  -4.53219600e-02
C     4.917393090489870e+00   7.107120988010174e+00   2.994738104071374e+00 -2.36861440e-01  -8.96528500e-01   1.34620050e-01
C     6.145961130768518e+00   6.388873024927395e+00   3.009406929763542e+00 -2.67661510e-01   2.17498190e-01  -1.42884020e-01
C     7.367807223543242e+00   7.104073252419115e+00   3.008423494423500e+00  5.08016110e-01  -6.43924750e-01  -1.23127650e-01
C     8.605481882095843e+00   6.385352304452431e+00   2.989100646275075e+00 -5.97155900e-02   4.70137080e-01   2.56733000e-01
C     9.844463504395380e+00   7.095672512918578e+00   3.006618475241626e+00 -7.32553230e-01   1.13340700e-02  -2.60913260e-01
C     1.106256615176868e+01   6.389152783465127e+00   2.985634598598798e+00  5.72343930e-01   1.93181220e-01   2.67989290e-01
C     1.230346626911784e+01   7.102969751248601e+00   2.998926613482086e+00 -6.55608280e-01  -3.80686700e-02  -2.32363800e-02
