32
Lattice="9.936 0 0 4.968 8.60482841200218 0 0 0 30 " PBC="1 1 1" Properties=species:S:1:pos:R:3:force:R:3 Energy="-257.85948671"
C    -1.162543612250183e-02  -5.004003103146692e-04   3.008485793608618e+00  6.24790640e-01   4.06081990e-01  -2.85784670e-01
C     1.240475569959658e+00   7.220774338771928e-01   2.990904176238947e+00 -1.77636030e-01  -6.23368100e-01   1.09071590e-01
C     2.486080780424603e+00  -5.686166674676614e-03   2.994413804759100e+00 -1.09934720e-01   4.34896850e-01   3.51771300e-02
C     3.725492515741074e+00   7.210414376107360e-01   2.998485982805853e+00 -2.33565350e-01  -3.46806830e-01   9.24790300e-02
C     4.964249597836583e+00  -3.808761978619556e-03   3.006406295415115e+00  1.89368800e-01   2.45231770e-01  -1.42580320e-01
C     6.206319298808173e+00   7.117744117888234e-01   2.994636928670376e+00  1.01188100e-02   1.56255870e-01   1.13948170e-01
C     7.446845804452412e+00  -1.189588595376184e-02   2.995235130420175e+00 -1.62261300e-02   3.67967020e-01   1.23710500e-02
C     8.686023587529098e+00   7.170488651136582e-01   2.991404971804436e+00 -8.31563100e-02  -2.83716040e-01   1.27083000e-01
C     1.233648808417773e+00   2.144759769225733e+00   2.990340580950660e+00  3.51528930e-01   5.07328240e-01   1.43170590e-01
C     2.476949891941624e+00   2.867391242148373e+00   3.005509527725188e+00  4.85275700e-02   5.45332900e-02  -5.19624700e-02
C     3.715847376588913e+00   2.150758723994804e+00   3.011828926424991e+00  2.61489510e-01  -2.55737300e-02  -1.50220470e-01
C     4.965482220324423e+00   2.858421077660829e+00   3.001857211129889e+00 -3.17457380e-01   5.19476480e-01   9.04054300e-02
C     6.201293077679531e+00   2.153883374734971e+00   3.002665133308156e+00  2.36596790e-01  -5.09436280e-01  -3.62276800e-02
C     7.444139870139374e+00   2.868375645252258e+00   3.005139011257135e+00  9.78114200e-02  -2.77480850e-01  -1.20592510e-01
C     8.678847594500425e+00   2.141483871562768e+00   2.995399478224363e+00  7.17684600e-01   7.65549080e-01   7.65285300e-02
C     9.943705249629677e+00   2.880100807594106e+00   3.004331049452861e+00 -9.25036980e-01  -8.53226780e-01  -1.88342990e-01
C     2.489419032619920e+00   4.302581012054109e+00   3.002349630141996e+00 -1.90685980e-01   9.85369400e-02  -1.08941940e-01
C     3.735135877763545e+00   5.014616840795052e+00   2.987316893118394e+00 -1.93464070e-01   1.14639080e-01   2.23980520e-01
C     4.964360610004304e+00   4.298539190145912e+00   3.002588301965722e+00  5.75342460e-01  -1.19341870e-01  -6.24172500e-02
C     6.218794828472102e+00   5.021557598319942e+00   3.007806766385990e+00 -4.61194890e-01  -6.11341960e-01  -1.09343710e-01
C     7.454804604676447e+00   4.294355397210119e+00   2.996259720762418e+00  1.61669900e-02   4.28847270e-01   2.03305210e-01
C     8.692143591490282e+00   5.023909089602293e+00   3.006018584463724e+00  1.01297220e-01  -5.69318420e-01  -2.41214950e-01
C     9.940928712937176e+00   4.302007895668381e+00   2.991972720865756e+00  2.40855400e-02   5.03070360e-01   1.61379770e-01
C     1.118616688948872e+01   5.032772087530019e+00   2.993322598593323e+00 -3.32391570e-01  -1.00732041e+00   8.57111000e-03
C     3.738629526036001e+00   6.448718390960021e+00   3.000172026146812e+00 -3.61121940e-01   3.69246990e-01  -1.26577310e-01
C     4.976868809865873e+00   7.182803116990915e+00   2.988918134221785e+00 -1.75408270e-01  -9.29731610e-01   2.48449270e-01
C     6.217731810004382e+00   6.439879471826667e+00   3.002730081254184e+00 -2.48972900e-02   9.99133230e-01  -3.47162600e-02
C     7.463173592233305e+00   7.168718970915713e+00   3.004458873745209e+00 -7.52662490e-01  -1.34499280e-01  -1.44912010e-01
C     8.681708395356621e+00   6.448011052497503e+00   2.987451348744845e+00  1.08384911e+00   3.80373530e-01   2.34461270e-01
C     9.943349434208582e+00   7.174040183255293e+00   2.996684217882253e+00 -9.19582690e-01  -4.33134680e-01  -4.85587100e-02
C     1.116566872320462e+01   6.445855318987507e+00   2.993254168086177e+00  8.49845770e-01   7.47737180e-01   6.73574700e-02
C     1.241980355912275e+01   7.166673815099410e+00   3.003913285474783e+00  8.59179300e-02  -3.74608330e-01  -9.53459100e-02
