32
Lattice="10.084 0 0 5.042 8.73300017176228 0 0 0 30 " PBC="1 1 1" Properties=species:S:1:pos:R:3:force:R:3 Energy="-257.0359917"
C    -3.146998754789883e-04  -3.814086253243678e-04   3.001080610203676e+00 -3.92226000e-03   2.04010000e-04  -2.50229000e-03
C     1.259312956452093e+00   7.264957954023128e-01   3.000715743655165e+00  4.92373300e-02   4.93080400e-02  -1.05194900e-02
C     2.519844778589750e+00  -5.547724943056709e-05   2.999651405421144e+00  5.31936000e-02  -7.27873000e-03   1.73036600e-02
C     3.782742480381382e+00   7.270167637880186e-01   3.001022008649417e+00 -9.74215600e-02   3.20458000e-02  -2.15602900e-02
C     5.041891688103766e+00   6.955223232013913e-04   2.998799982572976e+00  2.52578600e-02  -6.02399800e-02   1.61064700e-02
C     6.302264695890118e+00   7.266400689567096e-01   2.999490047206424e+00  3.91784600e-02   5.59243400e-02  -2.15660000e-04
C     7.564241643634339e+00   6.432391160927154e-04   3.000816500064936e+00 -5.41001600e-02  -3.83864200e-02  -1.08613400e-02
C     8.823761304730949e+00   7.288718941827407e-01   3.001233557500687e+00  6.34963000e-03  -6.81918400e-02  -1.05827800e-02
C     1.261247183992781e+00   2.182450245682863e+00   2.999332866824124e+00 -7.91572900e-02   2.03286200e-02   5.94555000e-03
C     2.520310882988503e+00   2.910304814185612e+00   2.999226739834600e+00  4.15157100e-02   2.02612300e-02   1.25369400e-02
C     3.781639369931380e+00   2.182747604201195e+00   3.000680549350425e+00 -1.70629200e-02  -6.96544000e-03  -1.21081900e-02
C     5.041390327621061e+00   2.910094646908689e+00   2.999135795707400e+00  3.10190700e-02   3.16235200e-02   1.03489800e-02
C     6.301785161413820e+00   2.182395236919693e+00   2.999087698829469e+00  5.17913100e-02   2.53258700e-02   5.47476000e-03
C     7.564084092892068e+00   2.911133486153933e+00   2.999585307561276e+00 -5.51344000e-02  -1.40646800e-02  -3.97806000e-03
C     8.824245070575772e+00   2.182672965650530e+00   2.999268610584241e+00 -3.32495000e-02   5.74086300e-02   1.17365900e-02
C     1.008316275369291e+01   2.911328992315353e+00   2.999173192392516e+00  8.89116300e-02  -4.00798200e-02  -2.53010000e-04
C     2.521155993462445e+00   4.366710288012530e+00   3.000105706846687e+00 -2.13321700e-02  -2.53158000e-03  -1.35089900e-02
C     3.781942106783646e+00   5.094769434836887e+00   2.999831065059496e+00 -1.39110200e-02  -1.09359500e-02   9.57116000e-03
C     5.042715497981990e+00   4.366607391344356e+00   2.999766785386478e+00 -5.22803000e-02  -2.10393800e-02   9.20100000e-05
C     6.301303696096732e+00   5.094036039951183e+00   3.000466453240474e+00  1.05376470e-01   1.62675700e-02  -1.32601600e-02
C     7.564232855419660e+00   4.367203528597738e+00   2.999788321224908e+00 -6.28649700e-02  -4.53796200e-02  -3.01100000e-05
C     8.824083909168269e+00   5.093888936755404e+00   2.999218876724817e+00 -9.59467000e-03   4.32178900e-02   1.13412000e-03
C     1.008451524824406e+01   4.366084829725115e+00   2.999226045529086e+00 -3.30196000e-02   1.75414300e-02  -3.56476000e-03
C     1.134346629757828e+01   5.094690687960741e+00   2.999223200796305e+00  7.53449000e-02  -2.08574900e-02   1.23961400e-02
C     3.781543721526353e+00   6.550791125787413e+00   3.001098706755814e+00  2.55589100e-02  -5.83159900e-02  -1.76321000e-02
C     5.042767804523673e+00   7.277303752338227e+00   3.000353016699059e+00 -2.24327000e-02   2.05024200e-02   4.64809000e-03
C     6.303729434194035e+00   6.550108570990844e+00   2.999433279947346e+00 -8.79940100e-02  -3.73909900e-02   1.40402800e-02
C     7.561924433535831e+00   7.277655784649208e+00   3.000118690441143e+00  6.45050900e-02   1.96253000e-03  -1.46993500e-02
C     8.822858731268068e+00   6.549892988813766e+00   2.998911211656382e+00  5.40562100e-02   8.57022000e-03   9.33615000e-03
C     1.008470200104571e+01   7.278250115766560e+00   2.999197560370489e+00 -4.82752600e-02  -3.07044800e-02   2.04821000e-03
C     1.134516293593400e+01   6.550113032764359e+00   3.000591129475232e+00 -4.11732400e-02  -5.69010000e-03  -2.19617300e-02
C     1.260526087394046e+01   7.276860822065669e+00   2.999527977354015e+00  2.16298600e-02   6.75603500e-02   2.45192000e-02
