32
Lattice="9.892 0 0 4.946 8.56672329423567 0 0 0 30 " PBC="1 1 1" Properties=species:S:1:pos:R:3:force:R:3 Energy="-257.92352297"
C    -6.281934746671679e-03  -5.264140778324538e-03   3.007357412203505e+00 -6.39973100e-02   5.42954530e-01  -2.27061580e-01
C     1.224447967631824e+00   7.092104247153900e-01   3.003906681896366e+00  7.49056140e-01   1.49335070e-01   2.00954500e-02
C     2.472371420309937e+00  -2.434312885794717e-03   3.005913841127573e+00 -2.16212160e-01   2.30382940e-01  -4.67806800e-02
C     3.708044016180515e+00   7.261594409748409e-01   3.002083195729838e+00  2.97976120e-01  -1.26386506e+00   1.14644880e-01
C     4.954645953157043e+00  -4.999776171963016e-03   3.003959830755905e+00 -3.36866990e-01   6.97922150e-01  -6.05750200e-02
C     6.191887800360997e+00   7.259057004208640e-01   3.006843257015535e+00 -7.69428450e-01  -1.12185638e+00  -9.50812000e-02
C     7.403962815422304e+00  -1.415362999215634e-02   2.989792604890792e+00  1.15668646e+00   1.21056435e+00   6.48745700e-02
C     8.658810532517878e+00   7.177086695063667e-01   2.990844006151072e+00 -5.39775910e-01  -3.69261930e-01   1.06248030e-01
C     1.242632975897738e+00   2.140183665625055e+00   2.999752607962041e+00 -3.16692350e-01  -9.39265000e-03   5.74075400e-02
C     2.482378369271149e+00   2.860899482705819e+00   2.999407091067559e+00 -3.51033270e-01  -2.89806910e-01   4.22254100e-02
C     3.715204298761261e+00   2.132774119716720e+00   3.011537862013055e+00 -2.33942140e-01   9.30627210e-01  -1.72592750e-01
C     4.941585584982461e+00   2.857313154436397e+00   2.997339805342656e+00  4.52659780e-01  -2.20659000e-03   7.02243800e-02
C     6.178898390986842e+00   2.134246571918614e+00   3.007087545915337e+00  2.00049190e-01   7.53278570e-01  -5.61271400e-02
C     7.417021100282887e+00   2.845736655058694e+00   3.003000429772848e+00  1.07920750e-01   8.83676730e-01   1.62402400e-02
C     8.667278623134843e+00   2.152093564059925e+00   2.998704057839329e+00 -1.05428676e+00  -1.01506473e+00   1.77404900e-02
C     9.882216696244395e+00   2.842493465276611e+00   3.006606405917047e+00  1.14763337e+00   1.04156612e+00  -6.82865600e-02
C     2.479617578806532e+00   4.287700569028702e+00   2.999327158100185e+00 -5.19295190e-01  -1.06432280e-01   1.46108340e-01
C     3.709140809950194e+00   4.992576010684815e+00   3.010671183853037e+00  3.70793770e-01   5.74321310e-01  -1.44861910e-01
C     4.956975623139258e+00   4.292782840997618e+00   2.987628248520386e+00 -8.42109470e-01  -8.64989820e-01   1.93212460e-01
C     6.180054981577097e+00   4.989865030922565e+00   2.997359378915428e+00  2.81089800e-01   7.42271620e-01  -5.68023900e-02
C     7.414986737064813e+00   4.291429959237099e+00   3.005082715789584e+00  2.53986750e-01  -7.61449640e-01  -1.45435800e-01
C     8.657677507814766e+00   5.006559694079154e+00   2.987410471368495e+00 -2.26980810e-01  -6.44173170e-01   2.92950110e-01
C     9.887286506121882e+00   4.282445342630331e+00   3.006339119436078e+00  5.97290600e-02  -1.90521290e-01  -6.67518600e-02
C     1.111738413838146e+01   5.002991573107032e+00   3.011457220197540e+00  4.98983100e-01  -5.18436400e-01  -9.50552700e-02
C     3.714934185802047e+00   6.426941302045837e+00   3.014446226381805e+00 -4.46318070e-01  -3.52871900e-02  -2.49178750e-01
C     4.941598346483479e+00   7.146683480805887e+00   2.986146070510481e+00  1.35849630e-01  -6.61692500e-01   2.64567480e-01
C     6.174270767117783e+00   6.423630426783197e+00   2.991118973481038e+00  2.07882080e-01   9.60966600e-02   3.68173200e-02
C     7.411897114441650e+00   7.137083022822346e+00   3.001817956791661e+00  3.58504600e-01  -1.55963730e-01   1.88316300e-02
C     8.659006960113468e+00   6.417376501854084e+00   3.008614147489299e+00 -2.29802530e-01   7.96324920e-01  -2.45895000e-01
C     9.898648835693210e+00   7.139172872682114e+00   2.991866328013556e+00 -4.67947600e-01  -4.12880700e-02   1.99829190e-01
C     1.112056627574303e+01   6.421749392475908e+00   3.003424035822321e+00  5.43893470e-01   2.40200900e-01  -6.06654700e-02
C     1.236538564508950e+01   7.144452085770478e+00   2.995136057666496e+00 -2.08005050e-01  -8.37834700e-01   1.29133850e-01
