76
Lattice="10.7446858958278 0 0 5.37234294791388 9.3051709414712 0 0 0 30 " PBC="1 1 1" Properties=species:S:1:pos:R:3:force:R:3 Energy="-606.41904769"
C     8.936548667376200e-02   4.837125620082080e-02  -2.471114999999990e-01  3.38978302e+00   6.16876770e-01  -6.96689350e-01
C     1.265507842801407e+01   8.474766039954144e+00  -6.288216000000020e-01 -2.66022187e+00   5.37294130e-01   4.12801270e-01
C     1.407101695027956e+01   8.280335888938485e+00  -6.377643000000006e-01 -1.99122820e+00   4.11012015e+00   5.44952900e-02
C     1.457409942231670e+01   7.034075827654115e+00  -4.573898999999990e-01  1.52287549e+00   3.96396400e-02   1.01552063e+00
C     8.383782982631180e+00   9.083304306364331e+00  -9.000599999999892e-02  9.33738150e-01  -3.36336959e+00  -9.78215320e-01
C     9.779862531735141e+00   8.906884872013300e+00  -2.245553999999998e-01  4.92875150e-01   6.31475870e-01  -5.15531830e-01
C     1.025803001121364e+01   7.582848656047452e+00  -2.754243000000010e-01  1.74143708e+00  -7.63821410e-01   5.57236960e-01
C     1.168737000413820e+01   7.384182698168195e+00  -3.074112000000007e-01  1.79494208e+00   1.25049403e+00  -7.89175190e-01
C     1.227949943663559e+01   6.127504474447692e+00  -5.447129999999945e-02 -8.68721350e-01  -1.02677746e+00  -5.30059060e-01
C     1.369926886921187e+01   5.980882988997821e+00  -1.292430000000024e-01  6.37917030e-01  -2.97307249e+00  -6.20009800e-02
C     6.090743179066182e+00   8.113284621534715e+00  -3.686618999999993e-01  1.47115905e+00  -8.40464300e-01   3.30548950e-01
C     7.542981763069955e+00   7.931184194221395e+00  -3.058244999999999e-01 -3.29957737e+00   4.71504934e+00   5.44768240e-01
C     8.005308405849515e+00   6.704969611331101e+00  -3.316485000000000e-01  2.82511285e+00  -5.61324174e+00   5.73947430e-01
C     9.405728485716498e+00   6.445304256716640e+00  -1.500203999999989e-01  9.47486370e-01  -6.49062340e-01  -1.51986550e-01
C     9.974518365225343e+00   5.087283881547143e+00   4.696500000000000e-02 -6.94258800e-01   4.27071210e-01  -8.47554730e-01
C     1.138628805680850e+01   4.961354676923388e+00   8.494710000000000e-02  1.43595424e+00   4.74471680e-01   7.29617520e-01
C     1.198888039581817e+01   3.677886586911495e+00   2.514732000000000e-01  6.73643420e-01  -2.71777570e+00  -1.53812565e+00
C     5.281649796213005e+00   6.999289934922274e+00  -3.835958999999995e-01 -2.15798175e+00  -3.53728461e+00  -8.25705900e-02
C     5.760146976378347e+00   5.671226534025304e+00  -2.721663000000021e-01  1.88639285e+00  -1.76106604e+00  -3.77282800e-02
C     7.211551504139132e+00   5.523175867370759e+00  -3.342795000000010e-01 -2.40231212e+00   1.36284990e-01   1.00024085e+00
C     7.762107597952246e+00   4.236452363305508e+00  -1.501748999999997e-01 -1.15181044e+00  -3.07903592e+00  -5.31442090e-01
C     9.093395670334047e+00   3.894336401387861e+00  -1.933500000000166e-02  3.53304742e+00   1.10977325e+00  -2.85104910e-01
C     9.682674645109032e+00   2.512396805161966e+00  -1.391852999999976e-01  4.64223455e+00   6.75182359e+00   2.12523841e+00
C     1.122457967443862e+01   2.460645817824028e+00   1.053696000000000e-01 -3.44046132e+00  -1.13855976e+00  -1.06824079e+00
C     3.554422895757968e+00   4.618260927643365e+00   1.005660000000000e-02 -3.04954451e+00  -5.93592810e-01  -4.48667900e-02
C     4.911749693673258e+00   4.437900195088987e+00  -8.826239999999785e-02  2.32229227e+00   2.95479029e+00  -8.61333110e-01
C     5.527988750797657e+00   3.162917118250443e+00  -1.773267000000018e-01  3.03800190e-01   7.59472050e-01   5.46604330e-01
C     6.945654911109012e+00   3.028440741911460e+00  -2.056524000000017e-01 -2.69669450e-01  -1.16365157e+00  -1.09726987e+00
C     7.525948373682973e+00   1.657017756830244e+00  -4.589822999999988e-01 -1.54275641e+00   1.99840536e+00  -3.29561890e-01
C     8.917931296393840e+00   1.481354088462958e+00  -4.396185000000017e-01 -1.49113471e+00  -2.36581239e+00  -3.56881800e-01
C     9.519538079089330e+00   2.168427718451618e-01  -5.377022999999994e-01 -2.65177929e+00  -2.47354990e+00  -8.58534000e-03
C     2.673797464930124e+00   3.385141535708754e+00   1.069692000000000e-01  5.52125400e-02   4.88023231e+00   7.58376890e-01
C     3.275750978639607e+00   2.134806088707791e+00   5.824200000000000e-02 -1.78547980e-01   5.07029490e-01  -4.70250900e-02
C     4.680362775369899e+00   2.062092598379640e+00  -1.306016999999997e-01  1.10282844e+00  -3.05086244e+00  -6.43179490e-01
C     5.291898346241572e+00   7.428425901384904e-01  -3.634674000000011e-01 -8.91264230e-01  -6.22284320e-01   6.07439000e-02
C     6.695512552609478e+00   5.247424105442065e-01  -6.929540999999979e-01 -5.70596860e-01   4.38941100e-02   2.25035976e+00
C     1.013717383793387e+00   1.098506694841358e+00  -3.812250000000006e-02  2.10155960e-01   4.05436401e+00   9.69369310e-01
C     2.459064702324906e+00   9.861821153904304e-01   4.044720000000000e-02 -2.60931201e+00   1.70593851e+00  -1.19342530e-01
C     1.601470382159824e+01   9.266416671017378e+00   3.446307600000000e+00 -1.23087562e+00  -5.68827170e-01   1.27520664e+00
C     1.172535918422339e+01   8.759516832698912e+00   3.773530800000001e+00  2.61410100e-01   2.60105919e+00  -1.09614017e+00
C     1.312828836314174e+01   8.876423371372406e+00   3.660412800000000e+00  1.38716638e+00   1.63971163e+00  -5.62184500e-01
C     1.398015827460628e+01   7.756915370978016e+00   3.624496200000000e+00  6.95057000e-02   8.94654630e-01   3.27677610e-01
C     7.524724285341816e+00   8.236961788687571e+00   3.454522800000000e+00  1.17299480e+00   2.54543328e+00   2.42927874e+00
C     8.971272644863237e+00   8.411397825852744e+00   3.635316600000000e+00 -2.15384559e+00  -1.36167510e-01  -6.18971240e-01
C     9.778973570147205e+00   7.264424403756720e+00   3.714218100000000e+00 -6.15281990e-01  -4.86872200e-01  -7.19097470e-01
C     1.116104564830734e+01   7.487218297676558e+00   3.646144800000000e+00  6.65520000e-02  -2.06158245e+00   1.22278592e+00
C     1.198535887873787e+01   6.296596458890312e+00   3.630012600000000e+00 -6.18205510e-01   1.12961635e+00  -5.28959950e-01
C     1.334885565136094e+01   6.500632803125880e+00   3.586643700000000e+00  3.59326101e+00  -2.11194228e+00   4.71650560e-01
C     4.667295195825178e+00   7.958491893275593e+00   3.704745600000000e+00  3.94955300e-01   4.79542250e-01  -1.66863885e+00
C     5.521027644867053e+00   6.831012059885196e+00   3.752053200000000e+00  8.84537460e-01   5.30880120e-01  -1.47831270e-01
C     6.975770600260397e+00   6.982776885520440e+00   3.761606100000000e+00 -2.35279555e+00   1.74598600e-02  -1.33736979e+00
C     7.746349978845602e+00   5.823938719113952e+00   3.741362100000000e+00  2.62907671e+00  -2.45784998e+00  -3.77832760e-01
C     9.212875449350028e+00   5.926477143338992e+00   3.659913300000000e+00 -9.92785770e-01   2.24750904e+00   6.54076390e-01
C     1.007669855526117e+01   4.821027860459299e+00   3.622103400000000e+00 -1.94900698e+00  -7.47308610e-01  -1.23741903e+00
C     1.146404283589872e+01   4.977459322372664e+00   3.540405900000000e+00  3.83844080e-01   9.21189750e-01   3.31654430e-01
C     1.232422365446005e+01   3.864223193295252e+00   3.442929300000000e+00 -4.83602570e-01   1.06672260e-01   5.08615970e-01
C     3.533996764351202e+00   5.364813768590762e+00   3.618330300000000e+00 -6.08828440e-01  -7.92878700e-01   4.04333920e-01
C     4.959701991206080e+00   5.548516732443371e+00   3.685285500000000e+00 -9.23656790e-01  -1.00408203e+00   1.12353583e+00
C     5.768737889989692e+00   4.378231530849912e+00   3.831054600000000e+00 -1.71297320e-01  -1.73667075e+00  -1.73840466e+00
C     7.204966623385317e+00   4.464707834256870e+00   3.709482300000000e+00 -8.89744580e-01   1.87496411e+00   6.45681650e-01
C     8.081917425358789e+00   3.336734361548105e+00   3.573662400000000e+00 -1.63894349e+00   9.96421630e-01   5.49353380e-01
C     9.433717156847120e+00   3.548748307985663e+00   3.459339300000000e+00  3.14646307e+00  -8.44961720e-01   9.90203830e-01
C     1.031154553104148e+01   2.392107371593235e+00   3.447834600000000e+00 -1.67828308e+00   1.43122448e+00  -1.39123299e+00
C     1.167782114805544e+01   2.606152450743576e+00   3.297375300000000e+00  2.27293382e+00  -1.53511326e+00   1.57389067e+00
C     2.998802938927042e+00   4.002021329556396e+00   3.654616500000000e+00 -2.34504279e+00   2.75517287e+00  -1.45835343e+00
C     3.741329285713084e+00   2.861768846326915e+00   3.636114300000000e+00  2.27085398e+00  -2.25468252e+00   6.81057000e-03
C     5.144974759116959e+00   3.032523385661385e+00   3.712006500000000e+00  2.13799113e+00   2.59961155e+00   6.55525610e-01
C     6.089283137422660e+00   1.984919418775074e+00   3.727162800000000e+00  1.01895055e+00  -9.93709710e-01  -1.12994300e-01
C     7.546121521460223e+00   2.040984655567634e+00   3.660430200000000e+00 -1.01445329e+00   3.19553420e-01  -9.30032980e-01
C     8.393275106772387e+00   8.830328066931800e-01   3.495179700000000e+00 -3.83871938e+00   1.55826030e-01   1.55242071e+00
C     9.742485530129105e+00   1.094141080843148e+00   3.422549100000000e+00  2.82253061e+00  -1.01183987e+00  -4.00270700e-02
C     1.779803710799218e+00   1.428235240996840e+00   3.400641600000000e+00  1.82728248e+00   1.71576046e+00  -2.27695910e-01
C     3.188725738278294e+00   1.517098972111874e+00   3.529569900000000e+00  1.06881572e+00   2.02691000e+00   3.37714520e-01
C     4.105020947569523e+00   4.235327647293990e-01   3.664187100000000e+00  9.61749800e-01   1.50187826e+00  -3.68779180e-01
C     5.564735361681938e+00   7.230361615858628e-01   3.737943300000000e+00 -2.49084913e+00  -5.22517949e+00   1.40316820e-01
C     1.319499701416904e+00   1.625578934085522e-01   3.475821000000000e+00 -2.33751162e+00  -4.51560257e+00  -9.45627960e-01
