76
Lattice="10.7446858958278 0 0 5.37234294791388 9.3051709414712 0 0 0 30 " PBC="1 1 1" Properties=species:S:1:pos:R:3:force:R:3 Energy="-604.22145213"
C     1.835885383960550e-01   5.052279782556760e-02   2.857722000000000e-01  4.55613492e+00   2.38964910e+00  -1.66611817e+00
C     1.267112529406514e+01   8.559963254563691e+00   5.912993999999999e-01 -1.84407510e+00  -3.45768411e+00  -2.15990215e+00
C     1.408614998079484e+01   8.326360381028238e+00   5.949933000000001e-01 -9.89033880e-01   3.95589094e+00  -7.10234300e-02
C     1.455606296277753e+01   7.111400681545001e+00   2.211807000000000e-01  3.17892225e+00  -2.32915936e+00  -9.85238090e-01
C     8.395072800170315e+00   9.134818384050138e+00  -3.581369999999851e-02  1.85205619e+00  -1.57941824e+00  -3.14506430e-01
C     9.823632782621964e+00   8.917914198076772e+00  -4.913039999999924e-02  3.03752770e-01   2.44351297e+00   9.77205170e-01
C     1.036899935431567e+01   7.608904344351674e+00  -4.817609999999917e-02  1.67210288e+00   2.18830290e+00   8.47359900e-02
C     1.174331876553495e+01   7.332726963904184e+00   9.342990000000000e-02  2.97035387e+00   1.89985878e+00   1.36309271e+00
C     1.231342691055686e+01   6.017970236606542e+00  -1.632399000000007e-01  5.28291450e-01   2.31938441e+00  -7.30171890e-01
C     1.377792797479087e+01   5.944098996910036e+00  -1.454646000000004e-01 -1.05942281e+00   3.59803170e-01  -5.10418470e-01
C     6.166840858973476e+00   8.121322521244398e+00   1.765410000000000e-01 -5.67463600e-02  -1.45396512e+00  -1.91263200e-01
C     7.567649144342028e+00   7.970639886989473e+00  -1.285169999999880e-02 -8.17431630e-01   7.91829980e-01   8.76277260e-01
C     8.096240736344644e+00   6.670092434872338e+00  -1.358549999999781e-02  1.57880026e+00   1.91320760e-01  -7.15148640e-01
C     9.528484373186817e+00   6.576636694950125e+00  -1.663569000000003e-01 -2.30184308e+00  -5.95394311e+00  -6.18317250e-01
C     1.004736271541241e+01   5.207049061785114e+00  -3.920792999999989e-01  1.04795210e-01  -1.73051341e+00   2.47828200e-02
C     1.145646090201681e+01   4.963394277341727e+00  -6.237726000000023e-01  3.34444150e-01  -3.60806820e-01   2.11445388e+00
C     1.206379900761822e+01   3.604233367370114e+00  -6.503040000000020e-01 -1.21112842e+00   1.05931332e+00  -4.59495690e-01
C     5.309504803451030e+00   7.016599879163409e+00   8.957010000000000e-02 -2.43443373e+00  -1.03924590e+00   6.08051100e-01
C     5.825748924757944e+00   5.733019103531435e+00  -1.915530000000132e-02  1.94973429e+00  -3.25056479e+00  -1.55994918e+00
C     7.281690020075997e+00   5.528345634241604e+00   1.293150000000000e-02 -1.51545623e+00  -5.11760930e-01  -8.62390330e-01
C     7.829396085954138e+00   4.187672982307259e+00  -9.715410000000091e-02 -8.62474920e-01  -1.79967930e-01   1.19547372e+00
C     9.183925075107926e+00   3.975498800826114e+00  -2.390784000000004e-01  2.24161735e+00   1.04511395e+00  -2.72078430e-01
C     9.745216345774018e+00   2.601286125497085e+00  -1.262778000000004e-01  3.97749148e+00   4.94209746e+00  -1.75743691e+00
C     1.120291795787679e+01   2.488956986512396e+00  -4.462457999999998e-01 -4.12896810e-01  -2.14775591e+00   1.76857001e+00
C     3.620715888611224e+00   4.734141385117305e+00  -5.942900999999985e-01  5.20891140e-01  -2.99823673e+00   1.39704816e+00
C     5.058793889897098e+00   4.514757836346976e+00  -4.025727000000003e-01 -1.06348827e+00   1.49109710e+00   1.29044798e+00
C     5.603599374093104e+00   3.179782089217227e+00  -1.758048000000016e-01  1.80040535e+00   2.10622421e+00   1.03259269e+00
C     7.029944715610474e+00   3.009930523670775e+00   1.360041000000000e-01 -8.09971830e-01  -5.00234500e-02  -5.25095630e-01
C     7.631138902367404e+00   1.728589874890895e+00   5.075862000000000e-01 -2.31377825e+00  -1.20848760e-01  -1.25625694e+00
C     9.046568180244666e+00   1.576457774158647e+00   3.653964000000000e-01 -2.14131087e+00  -3.61467146e+00   1.36964247e+00
C     9.637416738735924e+00   2.336812230747670e-01   5.426985000000000e-01 -4.69461084e+00  -9.98037900e-02  -4.12553700e-02
C     2.742729621257567e+00   3.449522803770391e+00  -6.673004999999996e-01  7.28606380e-01   3.20229063e+00   5.61369750e-01
C     3.320359744814067e+00   2.216681636446885e+00  -3.606347999999997e-01  1.89341230e+00   5.61914960e-01   7.91384470e-01
C     4.779596557638227e+00   2.104062362232288e+00  -1.065300000000491e-03 -2.37941803e+00  -2.29352414e+00  -2.22554519e+00
C     5.349517476508336e+00   7.833794507180877e-01   1.068438000000000e-01 -1.07517285e+00  -1.79807314e+00   1.20264376e+00
C     6.705983410189317e+00   5.167971903370874e-01   5.448522000000000e-01  1.03448972e+00   3.17305329e+00  -1.28657218e+00
C     1.086098423124442e+00   1.160226218755609e+00  -1.535457000000022e-01 -3.43908189e+00   3.04428509e+00   3.44942220e-01
C     2.467666629239298e+00   1.128933021936099e+00  -1.470839999999995e-01  4.44394110e-01  -2.13919518e+00  -3.02136730e-01
C     1.593065389220950e+01   9.145186577718324e+00   4.053747000000000e+00  4.64039900e-01   2.16687429e+00  -1.91366499e+00
C     1.170394873214132e+01   8.657900178707191e+00   3.542847000000000e+00 -2.46765228e+00   2.72297123e+00   8.37031740e-01
C     1.306157498445264e+01   8.912750479567038e+00   3.772350000000000e+00  2.47322651e+00  -2.26041654e+00  -1.06007070e-01
C     1.393198028494612e+01   7.680975684833256e+00   3.681806100000000e+00 -2.23835310e-01   2.79706994e+00  -4.62846490e-01
C     7.380736253851943e+00   8.222435300229719e+00   3.509420700000000e+00  2.29823633e+00   7.70691610e-01  -7.14000750e-01
C     8.824188747024996e+00   8.422978111087573e+00   3.314402100000000e+00 -1.36966002e+00   8.86066050e-01   7.94068140e-01
C     9.670990014086499e+00   7.284470161305925e+00   3.200108100000000e+00  1.07811223e+00  -7.22851580e-01   1.24013885e+00
C     1.108492073062129e+01   7.386002975707478e+00   3.520485300000000e+00  4.49086120e-01   2.61473750e-01  -2.25758984e+00
C     1.197907253908178e+01   6.282939538656802e+00   3.320061900000000e+00 -3.02982600e+00  -7.68207730e-01   7.37791420e-01
C     1.333809044311088e+01   6.441561158654316e+00   3.346882200000000e+00  2.39785845e+00   5.69505280e-01   1.31759610e-01
C     4.616819240191593e+00   7.862993668332049e+00   3.652913700000000e+00 -3.29121390e-01   3.04305630e-01   1.08947530e+00
C     5.439057510604543e+00   6.751372451671274e+00   3.292491300000000e+00  4.25671680e-01  -9.03823280e-01  -3.23185300e-01
C     6.859730947329020e+00   6.882662830532110e+00   3.237477600000000e+00 -8.01889480e-01   2.64392977e+00   5.21548790e-01
C     7.726993373473323e+00   5.811428009836831e+00   2.980389600000000e+00  2.36765110e-01  -2.31203039e+00   1.42276365e+00
C     9.127744389666026e+00   5.952066642579119e+00   3.106630500000000e+00 -3.06485470e-01   6.21462000e-01  -3.76164550e-01
C     9.938256715739158e+00   4.783290739712128e+00   3.217305000000000e+00  1.52653261e+00   2.28126700e-02   2.16088988e+00
C     1.139064851896386e+01   4.974416252320156e+00   3.299343000000000e+00 -2.01420287e+00   1.69184410e-01  -4.62176890e-01
C     1.216302027232748e+01   3.831966446024904e+00   3.408469200000000e+00  2.67268565e+00  -5.66788710e-01   6.34554410e-01
C     3.446331839114834e+00   5.336147142372486e+00   3.084041100000000e+00  8.47630050e-01  -1.54534649e+00   2.69841620e-01
C     4.895515171682941e+00   5.448412261781106e+00   2.985500400000000e+00 -6.59141430e-01   1.03871273e+00   5.45564450e-01
C     5.807200373488774e+00   4.327654669981182e+00   2.854981200000000e+00 -1.79007511e+00  -2.23130231e+00   1.99927363e+00
C     7.198922092885413e+00   4.433403564283941e+00   3.065877300000000e+00  6.87806000e-03   1.69799084e+00  -8.54041390e-01
C     7.995033423893632e+00   3.291890137340381e+00   3.409315200000000e+00  4.52051680e-01   1.10757741e+00   8.57361720e-01
C     9.410439224632206e+00   3.504371017255709e+00   3.675944400000000e+00 -5.17528650e-01  -4.19613100e-02  -1.92867274e+00
C     1.027934037654655e+01   2.369578250023564e+00   3.976814700000000e+00 -1.70690449e+00   9.41399800e-01  -6.66858700e-01
C     1.164618234595430e+01   2.552121603473629e+00   3.841866900000000e+00  1.50658826e+00   9.71895280e-01  -9.39726470e-01
C     2.876235137183402e+00   4.022250864231665e+00   3.205195200000000e+00 -1.32123316e+00   8.55149480e-01   1.78173550e-01
C     3.728541068001763e+00   2.938476209074224e+00   3.266573700000000e+00  2.61997948e+00  -2.86894120e+00  -3.33156210e-01
C     5.218142792966759e+00   2.982103223871286e+00   3.073949700000000e+00 -1.92941392e+00   1.50790091e+00  -3.21478240e-01
C     6.019386538088833e+00   1.788237974702192e+00   3.229398000000000e+00  8.30450650e-01   2.64093327e+00   1.72558880e+00
C     7.394688335939951e+00   2.023182095576936e+00   3.603295200000000e+00  1.25711666e+00  -6.58605680e-01  -1.08962502e+00
C     8.294188849041465e+00   9.179217076673254e-01   3.874551300000000e+00 -1.14459864e+00  -5.61431610e-01  -3.01331200e-01
C     9.723371915828455e+00   1.067076805060739e+00   4.030735800000000e+00 -8.96889700e-01  -1.88426762e+00   5.21082170e-01
C     1.777790371555276e+00   1.444030210357233e+00   3.843037200000000e+00  1.27234613e+00  -6.98248740e-01  -8.99312560e-01
C     3.183957622739881e+00   1.610036879271278e+00   3.503367900000000e+00 -1.20131160e+00   1.48672588e+00   1.82350840e-01
C     3.989282790524499e+00   4.940736837464792e-01   3.391935300000000e+00  2.07937545e+00  -3.74311855e+00   1.11562210e-01
C     5.455314918775827e+00   5.453926319976732e-01   3.421235100000000e+00 -1.26890238e+00  -1.39679067e+00  -4.64328320e-01
C     1.261788972702843e+00   1.246425786378812e-01   3.867138600000000e+00 -2.17795790e+00  -3.09398144e+00  -2.89476300e-02
