76
Lattice="10.7446858958278 0 0 5.37234294791388 9.3051709414712 0 0 0 30 " PBC="1 1 1" Properties=species:S:1:pos:R:3:force:R:3 Energy="-607.13036686"
C     1.075945995055936e+01   7.823136364386199e-02   1.821474000000000e-01 -1.11169983e+00  -3.00405914e+00  -5.34548500e-02
C     1.247170086152566e+01   8.512682471345327e+00   3.781953000000000e-01 -2.62338696e+00  -1.85174791e+00  -8.09939070e-01
C     1.383994141297359e+01   8.292436519332279e+00   4.231728000000000e-01  2.41175297e+00   1.24683687e+00  -7.61513270e-01
C     1.443468755255164e+01   6.986922246122502e+00   2.005032000000000e-01 -6.18933220e-01   1.19415625e+00   5.64501960e-01
C     8.211820946506938e+00   8.953914415616282e+00   1.063860000000000e-02  8.65412200e-01   2.78244714e+00  -1.03585962e+00
C     9.660171888258372e+00   8.823616247132778e+00   4.084050000000000e-02 -1.03428352e+00  -6.50281780e-01   8.18685540e-01
C     1.019960459971694e+01   7.469207394908514e+00   1.275450000000000e-02 -9.22388870e-01   1.90491419e+00   2.84504840e-01
C     1.157628069661810e+01   7.348234775689368e+00   1.467294000000000e-01  3.22658111e+00  -6.41481510e-01  -7.23079400e-01
C     1.222828741629443e+01   6.084116974750625e+00  -1.898361000000008e-01 -2.17056942e+00  -9.12207720e-01   9.85442870e-01
C     1.362339038089694e+01   5.888154075977730e+00  -7.242749999999987e-02 -3.75140430e-01  -2.04068386e+00  -2.16688916e+00
C     5.926994273397041e+00   7.969438961627956e+00   2.337864000000000e-01  4.25685720e-01   2.69006138e+00  -9.98364080e-01
C     7.330005273098521e+00   7.886416923777346e+00   1.590660000000000e-02  1.17871060e-01  -2.75031407e+00   4.33934470e-01
C     7.924947180853671e+00   6.573670485609581e+00  -1.162269000000009e-01  5.58051850e-01  -5.81235620e-01   9.25848780e-01
C     9.343769899155301e+00   6.348078433736374e+00  -1.198431000000006e-01  6.23118800e-01  -9.57343000e-02  -1.02785878e+00
C     9.967431976257146e+00   5.024817059354700e+00  -3.525683999999991e-01 -2.36838973e+00   2.42373589e+00   1.59267285e+00
C     1.135401671504842e+01   4.890254796287942e+00  -4.148313000000030e-01  1.44244687e+00   2.55147180e+00  -5.00354870e-01
C     1.188899236962538e+01   3.635523958741761e+00  -6.560981999999989e-01  1.17764474e+00  -2.22597173e+00   9.80676510e-01
C     5.081305188773047e+00   6.811797533256061e+00   1.755699000000000e-01 -5.52175900e-02   2.37853238e+00  -1.12467670e-01
C     5.612707160819668e+00   5.572041321200203e+00  -2.504159999999800e-02  3.85557290e+00  -3.01007666e+00  -6.32149740e-01
C     7.108645886634767e+00   5.436343175916799e+00  -3.873839999999973e-02 -2.44075643e+00  -8.64994800e-01  -4.70021870e-01
C     7.652478493245956e+00   4.108727167638624e+00  -5.658209999999997e-02  1.67884634e+00   8.09926360e-01  -8.35039900e-02
C     9.097527539296891e+00   3.942346058645954e+00  -1.820918999999996e-01 -7.93361740e-01  -1.38566921e+00  -1.04543671e+00
C     9.658790390268779e+00   2.604423829138053e+00  -2.496207000000012e-01 -2.52393843e+00   1.84238028e+00   8.83031550e-01
C     1.102440467186560e+01   2.501393905783963e+00  -4.729095000000001e-01  1.54123777e+00  -2.56732618e+00   5.56038300e-01
C     3.440547168843421e+00   4.556028130500064e+00  -4.940330999999993e-01  5.50812970e-01   2.15408450e-01   1.88864409e+00
C     4.890100870734502e+00   4.340697076725815e+00  -2.818667999999995e-01 -3.32772970e+00   3.56924270e+00   7.05275730e-01
C     5.386066922406352e+00   3.089929776741527e+00  -2.954670000000093e-02  2.01740363e+00  -1.00084922e+00  -1.42506039e+00
C     6.848060821632453e+00   2.968932684922810e+00   4.362210000000000e-02 -2.67716603e+00  -9.07566270e-01   8.04369530e-01
C     7.349826424965687e+00   1.656146978933678e+00   2.630856000000000e-01  3.93285600e-01   8.98298080e-01  -1.20718334e+00
C     8.739121027264375e+00   1.562681654685395e+00   1.030995000000000e-01  2.38483228e+00  -4.10530184e+00   9.49557830e-01
C     9.331410609305109e+00   1.863423755897392e-01   3.456765000000000e-01 -2.23432200e-01   1.31233619e+00  -1.18069155e+00
C     2.591080682444423e+00   3.395342794610276e+00  -6.198087000000001e-01 -3.22312800e-01   1.30196682e+00   7.07890760e-01
C     3.134502143649650e+00   2.095389663761079e+00  -3.423446999999982e-01  1.06166730e-01  -2.15977320e-01  -8.04261190e-01
C     4.556875980641231e+00   1.927837499005610e+00  -1.391070000000028e-01 -4.96559350e-01   1.59579780e+00   1.13255778e+00
C     5.138939683940647e+00   6.994657913880052e-01   1.990923000000000e-01 -2.41799197e+00  -2.73010010e+00  -1.67899512e+00
C     6.498596252099634e+00   4.845380237222954e-01   3.044652000000000e-01  2.31657856e+00   1.56844992e+00   6.61900600e-01
C     8.511838632698245e-01   1.144504667193932e+00  -2.287073999999976e-01 -2.37572670e-01   1.51169472e+00  -4.51899700e-02
C     2.255400363005855e+00   9.610486625780715e-01  -2.439225000000000e-01  1.09965840e+00  -8.67123500e-02   7.84140520e-01
C     1.609814323793415e+01   9.275702021943276e+00   3.728824500000000e+00 -1.16821126e+00   9.53942170e-01   7.27619860e-01
C     1.184543121032618e+01   8.830892983859568e+00   3.345863400000000e+00 -4.89014000e-03   8.67364080e-01   9.27912990e-01
C     1.325921510072815e+01   8.960509455520008e+00   3.462237000000000e+00  2.96572660e-01  -2.45485674e+00  -6.70502510e-01
C     1.414570240239559e+01   7.788469019532136e+00   3.344328600000000e+00 -3.48360866e+00   2.75629207e+00   1.92130725e+00
C     7.627293647900940e+00   8.326564908685498e+00   3.524391300000000e+00 -1.19939698e+00   3.95589570e-01   5.25042650e-01
C     9.021956617615844e+00   8.492527378037579e+00   3.452817900000000e+00 -6.39262760e-01   1.51629790e-01  -4.04149750e-01
C     9.834116641271741e+00   7.394983675336801e+00   3.366932400000000e+00  6.66426300e-01  -3.47706516e+00   4.68737100e-02
C     1.121776179517107e+01   7.567264169653721e+00   3.430840800000000e+00  2.47061277e+00  -2.93420618e+00   1.87792500e-02
C     1.210953392432186e+01   6.300251157828706e+00   3.559361400000000e+00 -1.10570650e-01   3.49747678e+00  -9.00663450e-01
C     1.352045236816459e+01   6.552606835411249e+00   3.449809800000000e+00  1.10855580e+00  -3.63944782e+00  -1.07791904e+00
C     4.746365715427284e+00   8.020885018514191e+00   3.510299100000000e+00  3.06761167e+00  -2.21772432e+00  -1.62213905e+00
C     5.612039163697265e+00   6.869969926007983e+00   3.189104100000000e+00  6.33902330e-01   4.91171130e-01   2.29966015e+00
C     7.049995266521604e+00   7.039864946702726e+00   3.292735200000000e+00 -1.36621731e+00   4.02964970e-01  -7.54972300e-02
C     7.866503127326935e+00   5.907214508976097e+00   3.217673100000000e+00  2.00049860e+00  -2.20392974e+00   7.33707800e-02
C     9.307938842956560e+00   6.013427824360471e+00   3.309725700000000e+00  3.82404140e-01   1.99131009e+00   5.34722850e-01
C     1.020242411274396e+01   4.892051717848165e+00   3.464303100000000e+00 -2.24037217e+00  -1.76768970e-01  -4.17587600e-02
C     1.159832309740137e+01   4.976643165829516e+00   3.614655300000000e+00  1.72273860e-01   3.51644921e+00  -7.08803390e-01
C     1.250495050693693e+01   3.925635367413355e+00   3.620389800000000e+00 -1.86173921e+00  -1.26177848e+00   5.71897070e-01
C     3.692313586616740e+00   5.367642354453104e+00   3.281622300000000e+00 -2.49798188e+00   4.12059920e-01   1.52526842e+00
C     5.070987711584431e+00   5.527013599021544e+00   3.224938200000000e+00  6.33459610e-01   1.87027678e+00  -9.36046100e-01
C     5.934136158667912e+00   4.417223081691503e+00   3.206414400000000e+00 -8.28253330e-01  -1.96100856e+00   3.67618960e-01
C     7.327312386194833e+00   4.564732094345631e+00   3.198705000000000e+00  3.91765870e-01   4.28360860e-01   7.53606240e-01
C     8.192526928930025e+00   3.424537117072560e+00   3.421044600000000e+00 -1.17525649e+00   4.27721220e-01  -8.32712590e-01
C     9.561302243395195e+00   3.631806263796102e+00   3.502917300000000e+00  2.30697173e+00  -2.18539709e+00   4.95514230e-01
C     1.041289467334637e+01   2.443744184483740e+00   3.685512600000000e+00  1.94078000e-02   1.68481537e+00   8.21077590e-01
C     1.187012770969704e+01   2.688317110143776e+00   3.806172000000000e+00 -1.26107794e+00  -3.80606575e+00  -1.38045387e+00
C     3.135577632984810e+00   4.045995892488066e+00   3.457224300000000e+00  1.42600860e-01   2.30611000e+00  -5.71385740e-01
C     3.940153197757615e+00   2.932749341619201e+00   3.390988200000000e+00  7.10336410e-01  -3.39371950e+00   7.34598530e-01
C     5.352221752779077e+00   3.077423347843039e+00   3.338801400000000e+00  9.52754970e-01   1.86894140e+00  -3.20685980e-01
C     6.257228433893476e+00   1.982519336034521e+00   3.417138000000000e+00 -1.15130749e+00   3.19881750e-01  -5.97391780e-01
C     7.658411762523366e+00   2.105685370147642e+00   3.453002400000000e+00  2.18867050e-01  -4.35233190e-01   2.81581380e-01
C     8.488620064872928e+00   8.821552360218285e-01   3.550945200000000e+00 -2.42389759e+00   4.02776402e+00   6.52300700e-02
C     9.816782669296707e+00   1.125262969465653e+00   3.767829300000000e+00  4.32850935e+00  -3.50209610e-01  -7.54733340e-01
C     1.888550676793118e+00   1.463608476118412e+00   3.709624800000000e+00  3.08080541e+00   2.08537740e-01   9.92271540e-01
C     3.361957903722776e+00   1.556544336140209e+00   3.540376500000000e+00 -7.38812100e-01   2.49041544e+00  -4.97430650e-01
C     4.244856910087059e+00   4.460868241571898e-01   3.403236300000000e+00 -3.34895780e-01   3.01875605e+00   8.13509380e-01
C     5.662494865597928e+00   7.324813753485099e-01   3.354868500000000e+00 -5.95216370e-01  -3.81041588e+00   3.05746310e-01
C     1.393760040035298e+00   1.321038369044108e-01   3.851212200000000e+00 -6.69341670e-01   1.27212070e-01  -2.30669976e+00
