76
Lattice="10.7446858958278 0 0 5.37234294791388 9.3051709414712 0 0 0 30 " PBC="1 1 1" Properties=species:S:1:pos:R:3:force:R:3 Energy="-602.43943317"
C     1.370851080334190e-01   1.002364179861928e-01   5.820300000000000e-02  3.97344910e-01   1.50045933e+00   4.28027640e-01
C     1.263029591743258e+01   8.455248630010912e+00   5.929506000000000e-01 -5.27265262e+00   1.11025976e+00  -1.93693221e+00
C     1.394586053880889e+01   8.271899169602316e+00   5.409465000000000e-01  4.77336180e+00   3.35277478e+00  -7.44710300e-01
C     1.455289521448049e+01   7.033800580697709e+00   2.650512000000000e-01  2.87583877e+00  -9.64974070e-01  -1.08593497e+00
C     8.414095084640817e+00   9.128725358118626e+00  -7.022309999999976e-02  8.00243610e-01  -1.00511334e+00   2.92852870e-01
C     9.869876352756108e+00   8.894004840501571e+00   7.451400000000000e-03 -1.72739089e+00   1.24117371e+00   1.28050360e-01
C     1.043279512099548e+01   7.585108323758521e+00  -1.147202999999983e-01 -1.95335867e+00  -1.41829454e+00   1.12841095e+00
C     1.176477004742343e+01   7.280394589485915e+00   2.022123000000000e-01  2.63362326e+00   2.69872053e+00  -4.55892350e-01
C     1.241840147105470e+01   6.078333159649449e+00  -1.845587999999978e-01 -3.38295172e+00  -2.70085581e+00   1.62830550e-01
C     1.379651638884473e+01   5.897651677852769e+00  -1.827200999999974e-01  4.37545310e-01   1.70958267e+00   8.92671290e-01
C     6.086003698115692e+00   8.125005973160997e+00   1.202256000000000e-01  2.28266949e+00  -7.64725230e-01   5.73172650e-01
C     7.566789623193456e+00   8.006289578739672e+00   9.374940000000000e-02 -1.08991425e+00  -1.58428777e+00  -1.08920706e+00
C     8.121424077433634e+00   6.639975039452807e+00   4.010970000000000e-02  2.13054079e+00   1.76816093e+00  -7.79778040e-01
C     9.558408001077741e+00   6.394840825881669e+00  -2.280845999999990e-01 -6.94349150e-01   2.32116664e+00   7.94644260e-01
C     1.010781495073385e+01   5.097577913002937e+00  -3.775167000000010e-01 -1.80970606e+00  -1.18679926e+00   8.55816970e-01
C     1.149190686867290e+01   4.817878897561494e+00  -4.097721000000014e-01  1.43138352e+00   6.02773075e+00  -1.00654170e+00
C     1.204989823140539e+01   3.624374689024872e+00  -7.327355999999980e-01  1.69437931e+00  -5.69711480e-01   1.68307366e+00
C     5.328430278301572e+00   6.918223006537866e+00   1.911138000000000e-01 -4.03954358e+00   4.10411961e+00  -1.90399180e-01
C     5.897429840355755e+00   5.727407899351196e+00   4.896000000000000e-04 -5.15640090e-01  -4.51465347e+00   2.08999640e-01
C     7.286434228688284e+00   5.546659327272037e+00   9.828600000000000e-02 -4.80118500e-02  -1.10090633e+00  -5.90788390e-01
C     7.824140161675865e+00   4.236795817164904e+00   9.377310000000000e-02 -1.60770000e-01  -2.00431584e+00  -1.42705156e+00
C     9.172198862150960e+00   3.962914487646858e+00  -2.383148999999989e-01  1.30820870e+00   1.64341402e+00   5.65652900e-01
C     9.738161707352656e+00   2.659560502922510e+00  -2.140178999999982e-01 -6.80356840e-01   7.19969650e-01   6.28668260e-01
C     1.112793520030191e+01   2.551463169577915e+00  -4.458854999999993e-01  2.33295840e+00  -2.95167709e+00  -1.14863560e-01
C     3.657681905981584e+00   4.636997819848149e+00  -4.586930999999979e-01  1.07738620e+00   1.87310691e+00   6.59863820e-01
C     5.072202237155137e+00   4.528870896059965e+00  -2.040525000000031e-01 -7.42395280e-01   8.65320480e-01  -5.32116000e-03
C     5.623523191434045e+00   3.238943528588363e+00  -6.668549999999840e-02 -2.36582256e+00   3.90331700e-02  -9.30629730e-01
C     6.947619254585249e+00   3.077393757399450e+00   9.408810000000001e-02  3.07878705e+00  -1.82056137e+00   1.28046097e+00
C     7.433217705108760e+00   1.672927272844908e+00   3.364644000000000e-01  3.60850395e+00   3.93299260e+00  -7.65360400e-01
C     8.918610790330156e+00   1.560293017305097e+00   2.498922000000000e-01 -1.40418934e+00   2.28944170e-01  -5.53895800e-01
C     9.490492399483296e+00   3.182330310279146e-01   3.628344000000000e-01 -7.06743600e-02  -4.11979688e+00  -1.26069250e-01
C     2.832419973509516e+00   3.559256916683333e+00  -6.586196999999991e-01 -2.52980616e+00  -3.98413904e+00   1.30890125e+00
C     3.360855337779147e+00   2.242176967357101e+00  -2.596914000000012e-01 -6.15331000e-02   1.12273245e+00  -2.53694208e+00
C     4.799088331159128e+00   2.078866471722921e+00  -1.643696999999982e-01 -2.33223256e+00   6.42840000e-03   1.74575287e+00
C     5.270855631034435e+00   8.021682657767168e-01   2.222979000000000e-01 -3.97330960e-01  -2.17202280e+00  -1.50281019e+00
C     6.618641255317383e+00   5.896462570058346e-01   4.623576000000000e-01  1.89435599e+00  -3.09419268e+00   2.57234640e-01
C     1.022499123026316e+00   1.245985651793350e+00  -2.317724999999982e-01 -1.01905367e+00   1.84587850e-01   9.48372800e-02
C     2.468699784512013e+00   1.125475127363085e+00  -2.200787999999996e-01 -2.24971640e-01  -4.77353570e-01   3.90070120e-01
C     1.588484274195940e+01   9.187154015278237e+00   3.754097400000000e+00  2.75265670e-01   2.41615559e+00   1.60699198e+00
C     1.172410683735831e+01   8.799003976944769e+00   3.593065500000000e+00 -4.81485058e+00  -1.23775315e+00  -3.44655490e+00
C     1.306231131777737e+01   8.930259647517998e+00   3.620098200000000e+00  2.80697842e+00  -2.11550784e+00  -2.11942940e-01
C     1.394957094746731e+01   7.757127528875447e+00   3.539562900000000e+00 -2.16612796e+00   2.66728300e-01   5.89661220e-01
C     7.408658683993989e+00   8.265236481105855e+00   3.302871900000000e+00  1.00741169e+00  -7.51532080e-01   1.71930222e+00
C     8.842929090937481e+00   8.439495533919748e+00   3.318364200000000e+00 -1.46080741e+00  -2.28248472e+00   4.45754000e-03
C     9.658384026248044e+00   7.283485302013635e+00   3.305065200000000e+00  3.42575613e+00   2.68938804e+00  -9.12008280e-01
C     1.111706958296210e+01   7.505042538715548e+00   3.258286800000000e+00  4.56423290e-01  -2.72892596e+00   2.59885722e+00
C     1.197492997915647e+01   6.249641449706559e+00   3.312439500000000e+00 -1.97771863e+00   1.00375076e+00  -4.48729960e-01
C     1.337112277724982e+01   6.452330684345143e+00   3.338404800000000e+00  9.08629800e-02   2.42350810e-01   5.13070200e-02
C     4.587147682631885e+00   7.926553382851394e+00   3.677145300000000e+00  3.17649100e-02  -2.49778935e+00  -2.06746279e+00
C     5.416449240938346e+00   6.784431769935195e+00   3.356208600000000e+00  7.37687670e-01  -1.61056814e+00  -8.02858760e-01
C     6.852271449142945e+00   6.980580399920054e+00   3.280538700000000e+00 -2.69744080e-01  -2.00960673e+00  -4.20958310e-01
C     7.763948807328070e+00   5.849693012931428e+00   3.199889100000000e+00 -2.05760591e+00  -1.27694016e+00  -1.20659797e+00
C     9.165397905763697e+00   6.020364457089403e+00   3.242896200000000e+00 -9.07027040e-01  -3.64148428e+00   8.37156960e-01
C     9.974779138752137e+00   4.807463805831770e+00   3.477851100000000e+00  1.31398900e+00  -2.01678390e-01  -1.02811468e+00
C     1.139549394251733e+01   4.832717853659512e+00   3.358884900000000e+00 -3.04885330e-01   6.10346404e+00   8.99603690e-01
C     1.229207179360718e+01   3.830773895317234e+00   3.611510100000000e+00 -2.68651471e+00  -3.41915726e+00   4.29952960e-01
C     3.425562844780999e+00   5.287282060749878e+00   3.180669000000000e+00  2.20771324e+00  -2.20907410e-01   4.94747830e-01
C     4.867656188911133e+00   5.362157514494230e+00   3.047103600000000e+00 -2.09391664e+00   7.14505842e+00   2.21610355e+00
C     5.731279712281682e+00   4.354607842022568e+00   3.123233400000000e+00  3.83277069e+00  -2.67920126e+00  -1.66304371e+00
C     7.192884224090767e+00   4.490910079003398e+00   2.981016900000000e+00  2.51403850e-01   2.78667451e+00   3.22465339e+00
C     8.048297142007401e+00   3.434325598591183e+00   3.363125400000000e+00 -2.98500380e-01  -3.77943387e+00  -6.19551350e-01
C     9.457898233635358e+00   3.492877363162330e+00   3.644187300000000e+00 -1.93990388e+00   1.77576784e+00   3.36912190e-01
C     1.023390931956016e+01   2.361743761350631e+00   4.066444800000000e+00  1.00067941e+00   1.30118500e-02  -2.61394930e+00
C     1.168859984088631e+01   2.501879542655321e+00   3.897659400000000e+00  1.57866749e+00  -1.03300217e+00  -8.26671500e-02
C     2.894873997537561e+00   4.011708012504935e+00   3.413088600000000e+00  1.65600697e+00  -2.05516623e+00  -5.47031180e-01
C     3.747947851057195e+00   2.832406100270617e+00   3.392344800000000e+00  2.99730302e+00   8.54063010e-01  -4.20465430e-01
C     5.264374920010420e+00   3.050284072382853e+00   3.172962600000000e+00 -4.84263204e+00  -8.30641260e-01   1.00947353e+00
C     6.046556625324163e+00   1.917669924822891e+00   3.267730500000000e+00  1.07312205e+00  -9.65266600e-01  -4.55156120e-01
C     7.494683325480866e+00   2.067601445679538e+00   3.321754200000000e+00 -1.46101032e+00   4.80590640e-01   1.05859702e+00
C     8.246635716589829e+00   8.881484174691544e-01   3.570734100000000e+00  1.79422173e+00   2.73361069e+00   1.29479098e+00
C     9.623884558972884e+00   1.069191963467111e+00   3.929050800000000e+00  2.00888685e+00  -1.41375954e+00  -1.03370027e+00
C     1.833949513901947e+00   1.302495582705132e+00   3.772256700000000e+00 -1.06792445e+00   1.53004261e+00   4.89579100e-02
C     3.308730932434785e+00   1.483307709101811e+00   3.538253100000000e+00 -5.57094210e+00   3.37481288e+00   3.90594050e-01
C     4.053148773726662e+00   3.709915822752360e-01   3.406347900000000e+00  2.50152200e+00   6.05056340e-01  -8.04143900e-01
C     5.440081156830236e+00   6.182717543685566e-01   3.292142100000000e+00  2.61536635e+00  -1.06268671e+00   2.22853066e+00
C     6.568680990883569e+00   9.289122125576363e+00   3.702730200000000e+00  1.00283140e-01   3.81422048e+00  -5.11275820e-01
