26
Lattice="8.88768389401873 1.33226762955019e-15 0 4.44384194700937 7.69696003302603 0 0 0 30 " PBC="1 1 1" Properties=species:S:1:pos:R:3:force:R:3 Energy="-208.93870414"
C     5.596412794095131e-01   6.787071597013580e-01   3.479182800000000e+00 -4.69061690e-01  -1.41940057e+00   2.53074800e-02
C     2.950546762668612e+00   3.897671286551729e-02   3.427367400000000e+00  1.05642600e-01   3.30740690e-01   3.62856200e-01
C     4.318959188085446e+00   4.246761520840359e-01   3.589465800000000e+00 -8.36660800e-01   8.00310300e-01  -7.21790320e-01
C     9.747644278335454e+00   7.135798688727993e+00   3.766560000000000e+00  1.06477837e+00   1.28683460e-01  -1.08571060e-01
C     1.113473914855270e+01   7.525500701101313e+00   3.776274900000000e+00 -3.89927000e-03   2.91526220e-01  -7.01146570e-01
C     1.218639243064940e+01   6.564513920776530e+00   3.669849300000000e+00 -4.06824470e-01   5.27187440e-01   5.71313240e-01
C     4.654014698582391e+00   6.954775271235229e+00   3.521300100000000e+00  2.62834620e-01   1.38637689e+00  -3.48538000e-02
C     5.673089153285966e+00   5.977338932782331e+00   3.485073900000000e+00  4.38343010e-01  -3.53749780e-01   4.82841120e-01
C     7.046352743194644e+00   6.354059252369052e+00   3.526976700000000e+00 -6.71976710e-01   8.27564280e-01  -6.15159980e-01
C     8.048455276742867e+00   5.378150298664508e+00   3.606672000000000e+00  8.10772370e-01  -1.19833422e+00   1.05772573e+00
C     9.404770186795403e+00   5.765385050500210e+00   3.772350000000000e+00  9.39815200e-01   1.23712900e-02  -3.20080800e-01
C     1.048594955461394e+01   4.807365371297392e+00   3.772278900000000e+00 -1.42144431e+00  -2.26292160e-01  -6.08269610e-01
C     1.184878064787024e+01   5.204040444609890e+00   3.725574600000000e+00  1.51930070e-01  -9.18851380e-01  -7.02195440e-01
C     3.986322689658809e+00   4.220120725814922e+00   3.543673800000000e+00 -9.01350110e-01  -1.08455829e+00   4.64714160e-01
C     5.350260255102540e+00   4.588385165112686e+00   3.559300800000000e+00 -5.78266910e-01   5.92718980e-01  -3.98865870e-01
C     6.338517376923335e+00   3.597223607534292e+00   3.598322400000000e+00  1.74387936e+00  -5.93368630e-01   4.41045950e-01
C     7.741057130880760e+00   3.973678151091178e+00   3.691137600000000e+00 -2.01312521e+00   1.18443745e+00  -1.00505926e+00
C     8.745908802817688e+00   3.009853886451335e+00   3.621033000000000e+00  3.58704460e-01   3.55305540e-01   4.01673620e-01
C     1.010527241067075e+01   3.449677117087209e+00   3.579895500000000e+00  1.07161884e+00  -1.42521065e+00   2.60687530e-01
C     2.244948918605362e+00   2.439615135367948e+00   3.431226900000000e+00  4.68245270e-01   3.94970560e-01  -3.57834500e-02
C     3.623382518674538e+00   2.821360877127856e+00   3.459664200000000e+00  3.64788380e-01   3.08113590e-01   1.49333200e-02
C     4.663980544067662e+00   1.817171291063484e+00   3.478337400000000e+00 -1.25275278e+00  -8.14149800e-02   7.91000880e-01
C     6.003241366327570e+00   2.206370384068443e+00   3.620581800000000e+00  4.50204830e-01   2.94822590e-01  -4.07823680e-01
C     7.019977515821971e+00   1.204098803473947e+00   3.667362900000000e+00  6.84908020e-01   7.84905620e-01   5.57220980e-01
C     8.397385788273601e+00   1.638836652618000e+00   3.644921700000000e+00  3.77560040e-01  -9.31905680e-01  -8.40361630e-01
C     1.935426482987617e+00   1.049506669754602e+00   3.326346300000000e+00 -7.38663160e-01   1.30514400e-02   1.06864125e+00
