26
Lattice="8.88768389401873 1.33226762955019e-15 0 4.44384194700937 7.69696003302603 0 0 0 30 " PBC="1 1 1" Properties=species:S:1:pos:R:3:force:R:3 Energy="-208.82376764"
C     1.259506831111253e+01   6.808511864025146e+00  -1.130907000000008e-01 -8.45510840e-01   1.31790082e+00   7.05636100e-02
C     8.833817242071445e+00   6.689636087872211e+00  -1.518000000000796e-03 -6.47578200e-01  -7.48608540e-01   2.36772110e-01
C     1.019067341156787e+01   6.299450475500207e+00  -3.353339999999960e-02  6.96588220e-01  -2.06696722e+00  -2.69381010e-01
C     1.058552320994018e+01   4.872031611898238e+00  -6.567749999999961e-02 -2.48274274e+00   1.77216777e+00   2.51432180e-01
C     6.423347699373295e+00   6.039710786567834e+00  -4.121699999998896e-03  8.35130060e-01   1.41069613e+00   1.09327530e-01
C     7.798140237075107e+00   5.698360615285374e+00   2.096160000000000e-02  6.25983750e-01  -9.76222260e-01  -6.15073090e-01
C     8.194681717230967e+00   4.320091767529374e+00  -8.135370000000108e-02 -2.42342567e+00  -2.72332750e-01   6.99025230e-01
C     9.519162765064138e+00   3.936731742342374e+00   1.298580000000000e-02  1.16282649e+00  -1.74331770e+00  -6.96164460e-01
C     9.840067033474586e+00   2.513836690028437e+00   7.730999999999999e-03  2.07991580e-01   7.74356770e-01  -2.06201280e-01
C     4.055269475942798e+00   5.463734952386886e+00  -1.687268999999993e-01 -2.29360290e-01  -1.48583378e+00   6.93774500e-02
C     5.421967288873416e+00   5.064105554906074e+00  -1.300319999999999e-01 -1.63928270e-01  -4.72850380e-01   2.02996080e-01
C     5.777281914144192e+00   3.672387039193652e+00  -1.455587999999999e-01  2.58784200e-02   1.08563643e+00  -4.47944730e-01
C     7.149788495074431e+00   3.274624847246517e+00  -1.439000999999998e-01 -1.22476950e-01   3.32496502e+00   2.50566550e-01
C     7.459699365157027e+00   1.956077559028891e+00  -1.273514999999996e-01  1.50831865e+00  -3.73387720e+00   7.12696030e-01
C     8.847570218511581e+00   1.509692516028242e+00   4.225199999999999e-03 -1.59767383e+00   1.63420190e-01  -8.09558340e-01
C     3.009432026282884e+00   4.469215903873807e+00  -1.785738000000023e-01  2.00723709e+00  -5.59607670e-01   3.58490510e-01
C     3.362726436555498e+00   3.059725646239317e+00  -1.595192999999995e-01  3.63377300e-02   1.89982967e+00  -1.91372470e-01
C     4.752173254085409e+00   2.717990473016155e+00  -1.878932999999989e-01 -7.25204560e-01  -1.41625701e+00   2.88623350e-01
C     5.086904758918301e+00   1.323541922550693e+00  -1.359539999999981e-01 -4.74886630e-01  -2.37004600e-02   2.87321880e-01
C     6.452351363706384e+00   9.169829519548718e-01  -9.496469999999846e-02 -2.32136120e-01   1.29927472e+00  -4.28750490e-01
C     1.121631399949895e+01   7.240738810868212e+00  -8.380890000000107e-02  9.87681640e-01   1.48934480e-01   4.10595000e-03
C     2.306694102502306e+00   2.131804082568211e+00  -8.508360000000081e-02  6.52913970e-01  -1.42935756e+00   4.33218040e-01
C     2.630483979690228e+00   7.250550202788053e-01  -2.278830000000198e-02  2.17474867e+00   1.33262930e+00   9.48735800e-02
C     4.037435979388225e+00   3.499792331720940e-01  -3.855480000000000e-02 -3.95217860e-01   8.49443570e-01  -2.09636770e-01
C     2.589857310293859e-01   1.012748297739331e-01  -5.078100000000063e-02  1.39052231e+00   1.47850312e+00   7.07274610e-01
C     6.101127476041244e+00   7.452708087070392e+00   5.662620000000000e-02 -1.97201662e+00  -1.92882546e+00  -9.02582040e-01
