26
Lattice="8.88768389401873 1.33226762955019e-15 0 4.44384194700937 7.69696003302603 0 0 0 30 " PBC="1 1 1" Properties=species:S:1:pos:R:3:force:R:3 Energy="-208.62076192"
C     9.631052888255678e-01   1.078608336840830e+00   3.602823900000000e+00 -2.45257680e-01  -1.81158935e+00  -1.64964800e-01
C     3.360202199328199e+00   4.623403793252375e-01   3.718799100000000e+00 -8.59710310e-01   5.12941110e-01  -1.18209890e-01
C     4.708125136093310e+00   9.013107867897873e-01   3.675529800000000e+00  4.81506810e-01  -2.71192427e+00   2.23356660e-01
C     1.016425934916477e+01   7.535165927750184e+00   3.618905700000000e+00  1.65672600e-01   3.30965212e+00  -1.01827125e+00
C     7.078840601161493e+00   2.411662316535798e-01   3.461995200000000e+00  3.03864240e-01   2.53268240e-01   9.18065870e-01
C     1.255634116185861e+01   6.946970091947207e+00   3.463576200000000e+00  1.12275598e+00   2.00314450e+00   7.29956600e-02
C     5.043707197356773e+00   7.330510995694912e+00   3.537093300000000e+00 -4.41688590e-01   2.91834387e+00   3.89150050e-01
C     6.051248415758191e+00   6.373024638852573e+00   3.586458000000000e+00  6.50765660e-01   1.74478230e-01  -9.06780240e-01
C     7.405497472590952e+00   6.796610901396360e+00   3.601644300000000e+00  2.07053187e+00  -1.24401731e+00   4.75965700e-02
C     8.470284485088841e+00   5.791229825919344e+00   3.471989100000000e+00 -1.04179957e+00   4.31928970e-01  -4.27396820e-01
C     9.837947056639818e+00   6.213785850363116e+00   3.474470400000000e+00 -5.10476410e-01  -2.04558438e+00   5.93682530e-01
C     1.089094242342892e+01   5.232149588700249e+00   3.493860300000000e+00 -4.38941810e-01  -4.01909000e-02   4.68308200e-02
C     3.382733103467789e+00   5.604783130389442e+00   3.506377500000000e+00 -2.17471147e+00  -7.07988450e-01  -5.78226800e-02
C     4.381250123142498e+00   4.628579767963750e+00   3.540768000000000e+00 -6.54000290e-01  -6.71260080e-01  -2.49683860e-01
C     5.702942349583108e+00   5.010085364570722e+00   3.434912100000000e+00  2.35342984e+00  -5.56851270e-01   1.17975888e+00
C     6.743116121387928e+00   4.009259734887462e+00   3.455432400000000e+00  3.33375710e-01   6.03483290e-01  -1.31049955e+00
C     8.131421405276031e+00   4.401849646664036e+00   3.303645900000000e+00 -4.24280430e-01   5.93499670e-01   1.83954713e+00
C     9.174646007914998e+00   3.437422402175444e+00   3.447608400000000e+00 -6.57556000e-01  -2.26647160e-01  -3.45088510e-01
C     1.053331255471891e+01   3.874697631162986e+00   3.561700500000000e+00  5.10754900e-02  -1.60436680e+00  -6.52999680e-01
C     2.678173604173717e+00   2.864329464373732e+00   3.616085700000000e+00 -6.09632190e-01  -2.76561280e-01   8.65126190e-01
C     4.027022859770614e+00   3.269974420965992e+00   3.631460700000000e+00  4.12712430e-01  -1.34132551e+00  -1.66017640e-01
C     5.056117378139509e+00   2.247733616360863e+00   3.648014100000000e+00 -1.16659015e+00   1.20919636e+00  -5.03564040e-01
C     6.383707160547973e+00   2.640610778685757e+00   3.465191400000000e+00  1.65307174e+00  -5.78444270e-01   8.39002070e-01
C     7.414946899182177e+00   1.625731038774919e+00   3.486879600000000e+00  7.81044570e-01   6.67268490e-01  -7.24791950e-01
C     8.811275361963208e+00   2.041270976272945e+00   3.464199000000000e+00 -6.94983400e-02   1.96634770e-01   5.26805740e-01
C     2.345766848995793e+00   1.456871050247963e+00   3.730065000000000e+00 -1.08566371e+00   9.42911400e-01  -8.95827260e-01
