72
Lattice="7.395 0 0 3.6975 6.40425786098592 0 0 0 13.6 " PBC="1 1 1" Properties=species:S:1:pos:R:3:force:R:3 Energy="-569.53284889"
C     3.747910309950000e+00   6.047184876631299e+00   2.281228640000000e-01 -1.66482430e+00   5.49353034e+00   2.28284500e-02
C     1.214290539675000e+00   5.293853689666542e-01   1.251365920000000e-01  1.07885480e-01  -2.27976091e+00   6.49311040e-01
C     1.543411707150000e+00   1.107731417358166e+00   3.308730944000000e+00 -2.47261001e+00  -1.44914950e-01   4.23040860e-01
C     2.712647211000000e+00   1.957812880580357e+00   3.116971352000000e+00 -2.55292315e+00  -2.72791141e+00   5.60709040e-01
C     6.123485212499999e+00   6.165211122180912e+00   2.986032320000000e-01  6.95910010e-01   1.12246830e-01  -4.23268610e-01
C     3.658653473400000e+00   5.178782624863848e-01   2.681839760000000e-01  1.33776215e+00  -1.12419494e+00  -4.91870980e-01
C     3.817243722375000e+00   1.083828101278923e+00   3.252892744000000e+00  3.30942835e+00   2.26222505e+00   1.05961074e+00
C     5.048416122675000e+00   1.759718489859931e+00   3.478649208000000e+00  2.81154567e+00   1.95227572e+00  -9.94295560e-01
C     8.640856466924999e+00   6.204993027113081e+00   4.079053439999999e-01 -2.68147008e+00  -1.82206617e+00  -5.49208260e-01
C     6.182732695350000e+00   4.665518502080436e-01   4.101250000000000e-01  2.79771050e-01  -1.18678574e+00  -1.49405915e+00
C     6.354723682650000e+00   1.141654130816800e+00   3.616186824000000e+00  5.02719120e-01  -1.61832800e+00  -6.39847920e-01
C     7.632685948799999e+00   1.755204704877624e+00   3.407282391999999e+00  9.15700110e-01   3.26025636e+00  -3.94243130e-01
C     8.540955563175000e+00   2.002120802627346e+00   6.814633600000000e-02  5.04913166e+00  -5.65896959e+00  -7.69182010e-01
C     2.419309413225000e+00   2.680302122330032e+00   1.358564941600000e+01  3.52481030e-01  -3.96905507e+00   2.34548850e-01
C     2.650815582374999e+00   3.392820510974895e+00   3.132921296000000e+00  2.62794351e+00  -3.05710613e+00   1.51550065e+00
C     3.978266445675000e+00   3.950633676113725e+00   3.494178776000000e+00 -3.44509480e+00   1.73867967e+00  -1.58437640e+00
C     3.721667747400000e+00   1.920043641765850e+00   1.144657600000000e-02 -3.29001995e+00  -7.54060340e-01   1.82405486e+00
C     4.902233796299999e+00   2.588225481331090e+00   3.423488560000000e-01  7.60681580e-01  -1.47949603e+00  -1.24820226e+00
C     5.176697890200000e+00   3.239981552251845e+00   3.407141903999999e+00 -3.62536347e+00  -4.30977479e+00   1.07139803e+00
C     6.361905632700000e+00   3.841766608027749e+00   3.497123856000000e+00  3.85573344e+00   4.27957802e+00  -3.34411930e-01
C     6.142694908199999e+00   1.908924953524789e+00   3.612077040000000e-01 -1.27284762e+00  -4.12597574e+00  -2.58396800e-02
C     7.342096539749999e+00   2.542122766018836e+00   2.085297520000000e-01 -1.33983747e+00   7.22918890e-01   1.11009363e+00
C     7.625873526900000e+00   3.274015571712086e+00   3.320724376000000e+00 -2.08328412e+00  -4.99139329e+00   1.85731330e-01
C     8.760856684875000e+00   4.028299135863202e+00   3.201016632000000e+00  3.87294229e+00  -2.88570049e+00   9.54762260e-01
C     2.425112380650000e+00   4.006380115039303e+00   1.324072880000000e-01 -5.66449620e-01   4.28962603e+00  -6.37352800e-02
C     3.725021897550000e+00   4.675646707800869e+00   1.295216400000000e-01 -2.01163901e+00  -1.00024830e-01   9.14907270e-01
C     3.979196773650000e+00   5.363934458747265e+00   3.658937336000000e+00  1.00582855e+00   1.59310054e+00  -5.91268670e-01
C     5.252641175475000e+00   6.041988013505645e+00   3.538982751999999e+00 -1.02231627e+00   1.75106216e+00  -5.35041120e-01
C     4.901876543849999e+00   3.951370485980518e+00   3.399411120000000e-01  4.89543150e-01   2.88265438e+00  -5.65688780e-01
C     6.099006246525000e+00   4.687521162511988e+00   4.718907600000000e-01  1.29758495e+00  -4.56639200e-02  -8.17462800e-02
C     6.447552378150000e+00   5.305803906748145e+00   3.495542312000000e+00 -1.50441497e+00   3.42776000e-02  -5.77360390e-01
C     7.604138845425000e+00   6.098511096781905e+00   3.373536712000000e+00  1.17236040e+00  -2.84155294e+00   1.31173778e+00
C     7.325583467774999e+00   3.817987150295519e+00   5.545434000000000e-01  6.18590590e-01   1.08925033e+01  -2.33980369e+00
C     8.530639907925000e+00   4.731566445944138e+00   3.048134000000000e-01  1.75873502e+00  -1.43802240e+00   1.08993141e+00
C     8.879184338699998e+00   5.294304421334729e+00   3.563472544000000e+00 -3.73627150e-01   8.77320764e+00  -5.07049830e-01
C     1.017626482440000e+01   6.137699070840137e+00   3.711245792000000e+00 -3.04906555e+00  -3.49327665e+00  -1.30413552e+00
C     7.377774087000000e+00   1.861995704693124e-01   6.386277528000000e+00 -1.32711336e+00   1.50210557e+00   1.52049584e+00
C     1.176487151775000e+00   9.526601905154335e-01   6.395745983999999e+00 -6.14244470e-01   1.78967496e+00  -2.00530700e-02
C     1.071091541175000e+00   3.388720184880030e-01   1.036995049600000e+01  2.01291509e+00  -6.47247490e-01  -8.28746090e-01
C     2.280540944100000e+00   9.960104198420376e-01   9.928377399999999e+00  1.04424692e+00   1.87899219e+00   1.39573396e+00
C     2.396055946650000e+00   3.147696580744717e-01   6.579508096000000e+00  1.44336368e+00  -3.93227324e+00   8.46719920e-01
C     3.750633666600000e+00   8.914274800515084e-01   6.603688216000000e+00 -1.81546589e+00   2.16543820e-01  -1.50784300e-01
C     3.579735068700000e+00   3.274278018199188e-01   9.909065536000000e+00 -4.61444784e+00  -2.15966995e+00   3.14899840e-01
C     4.734032487675000e+00   9.806610148160826e-01   1.005249331200000e+01  5.33612303e+00   2.59255284e+00   2.22909797e+00
C     5.034105133800000e+00   2.002712620096188e-01   6.685035936000000e+00 -2.25521555e+00   1.81519862e+00  -5.59637630e-01
C     6.199630640099999e+00   1.024142531428817e+00   6.571473760000000e+00  2.28778100e-02  -4.04468248e+00  -7.68766520e-01
C     6.048978553874999e+00   3.662945383038942e-01   1.038995052000000e+01 -1.56867861e+00   6.93031200e-01  -6.27943490e-01
C     7.298476799475000e+00   1.049741182648759e+00   1.057226885600000e+01 -2.52936096e+00   1.05071744e+00  -1.69724137e+00
C     8.483096047874998e+00   2.443254921899992e+00   6.313463400000000e+00  2.57642104e+00  -1.99333584e+00  -4.31599100e-02
C     2.393900636925000e+00   3.046641426396368e+00   6.336592784000000e+00 -1.41970470e-01  -3.19842369e+00   8.82186940e-01
C     2.348806370625000e+00   2.495781107845826e+00   9.935053912000001e+00 -1.83309028e+00  -3.70506837e+00   5.48076990e-01
C     3.582159741300000e+00   3.106311626027610e+00   1.002797346400000e+01 -8.50695410e-01   3.61657169e+00   1.42312408e+00
C     3.656520348675000e+00   2.285182211526014e+00   6.488196200000000e+00  9.61873150e-01   3.15093286e+00   1.76507080e-01
C     4.876402876425000e+00   3.139793918673212e+00   6.594186712000000e+00 -5.04363140e-01  -6.16085566e+00  -7.34193980e-01
C     4.765385106149999e+00   2.378726068000682e+00   1.025965966400000e+01  1.09474370e-01   2.07384670e+00  -1.18144346e+00
C     5.989595261850001e+00   3.154988852999584e+00   1.040507848000000e+01  5.14726660e-01  -1.34876326e+00  -4.90539260e-01
C     6.184813056750000e+00   2.388378565447275e+00   6.450529640000000e+00 -3.30911514e+00   3.92802276e+00   1.04437607e+00
C     7.307080142475000e+00   3.214708493501505e+00   6.302669624000000e+00  1.37260160e+00  -1.22731090e-01   1.28557504e+00
C     7.243369370400000e+00   2.441923924988948e+00   1.039852804000000e+01  2.19710519e+00   2.34311893e+00  -3.73944930e-01
C     8.538573337874999e+00   3.192199192230649e+00   1.015786434400000e+01 -2.67396860e+00   8.87295270e-01   2.67669100e-01
C     9.752298899549999e+00   4.395388314482365e+00   6.448093743999999e+00  2.36981376e+00   2.80196371e+00  -1.60527180e-01
C     3.547667723475000e+00   5.171166873544473e+00   6.470336680000000e+00  1.69762361e+00   3.80891030e-01   7.91558920e-01
C     3.426960580500000e+00   4.604300457367010e+00   1.028007707200000e+01  6.20253578e+00  -1.46640666e+00   1.63960630e-01
C     4.698733120725000e+00   5.330098266812319e+00   1.042499418400000e+01  1.59543467e+00  -2.67533993e+00  -1.35604427e+00
C     4.763595331274999e+00   4.477530158348247e+00   6.650940736000000e+00  2.42207732e+00   2.26021814e+00  -2.87724070e-01
C     6.017976273524999e+00   5.187897356777937e+00   6.751675936000000e+00  1.65031789e+00   4.90416746e+00  -1.75250529e+00
C     5.983529476125000e+00   4.549386956218705e+00   1.029827496000000e+01 -1.39486550e-01   2.91243746e+00  -2.39888200e-01
C     7.273499336550000e+00   5.316073390396970e+00   1.007062020800000e+01 -2.74794749e+00  -1.06885044e+00   8.16501400e-01
C     7.348347866025000e+00   4.714253303330571e+00   6.516038119999999e+00 -3.29775341e+00  -6.51322813e+00   1.52879010e-01
C     8.635565603249999e+00   5.184201779779824e+00   6.550202816000000e+00 -1.10141268e+00   3.17223429e+00   3.95096470e-01
C     8.489294795699999e+00   4.673575186553474e+00   1.014162689600000e+01  6.48261650e-01  -2.26144997e+00  -3.45072900e-02
C     9.731136812925000e+00   5.409660667739929e+00   1.025942547200000e+01 -2.71665930e+00  -2.67326721e+00  -3.93969920e-01
