32
Lattice="9.86 0 0 4.93 8.53901048131456 0 0 0 30 " PBC="1 1 1" Properties=species:S:1:pos:R:3:force:R:3 Energy="-256.85037275"
C     9.852734560399998e+00   3.832225928923392e-01  -2.609552999999991e-01  1.82060730e+00  -1.75598700e-01   1.75059000e-01
C     1.231308123200000e+00   1.081830122259286e+00  -1.166568000000012e-01  1.19071428e+00   3.02626760e-01  -1.77082560e-01
C     2.510695775600000e+00   3.754100814239776e-01  -2.322591000000003e-01 -1.68132674e+00   1.83756050e-01   1.42189140e-01
C     3.722765313300000e+00   1.082362700342924e+00  -1.674989999999994e-01  1.35876131e+00   5.91260700e-02   7.33400000e-02
C     4.989684354800000e+00   4.182139208174928e-01  -2.109941999999982e-01 -1.73341550e-01  -1.67712277e+00   9.01400600e-02
C     6.238667513999999e+00   1.129810651366197e+00  -2.268798000000025e-01 -1.78797309e+00  -9.57737190e-01   1.03446720e-01
C     7.438444737599999e+00   3.924341358377440e-01  -2.559083999999991e-01 -5.71680010e-01  -1.26420600e-01   2.76092270e-01
C     8.644000759300001e+00   1.094655972170561e+00  -2.744526000000000e-01  8.88832830e-01  -4.09220990e-01   2.18005110e-01
C     1.111241000220000e+01   2.513174751980693e+00   9.665849999999999e-02  3.38064970e-01  -9.46630290e-01  -1.49962014e+00
C     2.504551516600000e+00   3.199905200890798e+00   1.033806000000000e-01 -9.87862300e-02   1.18351573e+00   6.25680280e-01
C     3.743059658300000e+00   2.481812588899644e+00  -2.633070000000259e-02 -3.44227360e-01   1.98078529e+00   1.26158530e-01
C     4.968523562300000e+00   3.253408505805858e+00  -8.285279999999773e-02  5.69737030e-01  -1.83550759e+00  -3.33830940e-01
C     6.237414406600000e+00   2.541222498143930e+00  -2.015940000000001e-01 -2.40022846e+00  -6.37146950e-01  -3.87552600e-02
C     7.435603332099999e+00   3.192261164099207e+00  -2.651280000000007e-01  1.31291224e+00   3.01325812e+00  -2.50339660e-01
C     8.683770379100000e+00   2.486783488460471e+00  -2.283806999999989e-01 -1.08236520e+00   1.34979777e+00  -9.96683600e-02
C     9.884642605000000e+00   3.214902435777032e+00  -8.654130000000038e-02  6.77737620e-01   2.45121990e-01   9.08609080e-01
C     1.236134681940000e+01   4.677424359002595e+00   2.110194000000000e-01  4.11668050e-01  -1.63474317e+00  -8.44092770e-01
C     3.730424117600000e+00   5.359833043928563e+00   9.826770000000000e-02  6.37770060e-01   1.31631256e+00  -1.10228925e+00
C     4.969050332800000e+00   4.653656023331516e+00  -1.106654999999996e-01 -1.66969054e+00   2.54242530e-01   7.21056680e-01
C     6.152151535600000e+00   5.369845546056992e+00  -2.823791999999976e-01  2.12888731e+00   4.84488150e-01  -3.05025650e-01
C     7.396504734600000e+00   4.666937087891478e+00  -3.446811000000025e-01  9.83283770e-01  -1.58702954e+00   9.41374750e-01
C     8.664659332699999e+00   5.336496184457038e+00  -2.250309000000001e-01 -5.55864380e-01   7.56572820e-01  -3.60991640e-01
C     9.883893984500000e+00   4.632590882208088e+00  -2.636790000000033e-02  8.03353010e-01   8.29234850e-01  -3.69909670e-01
C     1.115126875520000e+01   5.398965108815679e+00   9.020370000000000e-02 -1.97386182e+00  -2.11133629e+00   5.49516000e-02
C     1.360890939910000e+01   6.808979034187731e+00  -1.029587999999997e-01 -6.21332520e-01  -1.08550764e+00   3.16858990e-01
C     4.981773873999999e+00   7.500734776155420e+00  -2.881625999999997e-01 -1.03151930e+00   3.17967610e-01   4.22455370e-01
C     6.202597760600000e+00   6.803671099883257e+00  -3.287063999999980e-01 -1.19968570e-01  -5.81857720e-01  -1.05833110e-01
C     7.439149382500000e+00   7.503191705640831e+00  -3.748095000000013e-01  4.80665620e-01  -5.99875290e-01   6.18319230e-01
C     8.680944157999999e+00   6.769386631245638e+00  -2.848355999999974e-01 -5.61802040e-01   2.92601060e-01   1.45291790e-01
C     9.905269872900000e+00   7.479105377219477e+00  -1.727948999999995e-01 -6.43945600e-01   1.88511339e+00  -3.25332820e-01
C     1.110621136530000e+01   6.783920454033122e+00  -3.822779999999781e-02  2.20154775e+00   1.18259115e+00   1.14328400e-02
C     1.237071490400000e+01   7.529516364879309e+00  -1.036910999999989e-01 -4.86629730e-01  -1.27137716e+00  -1.57689610e-01
