32
Lattice="9.86 0 0 4.93 8.53901048131456 0 0 0 30 " PBC="1 1 1" Properties=species:S:1:pos:R:3:force:R:3 Energy="-256.03160429"
C     4.961851448200000e+00   8.478185058988444e+00  -3.289799999999943e-02 -3.12832400e-02  -1.16280051e+00   2.04092730e-01
C     1.260703396100000e+00   6.457653146432488e-01   1.960680000000000e-02  1.22278570e-01   1.14543280e+00  -1.09914356e+00
C     7.435910618999999e+00   8.515751410913946e+00  -1.005420000000008e-01 -1.16864377e+00  -1.20581410e+00   1.32374696e+00
C     3.729929835800000e+00   6.804291715164944e-01  -7.784670000000204e-02 -2.49343130e-01  -6.84760710e-01  -1.38899841e+00
C     9.866118918799998e+00   8.476519610384425e+00  -1.730142000000008e-01  4.56229180e-01  -1.41622912e+00   1.25766190e-01
C     6.162137694299999e+00   5.639511766520632e-01  -1.785312000000019e-01  2.41103772e+00   3.36972486e+00   9.76836310e-01
C     1.237858998740000e+01   8.413462433593818e+00  -1.833237000000025e-01 -1.44360492e+00   3.50404298e+00  -2.71920650e-01
C     8.671657763500001e+00   6.552108264758055e-01  -8.044139999999800e-02 -4.53624910e-01  -9.22467020e-01  -3.87765080e-01
C     1.264166573200000e+00   2.079133262897891e+00  -1.132236000000013e-01 -1.54750019e+00  -1.68730950e-01  -1.10514650e-01
C     2.471013909800000e+00   2.752413233280111e+00  -2.987016000000011e-01  5.26042800e-01   2.61900039e+00  -1.47201160e-01
C     3.723132203900000e+00   2.082814344925714e+00  -2.754914999999976e-01 -6.37897790e-01  -5.64209870e-01   1.24291270e+00
C     4.945966445900000e+00   2.759807930965686e+00  -1.742795999999984e-01  1.36566651e+00   4.58562150e-01   8.44170000e-02
C     6.181552576600000e+00   2.048071075255005e+00  -1.139639999999886e-02  1.37285150e-01  -8.86821490e-01  -1.22998040e+00
C     7.410474629100000e+00   2.807454926323247e+00   1.020840000000000e-02  1.89890860e-01  -2.08996024e+00  -8.48541200e-01
C     8.680810061999999e+00   2.076401121104710e+00  -1.314852000000002e-01 -2.70916981e+00   3.08730510e-01   1.62352283e+00
C     9.846010286900000e+00   2.821302127278035e+00  -1.179866999999994e-01  2.79806252e+00  -1.78649907e+00  -8.97154960e-01
C     2.473770913700000e+00   4.246509770167465e+00  -4.102983000000009e-01  1.35504102e+00  -2.60527314e+00   4.89113180e-01
C     3.735187089199999e+00   4.915969814211456e+00  -2.891769000000011e-01 -5.21380080e-01  -2.98554360e-01  -7.71397040e-01
C     4.999117318200000e+00   4.173983599265480e+00  -2.169732000000018e-01 -1.66387307e+00   1.17283651e+00  -3.48482080e-01
C     6.218407876199999e+00   4.901949612904344e+00  -2.181372000000010e-01 -1.83376177e+00   7.73890060e-01   1.92003812e+00
C     7.401648893800001e+00   4.215032501225146e+00  -2.946120000000008e-02  2.15712580e+00  -2.71714200e-01  -5.35997570e-01
C     8.663484069999999e+00   4.920169128785311e+00  -8.888160000000056e-02 -1.05890602e+00   1.44362602e+00  -7.56030380e-01
C     9.860497239799999e+00   4.198765515480535e+00  -2.989281000000013e-01  5.69072730e-01   1.83240901e+00   9.72471390e-01
C     1.111958980770000e+01   4.942943267466204e+00  -4.345815000000002e-01 -1.36139569e+00  -3.09407692e+00   4.71407700e-01
C     3.666012188599999e+00   6.344036317809590e+00  -2.957394000000022e-01  2.96315045e+00  -6.67717390e-01   4.86831250e-01
C     4.943523877400000e+00   7.013940134228227e+00  -7.722030000000046e-02 -1.58612907e+00   1.73216750e+00  -4.58216160e-01
C     6.153496193100001e+00   6.327099446692825e+00  -3.178169999999980e-02  1.21808810e+00  -8.94255700e-02  -1.07420947e+00
C     7.379227056600000e+00   7.076431345404220e+00  -4.667880000000224e-02  1.00333777e+00   3.57725710e-01  -6.89219300e-02
C     8.629214752599999e+00   6.405042936623532e+00  -1.145063999999998e-01  4.80330170e-01  -2.99341767e+00  -4.81922000e-02
C     9.901566358299998e+00   7.033268782180441e+00  -2.162642999999989e-01 -2.28990793e+00   1.02003348e+00  -7.95797100e-02
C     1.107930860180000e+01   6.287793954502860e+00  -3.763079999999981e-01  1.44336609e+00   4.26519923e+00  -8.58889900e-02
C     1.233569533920000e+01   7.070914632293512e+00  -3.856655999999994e-01 -6.39584080e-01  -3.09490889e+00   6.86979220e-01
