32
Lattice="9.86 0 0 4.93 8.53901048131456 0 0 0 30 " PBC="1 1 1" Properties=species:S:1:pos:R:3:force:R:3 Energy="-256.67655035"
C     1.271064629200000e+00   7.954655252415872e-01   3.420252600000000e+00 -4.78181500e-02  -3.87637310e-01   2.82575290e-01
C     2.519126568600000e+00   1.470564134075837e+00   3.540326400000000e+00 -1.31478151e+00   1.39062628e+00   2.68351050e-01
C     3.752433313800000e+00   8.082726747199104e-01   3.501402600000000e+00 -1.08836795e+00  -9.23322450e-01  -2.68722270e-01
C     4.914125005600000e+00   1.582871932392151e+00   3.494113800000000e+00  2.29297618e+00  -2.25745947e+00   7.86161700e-02
C     6.147768962799999e+00   8.248345978864992e-01   3.442921500000000e+00  9.02821270e-01  -7.50985520e-01   4.81610000e-04
C     7.390868265599999e+00   1.502195702937529e+00   3.351451500000000e+00  1.15456519e+00  -4.81701040e-01   4.29392780e-01
C     8.674927191599998e+00   7.755935400525312e-01   3.353128200000000e+00 -1.97978923e+00   1.97616429e+00   7.84330300e-01
C     9.884741254300000e+00   1.514788437862700e+00   3.493446600000000e+00  3.99974530e-01  -1.28862453e+00  -1.09727182e+00
C     2.474448739400000e+00   2.903830553495872e+00   3.729591000000000e+00  1.67547568e+00   3.21700680e-01  -3.87874010e-01
C     3.722105876500000e+00   3.672392303808228e+00   3.759850200000000e+00 -1.72728180e-01  -5.41365020e-01  -8.00443090e-01
C     4.979551380699999e+00   2.980534349885092e+00   3.541043100000000e+00 -2.55847384e+00  -9.65731200e-02   1.40570170e-01
C     6.176672862600000e+00   3.635040537216088e+00   3.341210400000000e+00  1.58115538e+00   1.41078650e+00   8.68576730e-01
C     7.406015493400000e+00   2.901192853158600e+00   3.379709400000000e+00  1.04986678e+00   1.98981202e+00  -7.56787780e-01
C     8.689328756899998e+00   3.662516767407898e+00   3.424631100000000e+00 -2.64609579e+00  -1.39916697e+00   2.83558820e-01
C     9.870700170599999e+00   2.916698500728813e+00   3.529556100000000e+00  1.05346682e+00   1.00428379e+00   2.38375110e-01
C     1.111826418000000e+01   3.620255069789758e+00   3.681723000000000e+00 -2.45590920e-01  -6.16064930e-01   4.24446630e-01
C     3.714003027100000e+00   5.099989844950802e+00   3.728607600000000e+00  1.14797837e+00  -1.04271934e+00  -2.74066810e-01
C     4.985757609799999e+00   5.788456189301385e+00   3.534065700000000e+00 -2.01851989e+00   8.84047560e-01  -3.36704160e-01
C     6.199319409199999e+00   5.095786517042020e+00   3.350079000000000e+00 -2.27547191e+00  -2.57250213e+00   4.55696710e-01
C     7.373825649999999e+00   5.758723184029816e+00   3.334890300000000e+00  3.54858615e+00   1.95705437e+00   4.24368520e-01
C     8.633417380399999e+00   5.074830931423052e+00   3.468600900000000e+00  4.95347530e-01  -3.02452130e-01  -4.51258410e-01
C     9.870478862899999e+00   5.766744986645042e+00   3.585054000000000e+00  9.44409950e-01   1.91264550e-01   1.71173470e-01
C     1.113639790320000e+01   5.025179147184997e+00   3.770638500000000e+00 -2.10573877e+00   1.27629720e+00  -1.05940413e+00
C     1.233072535690000e+01   5.761814561993891e+00   3.731900700000000e+00  9.59293220e-01   1.23836196e+00   3.68543800e-02
C     4.938555571300000e+00   7.223754807825556e+00   3.430110300000000e+00  7.19150560e-01  -9.56311060e-01   2.81041800e-02
C     6.196953058499999e+00   7.896607998463985e+00   3.315869400000000e+00 -6.13430620e-01   1.18188292e+00   7.73811650e-01
C     7.426625851400000e+00   7.192462835410653e+00   3.372199200000000e+00  9.01183000e-02  -6.05149500e-02  -5.33693600e-01
C     8.680819281100000e+00   7.900576247414251e+00   3.409175700000000e+00 -5.31149190e-01   7.28407730e-01   3.74147820e-01
C     9.899918012800001e+00   7.204331718417434e+00   3.496068300000000e+00  6.69564730e-01  -1.01452696e+00   4.97444130e-01
C     1.115983379210000e+01   7.907372787415701e+00   3.553258800000000e+00 -2.78555277e+00   1.31556169e+00  -6.38681290e-01
C     1.235226906250000e+01   7.199194393542352e+00   3.587262000000000e+00 -1.18103730e-01  -3.39868610e-01   1.36641810e-01
C     1.354996518520000e+01   7.938140123026713e+00   3.462715500000000e+00  1.81686182e+00  -1.83445600e+00  -9.26099300e-02
