32
Lattice="9.86 0 0 4.93 8.53901048131456 0 0 0 30 " PBC="1 1 1" Properties=species:S:1:pos:R:3:force:R:3 Energy="-257.25400769"
C     9.850774145899999e+00   2.172074073104936e-01   7.912920000000001e-02 -9.24580860e-01   8.55129100e-02  -4.14108800e-02
C     1.204604679600000e+00   9.221858070064640e-01   5.848410000000000e-02  6.76835770e-01   1.81570810e-01  -1.15927060e-01
C     2.437109165899999e+00   2.184993595961176e-01   8.579190000000000e-02  1.16438438e+00   1.80655580e-01  -3.53746690e-01
C     3.695407116400000e+00   9.202054396959424e-01  -3.376590000000235e-02 -1.48982384e+00   4.79059360e-01   1.02535483e+00
C     4.897970282999999e+00   2.189544034645968e-01   1.148004000000000e-01  9.18762590e-01  -1.96169860e-01  -5.24315150e-01
C     6.144847543399999e+00   9.382152374795200e-01   1.081338000000000e-01 -1.00364610e+00  -4.58564670e-01  -1.55167690e-01
C     7.340860071100000e+00   2.270721845576184e-01   7.587570000000000e-02  2.08485323e+00  -1.15534430e-01   3.10167610e-01
C     8.613219219699999e+00   9.302216135988777e-01   5.818680000000000e-02 -8.74673670e-01  -2.26857230e-01   1.25474220e-01
C     1.107395624870000e+01   2.342197718189129e+00  -1.895820000000015e-02  9.26109720e-01  -2.94808760e-01  -5.07258530e-01
C     2.443228824200000e+00   3.061825131923958e+00  -9.591209999999961e-02  3.53444780e-01   3.84440050e-01   1.36410110e-01
C     3.664850680599999e+00   2.345363043983960e+00  -7.977419999999924e-02  1.46035995e+00   3.89374710e-01   3.83180680e-01
C     4.932820058599999e+00   3.078260848515653e+00   2.787930000000000e-02 -1.42331911e+00  -1.94645539e+00  -4.77605630e-01
C     6.164305464599999e+00   2.340728581436045e+00   9.667380000000000e-02 -6.07587970e-01   1.24202290e+00   1.11829090e-01
C     7.384695264699999e+00   3.058710015510750e+00   1.343079000000000e-01  2.56909970e-01   7.29410770e-01  -6.14505840e-01
C     8.607783007300000e+00   2.350339664681809e+00   4.990740000000000e-02  5.98974540e-01  -3.77740430e-01   2.14122100e-02
C     9.870406391900000e+00   3.033292113795143e+00  -4.753889999999927e-02 -1.88828308e+00   6.69210330e-01   9.76277570e-01
C     1.232633341710000e+01   4.511176912335693e+00  -1.014206999999985e-01 -1.35909299e+00  -9.83392570e-01  -3.32259300e-02
C     3.670183806700000e+00   5.219880284573355e+00  -3.094709999999878e-02  8.84233660e-01  -1.62539530e-01   3.46158900e-02
C     4.884365159200000e+00   4.459824754940755e+00   1.344210000000000e-02  1.65114473e+00   2.30738728e+00   5.63896390e-01
C     6.152426777500001e+00   5.195325847597486e+00   1.383285000000000e-01 -1.34930347e+00   2.36032620e-01  -5.96309880e-01
C     7.385227113099999e+00   4.512208766362097e+00   1.148124000000000e-01 -1.01396047e+00  -1.51048009e+00   4.64088230e-01
C     8.586303046599998e+00   5.207561481104382e+00   1.175163000000000e-01  2.53028232e+00  -1.35879139e+00  -2.72150650e-01
C     9.835830970800000e+00   4.436942768557500e+00   3.971429999999999e-02  4.98816610e-01   2.39471975e+00  -8.89449940e-01
C     1.107754040800000e+01   5.203293171325850e+00  -9.010860000000065e-02 -5.74885880e-01  -5.08386200e-01   6.36705920e-01
C     1.354885189260000e+01   6.651102891835001e+00   4.954230000000000e-02 -1.15238332e+00  -8.37160160e-01  -1.94205530e-01
C     4.902630710600000e+00   7.338519194066860e+00   9.328350000000001e-02  1.10542616e+00   1.68980670e-01   1.03598110e-01
C     6.138540347899999e+00   6.623750306514942e+00   1.332312000000000e-01  1.23815021e+00   1.90675690e-01   2.86285410e-01
C     7.419781137999999e+00   7.355239430487749e+00   1.716348000000000e-01 -1.47833918e+00  -1.59502882e+00  -4.32926900e-01
C     8.663107368700000e+00   6.604969606865230e+00   1.297557000000000e-01 -2.32295856e+00   1.11662815e+00   3.07313100e-01
C     9.849379843299999e+00   7.327346838144933e+00   1.198320000000000e-01  1.11052372e+00   5.23358330e-01  -6.60885800e-01
C     1.108916253790000e+01   6.634828135590856e+00  -4.024829999999824e-02 -8.51537630e-01  -7.14523930e-01   1.00989224e+00
C     1.229344740840000e+01   7.346491726591617e+00   6.279570000000000e-02  8.55163770e-01   7.39357000e-03  -6.27409490e-01
