32
Lattice="9.86 0 0 4.93 8.53901048131456 0 0 0 30 " PBC="1 1 1" Properties=species:S:1:pos:R:3:force:R:3 Energy="-254.36495009"
C     5.155412812400000e+00   7.583617998258703e+00  -1.107578999999994e-01  1.20733957e+00   5.13805230e-01  -1.67600090e-01
C     6.465247750400000e+00   8.275387829593685e+00  -1.662278999999991e-01 -2.66021677e+00   2.86418880e-01   5.55619700e-02
C     7.678671411200000e+00   7.555839914046424e+00  -2.204571000000008e-01  8.61858800e-02   2.26382024e+00  -4.48573060e-01
C     8.893675038400000e+00   8.255819491617297e+00  -4.057995000000005e-01  8.41959500e-01   1.82999927e+00   2.50376191e+00
C     1.013671532910000e+01   7.489033001583734e+00  -2.572416000000004e-01 -9.23206400e-02   5.70747971e+00  -2.55396390e-01
C     1.137504604010000e+01   8.189579227890061e+00  -1.222361999999997e-01 -2.11476341e+00   4.07791953e+00  -1.33363123e+00
C     1.254401564440000e+01   7.478309456052635e+00  -2.811918000000020e-01  7.26126370e-01   6.93566700e-01   2.29804371e+00
C     1.372130087690000e+01   8.201747317824060e+00  -7.602870000000195e-02  3.21241267e+00   2.33625483e+00  -1.07801470e+00
C     1.487956676100000e+00   1.142655628660946e+00  -2.376359999999984e-01 -1.18631996e+00   1.95372297e+00  -5.64996450e-01
C     2.660506446399999e+00   1.941173764759029e+00  -2.741492999999977e-01  2.73282133e+00  -3.23539419e+00  -2.80855160e-01
C     3.957064549299999e+00   1.202059133647372e+00  -2.438783999999998e-01 -1.53237341e+00  -1.74383017e+00  -1.07531434e+00
C     5.168481848000000e+00   1.913639383905850e+00  -2.386230000000005e-01  1.49339805e+00  -2.67341304e+00   1.90399210e-01
C     6.430285915900001e+00   1.195778520659122e+00  -1.276754999999987e-01  6.99126100e-01  -2.42055683e+00  -6.44338240e-01
C     7.721979341299999e+00   1.878859567270286e+00  -2.155994999999997e-01 -4.99631889e+00   1.06323762e+00   1.29340390e-01
C     8.865768231099999e+00   1.126091826912052e+00  -1.541958000000001e-01  1.11473011e+00   1.81998780e-01  -6.49315880e-01
C     1.007766866980000e+01   1.904018480798034e+00  -3.377238000000027e-01  1.45272347e+00  -2.36759240e+00   1.05534736e+00
C     2.699693537400000e+00   3.307375649770192e+00  -3.670941000000028e-01  8.83365510e-01   2.44400534e+00   1.35036563e+00
C     4.013241011900000e+00   4.050227805768944e+00  -2.226488999999994e-01 -3.38267783e+00  -2.55752092e+00  -1.43841069e+00
C     5.167653558700000e+00   3.271480638365940e+00  -3.296370000000017e-01  1.89804506e+00   4.49117750e+00   1.52068876e+00
C     6.427865285899999e+00   4.092630824010529e+00  -2.308170000000018e-01 -1.75800308e+00  -4.02341148e+00  -1.78455011e+00
C     7.601120736400000e+00   3.340153324618511e+00  -3.356709000000002e-01  3.75861010e+00  -8.01849900e-02   9.68879430e-01
C     8.861676281799999e+00   4.078286054915072e+00  -3.318480000000008e-01  4.26672480e-01  -1.06618826e+00   2.99666600e-02
C     1.012280893300000e+01   3.329451724344346e+00  -3.942440999999981e-01 -2.85177776e+00  -3.74573980e-01   4.33874010e-01
C     1.131866320770000e+01   4.036989948602010e+00  -3.306570000000022e-01  1.97152971e+00  -3.05028803e+00  -3.97857960e-01
C     3.944783475600000e+00   5.435955419094199e+00  -1.955685000000003e-01  2.19909522e+00   8.76088790e-01  -8.00369700e-02
C     5.197979467700000e+00   6.206569947525947e+00  -2.097425999999984e-01 -3.13738920e-01  -2.76452992e+00  -4.96866770e-01
C     6.445505417500000e+00   5.450554650701961e+00  -3.702278999999997e-01  7.24623300e-02   3.27453876e+00   2.54969857e+00
C     7.723865362100000e+00   6.192655971509208e+00  -1.640622000000000e-01 -2.87178515e+00  -2.23763937e+00  -1.35708409e+00
C     8.922616751300000e+00   5.513354120156283e+00  -2.070599999999985e-01  3.11087060e-01  -2.62182954e+00  -8.10727410e-01
C     1.017158339500000e+01   6.171929999882046e+00  -2.660097000000015e-01 -2.31471010e-01  -4.62620411e+00   4.19866600e-01
C     1.139538263520000e+01   5.376006442118312e+00  -2.506575000000026e-01 -3.28421674e+00   2.90580150e+00  -2.25707600e-02
C     1.255624258670000e+01   6.071151829686143e+00  -1.983713999999992e-01  2.18829305e+00   9.43321580e-01  -6.19653900e-01
