64
Lattice="9.86 0 0 4.93 8.53901048131456 0 0 0 30 " PBC="1 1 1" Properties=species:S:1:pos:R:3:force:R:3 Energy="-515.53671241"
C     5.171257240799999e+00   6.660473772715963e+00  -2.285585999999995e-01 -3.70247180e-01  -4.29306090e-01  -4.38130500e-01
C     6.396148771799999e+00   7.375167260805344e+00  -3.397574999999975e-01  9.28276900e-02  -6.17981360e-01   1.11737893e+00
C     9.660148793899999e+00   1.868360853885126e+00   3.805869900000000e+00 -3.95980700e-01   1.83979192e+00   4.10092780e-01
C     1.086991503560000e+01   2.651496133383698e+00   3.856052400000000e+00  2.91722040e-01  -3.17727497e+00  -6.04331500e-02
C     7.613780335500000e+00   6.644466629060259e+00  -2.590755000000016e-01  1.66282504e+00   5.89649820e-01  -5.74985480e-01
C     8.877548121000000e+00   7.361106926148977e+00  -2.941131000000006e-01 -1.56441667e+00   5.07956340e-01   9.67946000e-02
C     2.250404692200000e+00   1.903206420901386e+00   3.868185300000000e+00 -2.77241320e-01  -1.25473040e-01  -3.16279060e-01
C     3.476556084699999e+00   2.593594213390180e+00   3.752712000000000e+00  5.08078730e-01   2.51199900e-01   2.58361700e-02
C     1.011295765910000e+01   6.653461793480101e+00  -3.022539000000002e-01 -2.24551362e+00  -7.43974680e-01   1.34568000e-02
C     1.129366751610000e+01   7.374464756413155e+00  -2.440899000000023e-01  1.64595404e+00  -2.05120100e-02  -8.17092000e-03
C     4.706404385599999e+00   1.850679893395133e+00   3.715462200000000e+00 -1.36676960e-01   1.67742618e+00  -9.80048470e-01
C     5.949927964199999e+00   2.569714443632336e+00   3.639497400000000e+00  2.16543130e-01  -9.58027220e-01   5.66275700e-02
C     1.253618261390000e+01   6.635797142500126e+00  -1.988492999999991e-01  5.57291410e-01   1.61520077e+00  -5.08391880e-01
C     1.380555502060000e+01   7.357256003202705e+00  -2.932319999999997e-01 -1.47236565e+00   6.11250030e-01   7.20090790e-01
C     7.193038359500000e+00   1.868270340374038e+00   3.651402000000000e+00 -1.41739600e-01   9.79950000e-03   2.23138110e-01
C     8.417932897800000e+00   2.585800743915189e+00   3.736920600000000e+00 -4.16774740e-01  -1.01618580e-01  -8.98663300e-02
C     1.465751956100000e+00   2.491911249643816e-01  -3.483762000000006e-01 -1.07330840e+00   2.62188400e-01  -9.69527660e-01
C     2.669795157999999e+00   9.637111857509136e-01  -4.162415999999993e-01  7.13300180e-01   9.14378240e-01   7.81799730e-01
C     1.086348449150000e+01   4.032053546643522e+00   3.793543200000000e+00  7.65800040e-01   7.26945170e-01  -4.72420720e-01
C     1.211458400110000e+01   4.721792801286361e+00   3.670191300000000e+00 -3.55245770e-01   9.44804380e-01  -4.49830900e-02
C     3.873354086000000e+00   2.588167245279616e-01  -3.072780000000002e-01  2.60985352e+00  -3.86087780e-01  -1.93888700e-02
C     5.152302771200000e+00   9.928707110786464e-01  -2.480963999999979e-01 -2.13858152e+00  -5.75492130e-01  -3.86677770e-01
C     3.481380632000000e+00   4.028123808630522e+00   3.641517300000000e+00  6.20962740e-01  -6.57460870e-01   3.77295220e-01
C     4.744637817400000e+00   4.722391471311114e+00   3.612409500000000e+00 -1.06088149e+00  -8.49555100e-01  -1.06157230e-01
C     6.347309529600000e+00   2.675833850273584e-01  -2.586309000000000e-01  1.29381495e+00  -2.90303320e-01   3.45596890e-01
C     7.593422245600000e+00   9.809353945703312e-01  -2.743794000000008e-01  5.82415920e-01  -1.36163613e+00  -3.01985800e-01
C     5.972631698799999e+00   3.968340659238155e+00   3.616578300000000e+00 -1.72461928e+00   1.97692444e+00   5.87005280e-01
C     7.129818110100000e+00   4.754708295763827e+00   3.735945600000000e+00  2.11851805e+00  -1.90549465e+00  -7.82121480e-01
C     8.855328758899999e+00   2.753317685270152e-01  -3.452969999999986e-01 -1.02816564e+00  -1.47172266e+00   1.79806250e-01
C     1.007918479270000e+01   9.562843813859335e-01  -4.223736000000002e-01  4.46232310e-01   4.43648230e-01   1.90780940e-01
C     8.367834582899999e+00   4.004470322650397e+00   3.748287300000000e+00  1.43243627e+00   1.05571019e+00   1.51775300e-01
C     9.640927068999998e+00   4.718530813892896e+00   3.752814300000000e+00 -1.77534587e+00   3.14213990e-01  -3.52387080e-01
C     2.729762593400000e+00   2.407808998404410e+00  -4.006667999999998e-01 -2.99590008e+00  -6.28770850e-01  -3.83814200e-01
C     3.907990737700000e+00   3.119237766616972e+00  -3.046892999999997e-01  1.27149295e+00  -5.26882100e-02  -2.24704500e-02
C     1.211068215260000e+01   6.162204750066165e+00   3.593483700000000e+00 -1.26960457e+00  -8.20300560e-01   2.27678720e-01
C     1.331577465570000e+01   6.854810465137034e+00   3.654351300000000e+00  1.76671273e+00   6.37049990e-01   2.41728100e-01
C     5.129724998099999e+00   2.409189329448501e+00  -2.565720000000020e-01  1.44655244e+00  -5.53187800e-02   4.05568000e-03
C     6.393298393699999e+00   3.101081610193767e+00  -2.606613000000024e-01 -9.66757910e-01   3.69078720e-01   1.38565920e-01
C     4.717474700600000e+00   6.131977336087804e+00   3.667101000000000e+00 -2.42492010e-01   7.04173570e-01   3.11287710e-01
C     5.945561216700000e+00   6.848768773662015e+00   3.797192100000000e+00 -1.09450670e+00   1.85359654e+00  -6.13774490e-01
C     7.604452430400000e+00   2.377374769592222e+00  -2.942162999999987e-01 -1.59089940e-01   3.43289200e-01  -3.39585190e-01
C     8.823757137499999e+00   3.072476608206606e+00  -4.344254999999997e-01  1.28162179e+00  -6.13736300e-02   3.10435650e-01
C     7.155607679599999e+00   6.163678412494804e+00   3.721384800000000e+00  7.25705520e-01   2.74595100e-02   7.92677960e-01
C     8.407223803899999e+00   6.867379717783384e+00   3.740141700000000e+00 -5.65631300e-01  -3.63346170e-01  -7.82422950e-01
C     1.006806926960000e+01   2.377656556938062e+00  -4.922792999999999e-01  9.94411150e-01   4.60442420e-01   1.45511020e-01
C     1.133100013830000e+01   3.123881622076415e+00  -4.832757000000001e-01 -6.99166810e-01  -1.36134993e+00   5.91075630e-01
C     9.613919592300000e+00   6.136728014568352e+00   3.628796100000000e+00  8.91349360e-01   4.39158590e-01   6.64700040e-01
C     1.085298679600000e+01   6.864100310808541e+00   3.582696600000000e+00  3.40084200e-01   4.42879690e-01  -1.78099230e-01
C     3.927102030600000e+00   4.526453116694308e+00  -2.693705999999985e-01 -1.11055653e+00   6.72470590e-01   7.67714370e-01
C     5.156775464400000e+00   5.222347119310922e+00  -1.680644999999998e-01  6.86874680e-01   6.38370110e-01  -8.09157610e-01
C     1.333363363000000e+01   8.295202091071896e+00   3.758341500000000e+00  9.70018240e-01  -1.36443805e+00  -3.89421520e-01
C     9.645674658999999e+00   4.641659225947744e-01   3.864949800000000e+00 -4.86318510e-01  -3.10527000e-02  -5.35264950e-01
C     6.414366403599999e+00   4.527576167352638e+00  -2.464113000000019e-01 -4.83858590e-01  -2.34335730e-01   3.62183900e-01
C     7.660173558200000e+00   5.231267140438539e+00  -2.690756999999984e-01 -1.42179244e+00  -5.49572980e-01  -2.33380090e-01
C     5.928972604799999e+00   8.316183464502513e+00   3.855027000000000e+00  1.47158409e+00  -1.97314203e+00   2.78676720e-01
C     2.262586722200000e+00   4.606732965282448e-01   3.866349300000000e+00 -1.15101085e+00   7.04721220e-01  -3.14289270e-01
C     8.868347360599998e+00   4.480296178665506e+00  -3.905202000000010e-01 -1.62297926e+00   9.59632250e-01   1.51510110e-01
C     1.004425155220000e+01   5.208581551296323e+00  -3.900684000000005e-01  2.16322358e+00   1.16227324e+00   4.53368380e-01
C     8.412311366699999e+00   8.287704754480352e+00   3.724992000000000e+00 -6.49007780e-01  -3.90858820e-01  -3.16810100e-02
C     4.682116937799999e+00   4.599346721217248e-01   3.573733800000000e+00  1.42698909e+00  -2.70745090e-01   1.02233408e+00
C     1.128456412320000e+01   4.529516059753485e+00  -3.585621000000003e-01  6.40667660e-01  -4.13583580e-01  -2.27957890e-01
C     1.251390532430000e+01   5.231439713840341e+00  -2.235456000000013e-01  1.19849451e+00  -1.84178090e-01  -5.14523550e-01
C     1.086576037670000e+01   8.308433885541390e+00   3.552315600000000e+00  3.14086200e-01  -1.36729886e+00   1.52768900e-01
C     7.208998494999999e+00   4.464044392359552e-01   3.644763000000000e+00 -2.04134203e+00   6.84840000e-01  -1.08999030e-01
