64
Lattice="9.86 0 0 4.93 8.53901048131456 0 0 0 30 " PBC="1 1 1" Properties=species:S:1:pos:R:3:force:R:3 Energy="-515.04536481"
C     5.011849191100000e+00   6.765181424754553e+00  -2.041110000000046e-02 -8.90783220e-01   8.53026420e-01  -3.35752320e-01
C     6.211027616899999e+00   7.515792552625958e+00  -1.522964999999985e-01  7.40464500e-01  -1.21506466e+00   3.89895850e-01
C     9.796741888199998e+00   1.689870344772210e+00   3.482147400000000e+00 -1.63047514e+00   1.62658561e+00  -3.62900120e-01
C     1.096612620410000e+01   2.460456523689164e+00   3.560694000000000e+00  2.00733084e+00  -1.23434697e+00   2.36037300e-01
C     7.428893109100000e+00   6.810321195854977e+00  -2.783931000000024e-01  2.62848939e+00  -5.76515960e-01   5.32918220e-01
C     8.707887199600000e+00   7.529776633918740e+00  -1.712498999999994e-01 -9.86298710e-01   1.45528520e-01  -5.21457520e-01
C     2.357561348100000e+00   1.760560457640785e+00   3.603886500000000e+00  3.67917680e-01  -9.80920960e-01  -7.80657520e-01
C     3.633481928700000e+00   2.405135861173646e+00   3.505636200000000e+00 -5.37635720e-01   1.41823463e+00   1.38838892e+00
C     9.954402302199998e+00   6.816802731759821e+00  -5.257439999999747e-02 -1.87618131e+00  -1.58402010e-01   4.89388430e-01
C     1.115274036020000e+01   7.538659254180454e+00   9.081660000000001e-02  8.80053430e-01  -9.52360300e-02  -8.19436880e-01
C     4.883719477100000e+00   1.693438028740858e+00   3.514331700000000e+00 -1.29451415e+00   2.78394020e+00  -6.63287740e-01
C     6.075913078899999e+00   2.491777614129804e+00   3.405673500000000e+00  8.81693050e-01  -1.74181709e+00   4.87161460e-01
C     1.236487867140000e+01   6.800857495930098e+00   9.842669999999999e-02  1.71110741e+00   4.13713950e-01  -1.13398260e-01
C     1.364076789720000e+01   7.489178079371789e+00   6.420089999999999e-02 -9.53722710e-01   4.85346120e-01  -1.65502320e-01
C     7.308716816200000e+00   1.746654252123581e+00   3.420009300000000e+00  1.08909645e+00   3.60502270e-01  -5.91851660e-01
C     8.576270397999998e+00   2.443760623448144e+00   3.329953500000000e+00 -9.91284310e-01  -2.52879480e-01   6.88427700e-01
C     1.317923096000000e+00   3.649444993994800e-01  -3.980999999981805e-04 -1.69642690e-01   1.74439933e+00  -1.03098765e+00
C     2.518837226900000e+00   1.139642041082345e+00  -1.254653999999995e-01  1.30404013e+00  -7.23716250e-01   6.23387900e-01
C     1.101966950440000e+01   3.860832980273069e+00   3.560014500000000e+00 -1.31103112e+00   3.45957470e-01  -5.39204920e-01
C     1.223125693740000e+01   4.547822673541347e+00   3.618942000000000e+00  1.43474648e+00   1.16781881e+00   2.09453420e-01
C     3.771126099000000e+00   4.343777553155040e-01  -2.058408000000007e-01  5.64573180e-01  -1.26835188e+00   6.60711510e-01
C     5.058217615900000e+00   1.096864672621318e+00  -1.588133999999997e-01 -2.64970488e+00   1.13361298e+00  -7.16899200e-02
C     3.614278691300000e+00   3.852259386800625e+00   3.648654300000000e+00  9.49357030e-01  -4.13528120e-01  -5.70495210e-01
C     4.865900879500000e+00   4.597853504454611e+00   3.648993000000000e+00 -7.61113440e-01  -8.00531660e-01  -1.05514027e+00
C     6.268370517500000e+00   4.205156110923768e-01  -4.108919999999827e-02  6.63123010e-01  -1.96791910e-01  -5.80477700e-02
C     7.514422200099999e+00   1.166263943275631e+00  -7.746240000000171e-02 -1.19876508e+00  -3.37644166e+00   4.86809800e-02
C     6.099333339699999e+00   3.916627130919703e+00   3.397812300000000e+00 -7.77779310e-01  -7.49528850e-01   5.69999990e-01
C     7.326482219100000e+00   4.601490610578462e+00   3.260430000000000e+00  1.16618498e+00   2.10789400e-02  -7.28094200e-02
C     8.720079385400000e+00   3.990185668188720e-01  -7.357800000001191e-03 -4.00853750e-01  -9.48002990e-01   3.44980620e-01
C     9.945624880899999e+00   1.067894542546031e+00   1.105140000000000e-02 -1.58668270e-01   1.31954617e+00   9.72952900e-02
C     8.565998595100000e+00   3.881187675724559e+00   3.263970000000000e+00  5.69938040e-01  -5.78581550e-01   2.02962010e-01
C     9.819406971599999e+00   4.582115681189446e+00   3.366738300000000e+00 -1.48697368e+00   1.24007012e+00   2.83438100e-02
C     2.562610154600000e+00   2.559502982559723e+00   6.489300000000000e-03 -1.94212051e+00  -4.86669180e-01  -1.49435420e-01
C     3.793659058400000e+00   3.262735240002638e+00  -5.009190000000174e-02 -1.06119784e+00  -1.12412809e+00  -7.84741770e-01
C     1.225184274400000e+01   5.995670136476821e+00   3.588469200000000e+00 -8.80018500e-01  -5.54051130e-01  -3.51649600e-02
C     1.346327542430000e+01   6.698505586102730e+00   3.493270200000000e+00  1.17424422e+00  -1.35478950e-01   1.01632845e+00
C     4.978739113900000e+00   2.523601310727297e+00  -2.031935999999988e-01  2.36779155e+00   3.59702590e-01   1.83996680e-01
C     6.237642714900000e+00   3.232633264088228e+00  -2.942904000000013e-01 -1.22673961e+00   2.41269090e-01   1.08882090e-01
C     4.857278851799999e+00   6.002834366269540e+00   3.598985400000000e+00  3.75109210e-01  -1.67254320e-01  -9.11586110e-01
C     6.126399434100000e+00   6.666360481150770e+00   3.431107200000000e+00 -1.54334533e+00   1.79237933e+00   4.30140000e-04
C     7.457164933600000e+00   2.528579810007451e+00  -2.195831999999989e-01  5.49765460e-01   1.55083299e+00   3.40590370e-01
C     8.669190249200000e+00   3.247853964878723e+00  -7.429649999999910e-02  1.10348629e+00  -7.45492810e-01  -2.86570310e-01
C     7.370437113099999e+00   6.027036056722481e+00   3.248799300000000e+00 -8.94110740e-01  -3.64961350e-01   9.34491870e-01
C     8.572701028699999e+00   6.785329390762322e+00   3.327191700000000e+00 -6.90536800e-02  -1.73737830e+00   2.59898370e-01
C     9.885352081299999e+00   2.504363774016905e+00   1.153530000000000e-02  1.88099997e+00   7.05635140e-01   3.36410410e-01
C     1.114915358800000e+01   3.241293272346729e+00   8.749949999999999e-02 -7.17073000e-03   1.29215080e-01  -3.36947340e-01
C     9.793681541400000e+00   6.040349996472792e+00   3.382794300000000e+00  3.99502920e-01  -6.33419470e-01   4.77898900e-01
C     1.101886694970000e+01   6.731885944310728e+00   3.584366400000000e+00  2.75420480e-01   2.24478790e-01  -5.11760750e-01
C     3.769631618800000e+00   4.656422491946826e+00  -8.902439999999956e-02 -9.92393400e-02   1.27283736e+00   9.34602440e-01
C     5.006720610700000e+00   5.349182421546963e+00  -9.634469999999951e-02  5.75565180e-01   3.89465010e-01  -1.03517489e+00
C     1.347913572730000e+01   8.108730681203951e+00   3.443777700000000e+00 -7.24400280e-01   5.39890790e-01   3.13037010e-01
C     9.754723991200001e+00   2.826767691715968e-01   3.483527400000000e+00  1.23386643e+00  -5.67537090e-01  -2.32255030e-01
C     6.243980032700000e+00   4.657613769298890e+00  -3.273267000000004e-01  4.68127160e-01  -1.49754240e-01   9.14853150e-01
C     7.514524842699999e+00   5.363236437335576e+00  -3.059390999999998e-01 -2.24446314e+00   9.72277530e-01   5.43702450e-01
C     6.050721764900000e+00   8.102284411412391e+00   3.463302000000000e+00  1.51141690e+00   5.56193880e-01   3.49189690e-01
C     2.350247298700000e+00   3.315075275520008e-01   3.535526100000000e+00 -1.30457080e-01  -5.20015610e-01  -9.98288200e-02
C     8.716552512699998e+00   4.655921337421755e+00  -7.799520000000015e-02 -6.12381910e-01   5.57741870e-01  -7.05496700e-01
C     9.915769096700000e+00   5.378727227027555e+00   4.031490000000000e-02  1.25668205e+00   7.43145310e-01  -3.03288800e-01
C     8.535947435000001e+00   8.176743301946420e+00   3.521797500000000e+00 -7.21620720e-01  -1.97332410e-01  -8.04220720e-01
C     4.834220896700000e+00   3.090996270305944e-01   3.503966100000000e+00  1.76184796e+00   2.80638800e-02   9.18915060e-01
C     1.115691232340000e+01   4.683854917014873e+00   9.779579999999999e-02 -3.12513350e-01  -1.04154923e+00  -1.52681830e-01
C     1.238874741430000e+01   5.388667318347113e+00   3.503040000000000e-02  1.61311670e-01  -5.64651130e-01   2.61591940e-01
C     1.102319233450000e+01   8.176410536708014e+00   3.599808300000000e+00 -1.14578280e-01  -1.75915609e+00  -8.89293510e-01
C     7.343070929599999e+00   3.054392094081328e-01   3.491702400000000e+00 -1.40676309e+00   9.96552950e-01   9.45485000e-02
