32
Lattice="9.86 0 0 4.93 8.53901048131456 0 0 0 30 " PBC="1 1 1" Properties=species:S:1:pos:R:3:force:R:3 Energy="-253.96094118"
C     5.048705821800000e+00   8.265019250728241e+00  -1.461047999999998e-01 -3.93332562e+00  -1.72483539e+00  -3.41676820e-01
C     1.268268579700000e+00   4.223333956433592e-01  -1.769324999999995e-01  3.38253044e+00   2.13016666e+00   4.31665830e-01
C     7.476779283700000e+00   8.267493087454401e+00  -3.652923000000001e-01  8.81697180e-01   2.58421729e+00   1.53024020e+00
C     3.855982885900000e+00   4.776653296527112e-01  -1.422548999999975e-01 -3.91648340e+00  -3.39608600e-01  -3.31688360e-01
C     9.967512207499999e+00   8.300994699611213e+00  -1.522182000000001e-01  1.44267686e+00  -3.14911294e+00   2.07379380e-01
C     6.354321665800000e+00   4.171127300259920e-01  -1.525277999999979e-01 -6.35093870e+00   1.17040961e+00   1.58019560e-01
C     1.241944736240000e+01   8.282152946036570e+00  -1.519098000000021e-01  2.62777733e+00  -3.44689424e+00   1.00799714e+00
C     8.707543677199999e+00   4.717844277450304e-01  -2.085182999999979e-01  1.22442370e+00  -3.16073741e+00   6.93118860e-01
C     1.236454451600000e+00   1.857411366136726e+00   1.756761000000000e-01  2.36073255e+00   1.47547500e-01  -8.84116910e-01
C     2.525316824500000e+00   2.612522296360777e+00   3.428376000000000e-01 -6.48612170e-01  -1.79577137e+00  -6.56758670e-01
C     3.738051419200000e+00   1.895221762981747e+00   1.228290000000000e-01  2.06324076e+00  -5.77963730e-01  -2.06601500e-01
C     5.029673852599999e+00   2.564596502311043e+00   6.146400000000000e-02 -1.25017392e+00  -5.73586850e-01   2.86535200e-01
C     6.256518107300000e+00   1.818786603862228e+00  -9.869369999999833e-02 -1.01721768e+00   1.02045172e+00  -9.60839750e-01
C     7.437704054399999e+00   2.521469205200546e+00  -2.537990999999984e-01  5.19684870e-01   2.03817805e+00   1.15301024e+00
C     8.646504361200000e+00   1.831430231289859e+00  -1.834868999999983e-01  2.65063699e+00   2.57883975e+00   4.55079260e-01
C     9.904991820900001e+00   2.587488479336561e+00   1.138566000000000e-01 -9.48652520e-01  -6.22124060e-01  -2.39845450e-01
C     2.574263935100000e+00   4.030103578210309e+00   5.195991000000000e-01  6.82860700e-01  -1.45327614e+00   2.38754800e-02
C     3.832486012900000e+00   4.749330256183313e+00   4.769988000000001e-01 -5.29222860e-01  -1.58551301e+00  -6.50174110e-01
C     5.014434680299999e+00   3.976362120292963e+00   1.257627000000000e-01  7.24076880e-01   2.14854916e+00  -1.30468490e-01
C     6.215121834000000e+00   4.742720976681688e+00  -2.128848000000012e-01  4.48262810e-01  -2.62288576e+00   1.58165201e+00
C     7.462111794199998e+00   3.958769965511962e+00  -1.712549999999986e-01 -1.64996069e+00   8.38097680e-01  -6.86189090e-01
C     8.624838638100000e+00   4.704397470696923e+00  -1.611060000000109e-02  3.68343370e+00  -1.15084792e+00   7.10428220e-01
C     9.958077124199999e+00   4.006653833020239e+00   2.609460000000000e-01 -2.28865235e+00  -2.96243140e-01  -7.06991590e-01
C     1.120542800970000e+01   4.666916167315802e+00   4.612605000000000e-01 -1.61920200e+00   2.37185745e+00  -3.93499200e-01
C     3.822242163100000e+00   6.164890354252230e+00   4.322760000000000e-01 -1.91410179e+00  -2.38327360e-01  -2.31575713e+00
C     4.994006880200000e+00   6.770027740152477e+00  -6.546900000000022e-02 -7.23320080e-01   4.37444077e+00   9.63660240e-01
C     6.199042836200000e+00   6.150625851855285e+00  -2.228421000000012e-01  2.03159882e+00  -8.59083240e-01  -8.71769350e-01
C     7.442740493099999e+00   6.902628069923986e+00  -4.101147000000012e-01  1.01686796e+00  -3.12040565e+00   1.49216192e+00
C     8.688596011000000e+00   6.100399562992134e+00  -1.043664000000000e-01 -1.78865371e+00   1.61727481e+00  -1.49369998e+00
C     9.914687799799999e+00   6.760368240717291e+00  -6.854549999999904e-02  1.90218910e+00   3.03111970e+00   9.15170850e-01
C     1.120267465400000e+01   6.116459733902919e+00   2.928162000000000e-01 -3.16436350e+00  -5.58985030e-01  -8.34965570e-01
C     1.235199382060000e+01   6.845431984536746e+00   2.137347000000000e-01  4.10019034e+00   1.22505172e+00   9.50476000e-02
