32
Lattice="9.86 0 0 4.93 8.53901048131456 0 0 0 30 " PBC="1 1 1" Properties=species:S:1:pos:R:3:force:R:3 Energy="-251.9749377"
C     4.950173510699999e+00   8.224632890591717e+00  -1.622769000000019e-01  4.37702367e+00   1.95622265e+00  -1.03528332e+00
C     1.367770178100000e+00   4.923652361940312e-01  -2.923667999999999e-01 -2.66089958e+00  -1.74119968e+00   2.83373907e+00
C     7.499571856899999e+00   8.290520749356446e+00  -2.600841000000003e-01 -6.91700530e-01  -5.57944570e-01  -1.30922037e+00
C     3.756216891600000e+00   4.767908495894544e-01  -1.531362000000023e-01  1.30601621e+00  -2.01240941e+00  -6.93400000e-02
C     9.940409778999999e+00   8.146105673904598e+00  -2.369130000000013e-01 -4.01209100e-01   5.66840861e+00   1.65390013e+00
C     6.159140747299999e+00   3.879360412871944e-01  -9.336629999999957e-02  4.03351402e+00   1.73151615e+00  -8.79912920e-01
C     1.244124096970000e+01   8.270544759019742e+00  -7.763070000000027e-02 -3.23079401e+00  -7.82911240e-01   1.91506740e-01
C     8.723025257600000e+00   4.057683130428928e-01  -2.956293000000016e-01 -1.79618183e+00   1.63817671e+00   1.07175184e+00
C     1.292601876500000e+00   1.812238549065745e+00   2.620854000000000e-01 -3.92940600e-02   1.11623572e+00  -2.91391463e+00
C     2.507821141900000e+00   2.615155044071971e+00   2.959740000000000e-01  6.14835410e-01  -9.39204540e-01   1.90295130e+00
C     3.740298611800000e+00   1.897474012385952e+00   1.105467000000000e-01 -5.71270580e-01  -1.48237195e+00  -2.64774850e-01
C     4.951826539699999e+00   2.568984955967029e+00   1.085139000000000e-01  2.98154328e+00   1.02491712e+00  -2.53648440e-01
C     6.222676615300000e+00   1.861142486765963e+00  -7.503150000000147e-02 -1.02750271e+00  -6.84913920e-01  -9.38126480e-01
C     7.469252159700000e+00   2.613315228873950e+00  -2.778132000000006e-01 -1.65340669e+00  -1.35810736e+00   7.30807720e-01
C     8.733042031600000e+00   1.881055715375637e+00  -3.122834999999995e-01 -2.44953721e+00  -1.35310667e+00   9.11425570e-01
C     9.860564238500000e+00   2.497522318820329e+00   1.338033000000000e-01  3.02591051e+00   2.18909925e+00  -5.16879100e-02
C     2.606423853400000e+00   4.004464089172747e+00   7.168752000000000e-01 -2.26023087e+00  -7.42183770e-01  -2.04701240e+00
C     3.871597527000000e+00   4.700595476280704e+00   6.423501000000000e-01 -3.40843185e+00   1.80384829e+00  -1.63954236e+00
C     4.991497313000000e+00   4.013226650947114e+00   1.912185000000000e-01 -3.85467900e-01  -1.09390407e+00   4.37774700e-01
C     6.139963786799999e+00   4.712146537317419e+00  -1.755122999999976e-01  2.54045682e+00   1.18773888e+00  -4.46772430e-01
C     7.352421660599999e+00   4.038459597695724e+00  -2.235335999999997e-01  4.96030900e+00  -2.43720034e+00   5.29974630e-01
C     8.730544592199999e+00   4.654300547842546e+00   2.189760000000000e-02 -4.18214244e+00   3.64147412e+00  -1.43878956e+00
C     9.892057472899999e+00   3.961029643855284e+00   2.206470000000000e-01  1.92220589e+00  -1.35275093e+00   1.04460908e+00
C     1.115014649000000e+01   4.691621147046433e+00   5.160567000000000e-01  7.02156250e-01  -2.00025292e+00   4.89193170e-01
C     3.739637597400000e+00   6.156356040227993e+00   3.756714000000000e-01  3.83464339e+00  -4.05539160e-01  -8.68901300e-02
C     5.040651089200000e+00   6.867566807503001e+00   6.221640000000001e-02 -5.41502230e-01  -2.35126142e+00  -1.75837656e+00
C     6.325075131000000e+00   6.106976991984669e+00  -3.832695000000008e-01 -5.10033850e+00   1.11108699e+00   3.12372863e+00
C     7.523560053700000e+00   6.813167760388590e+00  -4.355699999999985e-01  4.98626400e-01   1.70814510e+00   1.49944272e+00
C     8.714684930099999e+00   6.163651856172210e+00  -6.732239999999834e-02  2.08241231e+00  -3.08781726e+00  -7.87124820e-01
C     1.002454111640000e+01   6.814265620966004e+00   5.850000000000000e-03 -3.84379448e+00  -2.97964274e+00   3.06918710e-01
C     1.115615675160000e+01   6.055524671996800e+00   3.910359000000000e-01  1.09110647e+00   3.81332582e+00  -1.28062417e+00
C     1.239509764870000e+01   6.868998884950602e+00   2.589156000000000e-01  2.72944930e-01  -1.22747345e+00   4.73317360e-01
