32
Lattice="9.86 0 0 4.93 8.53901048131456 0 0 0 30 " PBC="1 1 1" Properties=species:S:1:pos:R:3:force:R:3 Energy="-255.72254077"
C     4.963351351399999e+00   7.742644943053820e+00  -3.700590000000048e-02  1.26888775e+00   6.78959410e-01  -1.06889988e+00
C     6.227560273300000e+00   8.471403633035543e+00  -1.299801000000009e-01 -3.53095920e-01  -1.27648184e+00  -1.90618420e-01
C     7.450488037400000e+00   7.769269748510671e+00  -1.617480000000029e-01  1.44206052e+00  -2.08591319e+00   2.58980740e-01
C     8.732759246799999e+00   8.441760543544328e+00  -1.948392000000005e-01 -1.38581551e+00   2.01058173e+00  -1.03278182e+00
C     9.971405329900000e+00   7.758096026347067e+00  -2.958387000000009e-01 -7.46479950e-01  -6.88634670e-01   7.32820510e-01
C     1.120699880630000e+01   8.467467832325102e+00  -2.357939999999985e-01 -1.59149712e+00  -9.96587570e-01  -3.20846520e-01
C     1.240900162910000e+01   7.749877228760066e+00  -2.270859000000023e-01  7.50390770e-01   1.72695250e-01  -9.70978410e-01
C     1.363532074020000e+01   8.476522513647989e+00  -2.321613000000013e-01  2.39049760e-01   2.61460860e-01   8.10290320e-01
C     1.300815503000000e+00   1.318394868597206e+00  -3.243915000000008e-01  8.93271400e-02   9.83149100e-01   9.54881500e-01
C     2.489884914500000e+00   2.080586346311273e+00  -3.796335000000006e-01  2.33592947e+00  -2.45856364e+00   4.03891690e-01
C     3.756489224800000e+00   1.378007920900811e+00  -2.983004999999999e-01  8.78530090e-01  -7.06838410e-01   2.54807470e-01
C     5.028441648399999e+00   2.114593040937978e+00  -2.559231000000004e-01 -9.38657740e-01  -4.27663705e+00   6.55812580e-01
C     6.271668983300000e+00   1.321791430795836e+00  -2.051571000000010e-01 -2.49051623e+00   7.08486680e-01  -4.58565840e-01
C     7.463541001199999e+00   1.973311355381766e+00  -2.640680999999994e-01  2.69560436e+00   4.28361529e+00   6.45903360e-01
C     8.736841483999999e+00   1.396517933918307e+00  -2.854923000000014e-01 -1.37557508e+00  -4.43304190e+00   7.07222600e-01
C     9.957598569100000e+00   2.034356485132972e+00  -2.308350000000026e-01 -1.09642263e+00   1.87187054e+00  -1.89893953e+00
C     2.539068763700000e+00   3.469213209864802e+00  -3.743879999999997e-01  7.07030380e-01   4.36247490e-01  -3.08730830e-01
C     3.766034197800000e+00   4.156018887457237e+00  -2.634605999999984e-01  8.85941630e-01   1.91085425e+00   4.15454150e-01
C     5.014009172000000e+00   3.467929540419344e+00  -1.040709000000000e-01  3.22295160e-01   1.36934929e+00  -1.22487351e+00
C     6.287530814600000e+00   4.126566815630460e+00  -1.179930000000020e-01 -1.19737565e+00   2.43126329e+00   1.13513302e+00
C     7.531262242000000e+00   3.434857269709465e+00  -1.490700000000018e-01 -2.62735851e+00   2.10250700e-02  -1.16723791e+00
C     8.696254913899999e+00   4.206100610872961e+00  -3.334557000000018e-01  6.58006370e-01  -1.29320547e+00   8.00423100e-01
C     9.870154370300000e+00   3.445255478941276e+00  -4.469153999999982e-01  4.40735415e+00   1.08155413e+00   1.00470704e+00
C     1.121284184230000e+01   4.166134797002578e+00  -4.548833999999999e-01 -4.55837465e+00   9.69211850e-01   2.53538760e-01
C     3.776091890800000e+00   5.629632472955691e+00  -2.512490999999990e-01 -1.45598411e+00  -2.19932503e+00  -2.76824100e-02
C     4.952015457300000e+00   6.321597591460351e+00  -4.309769999999702e-02  2.46367366e+00   1.44445100e-01  -4.45580700e-02
C     6.213710522900000e+00   5.601434696378321e+00  -2.106210000000175e-02  1.03116103e+00  -1.38301994e+00  -8.38079570e-01
C     7.468633789799998e+00   6.273264315830511e+00  -1.449384000000009e-01 -1.00103420e+00   2.89451583e+00   7.58353620e-01
C     8.723321797099999e+00   5.624812457710045e+00  -2.098067999999991e-01 -2.08192364e+00  -1.07449356e+00  -8.45003570e-01
C     9.910799952500000e+00   6.315388023039295e+00  -3.205977000000004e-01  1.66471589e+00   1.15058103e+00   1.62277690e-01
C     1.111644269290000e+01   5.586610974185040e+00  -3.723381000000003e-01  3.24928600e+00   6.23994860e-01  -7.66577060e-01
C     1.242339151030000e+01   6.343775451039426e+00  -3.861360000000005e-01 -2.18913319e+00  -1.13111878e+00   1.20987517e+00
