32
Lattice="9.86 0 0 4.93 8.53901048131456 0 0 0 30 " PBC="1 1 1" Properties=species:S:1:pos:R:3:force:R:3 Energy="-255.66367293"
C     9.817907216299998e+00   2.713343161609080e-01   4.011178500000000e+00 -6.10653200e-02   3.87371609e+00   1.27005950e+00
C     1.184986927800000e+00   1.085949340914838e+00   4.105191899999999e+00  7.39810600e-02  -2.76254784e+00  -3.41556860e-01
C     2.445463741100000e+00   3.570999666418184e-01   4.055549400000000e+00 -9.80137450e-01   3.20150200e-02   7.68936800e-02
C     3.670551880500000e+00   1.091670904886962e+00   4.030343100000000e+00 -2.06295784e+00   1.33764890e-01   2.02864140e-01
C     4.862704661900001e+00   3.544264024605304e-01   3.956447700000000e+00  4.39120640e-01  -1.24202680e-01   5.27588820e-01
C     6.084485165700000e+00   1.060553555236375e+00   4.024114800000000e+00  4.15344440e-01  -1.26955490e+00  -1.34847040e-01
C     7.302387238500000e+00   3.884430877294968e-01   4.072159200000000e+00  9.63350100e-01  -1.95424141e+00   2.88279640e-01
C     8.571720106599999e+00   1.055763768087829e+00   4.072378200000000e+00 -8.60395200e-02  -1.57578899e+00   2.52330700e-01
C     1.103239906020000e+01   2.478263178413422e+00   4.185708000000000e+00 -1.74833717e+00   1.08856007e+00  -3.72884240e-01
C     2.388722941400000e+00   3.193491208558851e+00   4.111774200000000e+00  3.46119300e-02   1.08022157e+00   2.33690670e-01
C     3.582156635400000e+00   2.556010527273403e+00   4.092015600000000e+00  4.09409092e+00  -3.63504521e+00  -5.67150240e-01
C     4.894705587700000e+00   3.194940364027412e+00   4.030051800000000e+00 -2.21916579e+00  -3.28800000e-05   8.38258900e-02
C     6.124413728700000e+00   2.429669462963943e+00   4.027502100000000e+00 -3.60280611e+00   2.23650985e+00  -1.09373070e-01
C     7.252158130700000e+00   3.164779041990166e+00   4.061448000000000e+00  4.83072444e+00   9.81555140e-01   5.12405310e-01
C     8.539443988200000e+00   2.454891052828614e+00   4.176424200000000e+00 -2.56974470e-01   1.07891624e+00  -8.40803890e-01
C     9.751685878699998e+00   3.190654293107081e+00   4.196840699999999e+00  6.47765220e-01  -5.88048820e-01  -3.48114160e-01
C     1.232850103950000e+01   4.619467277001377e+00   4.064615099999999e+00 -4.03442866e+00  -1.83026721e+00   7.08445930e-01
C     3.590613015100000e+00   5.358092537422425e+00   4.029399600000001e+00  3.85440786e+00   1.19813431e+00  -1.08858580e-01
C     4.842575718400000e+00   4.593112902006429e+00   4.010624100000000e+00  1.91795067e+00   2.19493468e+00  -5.59785430e-01
C     6.154983179700000e+00   5.322057913196825e+00   3.919707000000000e+00 -3.32109951e+00   1.09786350e-01   1.03301565e+00
C     7.325036743100000e+00   4.610022448289659e+00   4.022577600000000e+00  7.13962470e-01  -1.22211070e+00  -4.07224670e-01
C     8.574339612799999e+00   5.315156257976365e+00   4.014992700000000e+00 -1.71983687e+00   1.23586892e+00   5.45528680e-01
C     9.738560936900001e+00   4.614197682853959e+00   4.094773800000000e+00  3.70395663e+00  -1.97814877e+00   5.27356140e-01
C     1.106182435680000e+01   5.213198765043068e+00   4.124655000000001e+00 -1.86271720e+00   4.58807296e+00  -1.26703353e+00
C     1.346983907840000e+01   6.845261545887564e+00   4.041998700000001e+00  3.83553440e-01  -4.51991988e+00   7.05471550e-01
C     4.878979627200001e+00   7.420523410431332e+00   4.067765400000000e+00  6.67724580e-01   1.13846725e+00  -8.97910530e-01
C     6.139929621899999e+00   6.742614186297589e+00   3.992715000000000e+00 -1.50479907e+00  -1.14479038e+00   2.39014600e-02
C     7.338037892599999e+00   7.433481358834731e+00   4.034348100000001e+00  8.17603090e-01   2.46074836e+00  -3.34628000e-02
C     8.567638066600001e+00   6.754751621183967e+00   4.050456900000000e+00  2.71884910e-01  -8.58959780e-01  -8.99195660e-01
C     9.784372074499998e+00   7.472383468169620e+00   3.969174300000000e+00  1.42444762e+00  -1.40722301e+00   2.39674060e-01
C     1.105800439560000e+01   6.692643811578525e+00   3.985749000000000e+00 -1.78651435e+00   3.10492780e-01   1.45288254e+00
C     1.223494990180000e+01   7.473580893609230e+00   4.154102100000000e+00 -7.60069000e-03   1.12911799e+00  -1.79601363e+00
