32
Lattice="9.86 0 0 4.93 8.53901048131456 0 0 0 30 " PBC="1 1 1" Properties=species:S:1:pos:R:3:force:R:3 Energy="-255.39376975"
C     9.773205772399999e+00   5.494691002680880e-01   3.524562600000000e+00 -1.02050859e+00  -1.60827241e+00  -4.19745820e-01
C     1.129141465400000e+00   1.219720112852842e+00   3.559122600000000e+00  1.63604587e+00  -5.92332650e-01  -1.21164350e-01
C     2.353541721900000e+00   5.370772028694072e-01   3.362375100000000e+00  8.51531290e-01  -2.31288099e+00   1.63591220e-01
C     3.562662922399999e+00   1.229383711013058e+00   3.286272900000000e+00  9.86525560e-01   1.92139541e+00  -5.73351200e-02
C     4.804394347400001e+00   5.113439554967744e-01   3.151879200000000e+00  1.50376630e-01   1.20955278e+00   1.77660435e+00
C     6.036682505300000e+00   1.206886919392554e+00   3.340811400000000e+00  5.31970100e-01   1.31445893e+00  -6.51270000e-02
C     7.285923799300000e+00   5.593771702983464e-01   3.438764100000000e+00  1.34109265e+00  -1.38487214e+00   1.88932220e-01
C     8.564124603500000e+00   1.234533332063231e+00   3.616064100000000e+00 -3.16769010e+00   1.26876003e+00  -1.25008499e+00
C     1.101738016030000e+01   2.589229071232804e+00   3.697268400000000e+00  3.48769740e-01   2.65672663e+00  -4.99894100e-02
C     2.411942994900000e+00   3.401890797339434e+00   3.706961400000000e+00 -1.39134857e+00  -4.11035070e-01  -1.67330555e+00
C     3.617659833200000e+00   2.719032704291904e+00   3.415881000000000e+00 -1.04083444e+00  -2.98409662e+00   3.33067280e-01
C     4.866836839999999e+00   3.350154384472896e+00   3.324019500000000e+00 -1.30067155e+00   1.53482206e+00   1.23554300e-01
C     6.071257433400000e+00   2.636201057811922e+00   3.406800300000000e+00 -9.02991570e-01  -1.68513000e-03  -5.62618910e-01
C     7.232876309099999e+00   3.409260988064932e+00   3.460383900000000e+00  2.92417452e+00  -2.06152076e+00  -6.05097920e-01
C     8.497844500299999e+00   2.671911968150225e+00   3.535446300000000e+00 -6.36091840e-01  -2.03939559e+00   7.95525270e-01
C     9.744438482900000e+00   3.237649932745228e+00   3.618867300000000e+00  1.25156917e+00   4.41940712e+00   1.61071420e-01
C     1.223660736780000e+01   4.852130122500460e+00   3.576438600000000e+00 -2.54859772e+00  -1.14167269e+00   9.34192610e-01
C     3.539900126400000e+00   5.555980945862546e+00   3.423107100000000e+00  3.92099703e+00  -2.27656368e+00  -7.84828790e-01
C     4.806405146500000e+00   4.768556521399872e+00   3.264441900000000e+00  1.07268401e+00   2.31881597e+00   9.62604040e-01
C     6.082947350800000e+00   5.529475003431579e+00   3.250681200000000e+00 -1.60945150e+00  -7.74270350e-01  -8.14659390e-01
C     7.304490623000000e+00   4.780321996989739e+00   3.246358500000000e+00 -4.55117980e-01   2.12980846e+00   8.32134460e-01
C     8.578888622399999e+00   5.495228106440072e+00   3.294200700000000e+00 -1.14047041e+00  -2.47470810e+00   4.17468560e-01
C     9.723792185200001e+00   4.699362613947602e+00   3.564010800000000e+00  2.35270280e+00   2.23285997e+00  -5.35241510e-01
C     1.096313975800000e+01   5.550422562380696e+00   3.600054300000000e+00 -3.45209410e-01  -2.49060986e+00   8.11483500e-02
C     1.348871875990000e+01   6.938261531437236e+00   3.376656900000000e+00 -1.87285577e+00   1.87466318e+00  -3.37721580e-01
C     4.809650023200000e+00   7.677886283034968e+00   3.289309800000000e+00  2.58757234e+00  -3.33886920e-01   7.69273020e-01
C     6.089618084500000e+00   6.972406643423822e+00   3.222781500000000e+00 -1.13894034e+00  -1.60723776e+00   4.77409560e-01
C     7.343306287800000e+00   7.586491375285223e+00   3.296324700000000e+00 -4.18659510e-01   2.73563792e+00  -9.32464610e-01
C     8.594327163899999e+00   6.894511740462746e+00   3.211031100000000e+00 -1.50123103e+00   8.35305880e-01   1.13202648e+00
C     9.766671106699999e+00   7.666244623097060e+00   3.353097900000000e+00 -5.47195440e-01  -7.67638730e-01  -1.05169902e+00
C     1.095212737050000e+01   6.962251881380795e+00   3.522561900000000e+00  2.90554226e+00   7.47903900e-02  -9.68209080e-01
C     1.225974163930000e+01   7.684128214305743e+00   3.389490000000000e+00 -1.82368822e+00  -1.26432529e+00   1.08068989e+00
