32
Lattice="9.86 0 0 4.93 8.53901048131456 0 0 0 30 " PBC="1 1 1" Properties=species:S:1:pos:R:3:force:R:3 Energy="-254.59802392"
C     4.932376407900000e+00   8.241918067945962e+00  -8.469972000000006e-01  2.81526136e+00   3.53855762e+00  -4.69174800e-02
C     1.288877902400000e+00   4.763714133946768e-01  -8.878757999999998e-01 -2.01192200e+00   1.08550468e+00   1.06254220e+00
C     7.468117668100000e+00   8.405084383461366e+00  -9.174801000000024e-01 -1.88059570e+00  -4.22270941e+00   5.24042830e-01
C     3.741866746200000e+00   5.290265383987585e-01  -7.452144000000018e-01  7.66556240e-01  -8.23701070e-01  -1.27125192e+00
C     9.898770900399999e+00   8.348110824687234e+00  -8.105678999999988e-01  1.18406734e+00  -2.58149293e+00   1.58917734e+00
C     6.249449966299999e+00   4.651093978627096e-01  -7.613318999999983e-01 -1.62278770e+00   6.31464790e-01  -3.20901640e-01
C     1.243130406170000e+01   8.397140200451403e+00  -7.556021999999984e-01 -2.29081306e+00  -4.23176080e+00   4.12735310e-01
C     8.710278841199999e+00   5.218860470551728e-01  -8.133113999999999e-01 -1.77458910e-01  -5.68192410e-01  -6.10244530e-01
C     1.218493722100000e+00   1.890270076194500e+00  -6.106550999999989e-01  9.84150100e-01   8.88677340e-01  -1.20241809e+00
C     2.502505566600000e+00   2.640409423736885e+00  -5.448431999999990e-01 -1.30175263e+00  -1.08140970e+00   2.78067050e-01
C     3.697064335900000e+00   1.911928422375972e+00  -6.927389999999995e-01  2.37073680e+00   1.34790876e+00   9.75154110e-01
C     5.010534655900000e+00   2.568804782845902e+00  -6.509771999999998e-01 -1.48732710e+00   7.33643160e-01  -6.16121820e-01
C     6.211709041499999e+00   1.854470616317519e+00  -7.662240000000011e-01  1.59527818e+00   1.85220801e+00  -6.65515380e-01
C     7.473292738400000e+00   2.607782377033434e+00  -9.084657000000007e-01 -2.81320421e+00   1.84869290e-01   5.15308970e-01
C     8.702927422400000e+00   1.959155383808022e+00  -9.220386000000005e-01 -2.69655220e+00  -2.72800826e+00   6.33994720e-01
C     9.820066457699999e+00   2.630551563088249e+00  -6.909308999999979e-01  5.97640795e+00   1.37286921e+00  -5.31318400e-02
C     2.577886548400000e+00   4.043053756114173e+00  -3.327857999999999e-01 -2.37549072e+00   3.13241300e-02  -5.68677620e-01
C     3.824721607999999e+00   4.726243589718851e+00  -3.576398999999988e-01 -1.58399864e+00   1.38744883e+00  -2.01388079e+00
C     5.050420377200000e+00   3.991401281720653e+00  -6.700755000000029e-01 -3.12566349e+00   3.22358940e-01   1.25320340e+00
C     6.204945771700000e+00   4.722271156653450e+00  -8.462528999999996e-01  4.39763770e-01   7.09561900e-02   6.15471600e-01
C     7.403222007499999e+00   4.027586277920806e+00  -8.549049000000011e-01  2.85532998e+00  -2.85906120e-01  -1.84951580e-01
C     8.641945836700000e+00   4.760672453023687e+00  -7.233873000000024e-01  6.49169930e-01  -3.93816900e-01  -5.35350690e-01
C     9.932008763199999e+00   4.056291784061317e+00  -6.779526000000011e-01 -3.09790045e+00  -2.18230370e-01   1.07548362e+00
C     1.109494035000000e+01   4.740589127325251e+00  -3.976475999999991e-01  3.99631623e+00   8.73124550e-01   2.59647960e-01
C     3.660554037699999e+00   6.221247311079600e+00  -5.929521000000015e-01  2.97763658e+00  -3.36588541e+00   9.21589420e-01
C     4.925311915100000e+00   6.878831726298531e+00  -7.372259999999997e-01 -1.28492700e-02  -1.99921578e+00  -3.92908370e-01
C     6.181813915899999e+00   6.109423162316875e+00  -8.070068999999975e-01 -2.43904990e-01   3.89572317e+00  -5.40169980e-01
C     7.387291944999999e+00   6.918941934836131e+00  -9.041607000000020e-01  1.57577589e+00  -6.51952730e-01   8.65666170e-01
C     8.644828999300000e+00   6.176711931140951e+00  -7.115190000000027e-01 -3.30970550e-01   7.91555190e-01  -4.97292810e-01
C     9.907435621899999e+00   6.863865744190655e+00  -6.184641000000006e-01 -1.01210378e+00   2.23468063e+00  -3.84014790e-01
C     1.115274376190000e+01   6.193723006258788e+00  -3.908352000000015e-01 -4.05859880e+00  -1.73242657e+00  -1.22649561e+00
C     1.229740245160000e+01   6.874048941138579e+00  -6.024581999999974e-01  3.93744383e+00   3.64183397e+00   1.48160240e-01
