32
Lattice="9.86 0 0 4.93 8.53901048131456 0 0 0 30 " PBC="1 1 1" Properties=species:S:1:pos:R:3:force:R:3 Energy="-254.55456595"
C     4.981836435700000e+00   8.103636136771375e+00  -7.316043000000008e-01  2.61396075e+00   2.46926314e+00   6.75702430e-01
C     1.326419605900000e+00   3.300910764935784e-01  -6.033635999999980e-01 -1.23227739e+00  -5.09231220e-01  -2.29030185e+00
C     7.493642398000000e+00   8.210334915273691e+00  -7.945059000000008e-01 -1.24836952e+00  -2.99239529e+00   2.15274966e+00
C     3.766529860000000e+00   3.111453177712880e-01  -5.648595000000007e-01  3.07216893e+00   7.15517830e-01   6.03496460e-01
C     1.000584561970000e+01   8.151218577209708e+00  -4.311740999999998e-01 -3.87158299e+00  -2.86125010e-01  -1.49959547e+00
C     6.249766176500000e+00   3.167830286604984e-01  -5.959926000000024e-01  2.11318544e+00  -1.98641605e+00   3.03746020e-01
C     1.245787286700000e+01   8.036455386429871e+00  -6.443076000000012e-01 -1.24712245e+00   4.25405808e+00   7.60480330e-01
C     8.731924499200000e+00   2.536386685728896e-01  -7.170297000000012e-01 -1.50907622e+00   2.68108955e+00  -3.70062260e-01
C     1.306734115900000e+00   1.753007019750386e+00  -5.551397999999992e-01 -7.66497860e-01  -8.28123940e-01   1.35410107e+00
C     2.519225563000000e+00   2.378726153390787e+00  -2.118456000000002e-01  2.00427921e+00   1.93057887e+00  -1.75709183e+00
C     3.818743391400000e+00   1.713226758577734e+00  -3.544710000000002e-01 -2.03233637e+00   2.35700570e-01   1.94234600e-02
C     5.041041101499999e+00   2.433164309173198e+00  -4.161314999999988e-01 -8.58653190e-01   1.21862307e+00  -6.41032600e-02
C     6.232432197900000e+00   1.723479633851175e+00  -6.187337999999976e-01  5.17289310e-01  -4.88067730e-01  -1.42062240e-01
C     7.449948498199999e+00   2.410708163242580e+00  -7.266657000000016e-01  1.59839669e+00   2.32064800e-02   1.67188190e-01
C     8.713557439099999e+00   1.750590650564756e+00  -7.308378000000033e-01 -5.49903760e-01  -2.16325908e+00  -2.63810000e-04
C     9.914907628500000e+00   2.476066347187233e+00  -5.874338999999971e-01  7.76030470e-01  -4.72449430e-01   6.46674600e-01
C     2.562535317200000e+00   3.822014126290360e+00  -1.783253999999985e-01 -1.20816242e+00   1.49835145e+00   1.04843962e+00
C     3.777172793300000e+00   4.576689225419512e+00  -1.720913999999993e-01  1.87029184e+00  -6.20644760e-01  -2.09900130e-01
C     5.064245329700000e+00   3.894904571379422e+00  -4.021401000000004e-01 -2.23038123e+00  -2.21100896e+00   2.77484230e-01
C     6.289686752900000e+00   4.523709788797399e+00  -6.380909999999993e-01 -1.71773733e+00   2.61783801e+00   8.69420400e-01
C     7.496358334999998e+00   3.806851576161234e+00  -6.938208000000010e-01  1.78540640e-01   1.12664168e+00   4.23612300e-01
C     8.705245754899998e+00   4.546548397007417e+00  -5.065202999999983e-01 -1.53128827e+00   1.57874290e+00  -6.10070500e-01
C     9.908602355699999e+00   3.881899658418382e+00  -3.346143000000019e-01  1.75168359e+00  -2.32651500e-01  -4.32430290e-01
C     1.115918613800000e+01   4.606048819762790e+00  -1.345883999999984e-01 -1.37563890e-01  -8.74380350e-01  -1.16602062e+00
C     3.799972022000000e+00   6.020186831026368e+00  -1.409075999999985e-01  4.74789410e-01  -1.39037952e+00  -2.26427680e+00
C     4.921633937899999e+00   6.749503459952853e+00  -6.121029000000000e-01  3.40438675e+00  -4.44696981e+00   1.81105192e+00
C     6.181330578699999e+00   5.972067713779367e+00  -6.079710000000027e-01  1.81806860e+00   1.51207064e+00  -1.17385469e+00
C     7.453790841600000e+00   6.717388326927678e+00  -6.988241999999971e-01 -2.41205373e+00   7.99887040e-01  -4.75698880e-01
C     8.620574089500000e+00   6.002413307662771e+00  -5.772231000000012e-01  3.23689116e+00  -4.91185940e-01   8.58656260e-01
C     9.899683196900000e+00   6.735711079445348e+00  -4.230309000000005e-01  6.69603200e-02  -6.64754390e-01  -6.27619400e-02
C     1.110943435280000e+01   6.039872324226541e+00  -2.591970000000003e-01  3.08208151e+00  -1.33964501e+00   6.50431110e-01
C     1.250114066690000e+01   6.714146833159366e+00  -2.806185000000028e-01 -6.02599800e+00  -6.63881350e-01  -1.04163470e-01
