32
Lattice="9.86 0 0 4.93 8.53901048131456 0 0 0 30 " PBC="1 1 1" Properties=species:S:1:pos:R:3:force:R:3 Energy="-255.45514793"
C     9.905048220099999e+00   9.276516276147120e-02   4.066855500000000e+00 -3.10734686e+00   4.72474279e+00  -3.94376480e-01
C     1.210266340900000e+00   9.109707560321368e-01   4.083763500000000e+00  7.74839260e-01  -5.25876944e+00  -3.05107170e-01
C     2.446122832800000e+00   1.518485402450016e-01   4.018289700000000e+00  2.99843280e-01   2.06258619e+00   1.98316100e-02
C     3.674526988800000e+00   8.711896409584369e-01   3.946199100000000e+00  3.37133750e-01  -1.87260934e+00   6.68399280e-01
C     4.897120400300000e+00   7.014617790099920e-02   4.006752600000000e+00 -1.01238558e+00   3.90900403e+00  -2.12405900e-01
C     6.069134969800000e+00   8.728381823217056e-01   4.023333300000000e+00  1.66298950e+00  -4.90874580e-01   3.76728000e-02
C     7.324665908500000e+00   1.794231398375416e-01   3.983518200000000e+00  7.59956690e-01  -1.86496646e+00  -6.72869920e-01
C     8.610616820599999e+00   8.003664049164784e-01   3.957894900000000e+00 -2.26977480e-01   1.88195625e+00   1.00752110e+00
C     1.103899771730000e+01   2.243871866412976e+00   4.008893400000000e+00  1.90433944e+00   3.47901585e+00  -5.91907250e-01
C     2.454427615000000e+00   2.963576131242127e+00   3.854199000000000e+00 -1.35634376e+00   1.96672036e+00   7.90969170e-01
C     3.646336065600000e+00   2.278571928690657e+00   3.971190900000000e+00  2.10012043e+00   9.30911970e-01   3.93217610e-01
C     4.883630786399999e+00   3.081876948673723e+00   4.171541400000000e+00 -1.02607630e+00  -2.57632267e+00  -1.81187746e+00
C     6.091016084600000e+00   2.307599953256998e+00   4.069703100000000e+00 -2.96697170e-01   5.55418900e-02   3.47346070e-01
C     7.331466942099999e+00   2.984280584562877e+00   4.004451899999999e+00  1.19220519e+00  -3.09009820e-01  -4.16670330e-01
C     8.593237831100000e+00   2.276687966808455e+00   4.013971800000000e+00 -5.12482360e-01  -1.91744200e+00  -1.17987000e-01
C     9.832004107600001e+00   2.933069491621069e+00   4.050402300000000e+00 -1.01200541e+00   3.43895115e+00  -8.19814190e-01
C     1.237193542410000e+01   4.455381139277068e+00   3.836194800000000e+00 -4.78258351e+00  -3.54452433e+00   3.04340650e-01
C     3.644704827200000e+00   5.171113227211132e+00   3.922258500000000e+00  2.33845156e+00   1.07998447e+00   6.27148710e-01
C     4.864383622700000e+00   4.474845130545389e+00   4.085022900000000e+00  2.04964390e+00  -3.54302270e-01  -2.79456000e-03
C     6.170841560000000e+00   5.128245003678597e+00   4.080653099999999e+00 -2.88130281e+00   1.26002964e+00  -6.45395410e-01
C     7.355256854300000e+00   4.399061241755180e+00   3.894720299999999e+00  6.25433740e-01   9.51024380e-01   2.19908722e+00
C     8.573558454299999e+00   5.156956316346234e+00   4.038143100000000e+00  1.52241790e+00  -2.11500694e+00  -9.21805370e-01
C     9.846466163999999e+00   4.429104640057697e+00   3.984295800000000e+00 -1.40939834e+00  -1.94666230e+00   3.40992130e-01
C     1.107098444470000e+01   5.100223984618163e+00   3.921235200000000e+00  1.01306749e+00   1.08995957e+00   7.85209070e-01
C     1.347505289850000e+01   6.585644801467732e+00   3.966787800000001e+00  2.19153928e+00  -1.33236800e-01  -4.89856150e-01
C     4.896682271200000e+00   7.296092095815723e+00   4.038385200000000e+00 -7.62693690e-01  -3.57946307e+00   2.15794570e-01
C     6.086094810699999e+00   6.566727819210759e+00   4.098079800000000e+00  3.95857550e+00  -4.21279600e-01  -2.48264210e-01
C     7.413234443099999e+00   7.309792340400149e+00   4.073675100000000e+00 -3.17707293e+00  -2.14996866e+00  -2.87551700e-02
C     8.612980213300000e+00   6.558736671643157e+00   4.069644900000000e+00 -1.58903385e+00  -2.77445300e-01  -3.30755760e-01
C     9.818600620800000e+00   7.231066164768847e+00   4.012659600000000e+00  1.60475942e+00  -4.28227090e-01   9.90735210e-01
C     1.105824754320000e+01   6.526923990369182e+00   4.094766000000000e+00 -4.02734920e-01  -7.39536460e-01  -2.24729535e+00
C     1.226296028840000e+01   7.226580964124122e+00   3.900874200000000e+00 -7.80181340e-01   3.14921857e+00   1.52967248e+00
