32
Lattice="9.86 0 0 4.93 8.53901048131456 0 0 0 30 " PBC="1 1 1" Properties=species:S:1:pos:R:3:force:R:3 Energy="-255.66183075"
C     5.033659609699999e+00   8.159337809934511e+00  -6.681600000000003e-01 -7.85001170e-01  -2.09197496e+00   1.08970455e+00
C     1.334632591500000e+00   3.467353157211944e-01  -6.090705000000014e-01 -8.33654580e-01  -1.46491175e+00  -5.79268890e-01
C     7.455867604100000e+00   8.121988519655410e+00  -6.136233000000004e-01  8.17512510e-01   1.69551080e+00   5.15007490e-01
C     3.810464688900000e+00   3.056992222772488e-01  -5.132769000000010e-01 -4.02875255e+00  -1.23991300e-01   5.17442030e-01
C     9.867691588800000e+00   8.123621434629500e+00  -4.342419000000000e-01  4.87783755e+00  -5.92193550e-01  -7.82092850e-01
C     6.244302799800001e+00   2.220059042497296e-01  -5.735741999999995e-01 -1.52022133e+00   4.07554682e+00   2.31820860e-01
C     1.240574146940000e+01   8.134938526779065e+00  -5.670981000000026e-01 -2.91050250e-01  -2.60170059e+00   1.14461234e+00
C     8.701189400199999e+00   3.116537304552672e-01  -6.326277000000005e-01  1.22303066e+00  -1.90605430e+00  -1.67293600e-01
C     1.345155035600000e+00   1.744352647238802e+00  -5.390870999999997e-01  2.12974350e-01   4.83773220e-01   7.70372710e-01
C     2.603652059500000e+00   2.406182743858493e+00  -2.969316000000006e-01 -3.13608487e+00   1.30998600e+00  -4.96554790e-01
C     3.796084667700000e+00   1.698521130899393e+00  -3.144852000000000e-01  8.12307700e-01   7.75603750e-01  -9.50987220e-01
C     4.996924404900000e+00   2.458145696673066e+00  -4.055958000000004e-01  2.01963232e+00  -3.16539933e+00  -6.81494800e-01
C     6.238717307000000e+00   1.722770639811021e+00  -6.464913000000010e-01  9.05670350e-01  -6.93331490e-01   1.32609711e+00
C     7.537099953600000e+00   2.434711321701859e+00  -6.134646000000004e-01 -2.46056516e+00  -5.63225510e-01  -4.98405280e-01
C     8.748887791100000e+00   1.687042139111129e+00  -6.132774000000012e-01 -4.40378780e-01   2.71092851e+00  -3.38124610e-01
C     9.967824720199998e+00   2.444463725571067e+00  -5.564771999999998e-01  2.99614360e-01   1.57433840e-01   8.33974760e-01
C     2.515973784300000e+00   3.839046634324502e+00  -2.248319999999993e-01  1.20194901e+00   3.41201240e-01  -1.31138650e-01
C     3.813232736000000e+00   4.499662483653938e+00  -2.978771999999985e-01 -3.21410697e+00   2.25225988e+00   5.28976540e-01
C     5.012304673799999e+00   3.828750722438242e+00  -4.090755000000001e-01  1.46295129e+00   1.33645905e+00   1.18776820e-01
C     6.248101167600000e+00   4.568673912452249e+00  -5.065886999999982e-01  4.81331560e-01  -1.50776874e+00  -7.26911940e-01
C     7.496106214799999e+00   3.868471637488058e+00  -6.237636000000002e-01 -4.07808510e-01  -4.28989650e-01   9.80213750e-01
C     8.701845928299999e+00   4.595203507942247e+00  -5.006880000000002e-01  5.32401120e-01   4.64990770e-01  -3.31640320e-01
C     9.940858408999999e+00   3.878323776999672e+00  -3.464300999999992e-01 -1.64825476e+00  -6.24238990e-01  -1.14880000e+00
C     1.110919460690000e+01   4.612250105343681e+00  -2.362217999999991e-01  3.13436569e+00  -2.04746163e+00  -1.38226910e-01
C     3.766025126600000e+00   5.933518436357512e+00  -3.199143000000007e-01  4.14186510e-01   1.44713726e+00  -3.06360220e-01
C     5.027583631200000e+00   6.665625186958337e+00  -5.107886999999991e-01 -1.52798383e+00   1.55205630e+00  -3.06127640e-01
C     6.269851341600000e+00   5.966601124660176e+00  -5.778365999999977e-01 -3.18481788e+00   1.20636940e-01   4.71412130e-01
C     7.395646470899999e+00   6.728722240927887e+00  -6.055829999999993e-01  4.79339760e+00  -3.02329210e-01  -4.54317180e-01
C     8.706617921799999e+00   6.038265624014624e+00  -5.769980999999973e-01 -1.51083512e+00  -1.20968922e+00   1.04052249e+00
C     9.914229408399999e+00   6.732383854011816e+00  -4.116888000000003e-01 -2.51978230e-01  -1.02452623e+00  -3.49263340e-01
C     1.116612664130000e+01   6.012555773530706e+00  -3.014664000000025e-01 -3.15970930e+00  -3.50821690e-01   3.49613990e-01
C     1.233635383930000e+01   6.671634857144056e+00  -2.765853000000007e-01  5.21204071e+00   1.97508377e+00  -1.53153932e+00
