32
Lattice="9.86 0 0 4.93 8.53901048131456 0 0 0 30 " PBC="1 1 1" Properties=species:S:1:pos:R:3:force:R:3 Energy="-251.23211664"
C     4.933049303600000e+00   8.250658855243605e+00  -4.802706000000008e-01  3.56771230e+00   1.50592204e+00   4.74719350e-01
C     1.335837187700000e+00   5.394954506373432e-01  -3.481059000000002e-01 -2.59374708e+00  -2.87296428e+00  -9.05721380e-01
C     7.448366017500000e+00   8.277328319725264e+00  -3.799958999999973e-01 -1.97437654e+00  -4.38566540e-01  -4.49802130e-01
C     3.687818663199999e+00   3.752749942781840e-01  -7.410239999999995e-01  3.23233297e+00   6.95638970e-01   2.48018630e+00
C     9.892823052600001e+00   8.217155193724277e+00  -5.710322999999988e-01 -1.22762620e-01  -5.98544270e-01  -1.25944808e+00
C     6.180441946199999e+00   3.572300157714288e-01  -4.973192999999974e-01  7.54553120e-01   1.58045877e+00  -1.67414858e+00
C     1.239047695690000e+01   8.158242596450346e+00  -7.126100999999991e-01 -1.25405839e+00   2.33020402e+00   1.70174585e+00
C     8.664029771699999e+00   3.672808580569128e-01  -5.519196000000015e-01 -3.49332340e-01   2.78128165e+00   7.16184050e-01
C     1.304120575000000e+00   1.919876447940651e+00  -6.238166999999990e-01  1.18357722e+00  -4.13960770e-01  -8.14504140e-01
C     2.568135205600000e+00   2.606164405327683e+00  -8.575787999999989e-01 -2.27509946e+00  -8.70076790e-01  -1.34819838e+00
C     3.740126406900000e+00   1.774084371658799e+00  -7.928388000000020e-01  1.03101543e+00   4.13126509e+00  -1.03476971e+00
C     5.037664643099999e+00   2.610745157499679e+00  -8.214965999999997e-01 -2.08552327e+00  -4.00761628e+00   9.94183500e-02
C     6.163044370600000e+00   1.856571981406542e+00  -5.688356999999975e-01  4.35304264e+00  -1.40382193e+00   1.81930854e+00
C     7.507155823799999e+00   2.564884779304848e+00  -2.867291999999999e-01 -2.46673500e+00   1.48586748e+00  -2.53234328e+00
C     8.765728917600001e+00   1.929913713199472e+00  -3.934928999999983e-01 -3.95948891e+00  -4.41911829e+00  -8.49878540e-01
C     9.896109045499998e+00   2.566791454954927e+00  -7.757049000000009e-01  2.54632517e+00   2.71644388e+00   1.50318350e+00
C     2.499460108400000e+00   4.023012015396774e+00  -1.356228299999998e+00 -2.14203161e+00  -3.32251695e+00   1.76331239e+00
C     3.711945245099999e+00   4.569129297881148e+00  -1.229360700000001e+00  5.16083628e+00   6.56387011e+00   1.51928581e+00
C     5.030334768399999e+00   3.990122479511168e+00  -9.363245999999990e-01 -3.86696583e+00  -9.67858830e-01   2.64911360e-01
C     6.132137411799999e+00   4.676533057088693e+00  -4.711652999999991e-01  3.26041286e+00  -2.40145660e-01  -1.67268298e+00
C     7.435826365300001e+00   4.024836374985826e+00  -4.578057000000015e-01  5.23635640e-01  -1.62484577e+00   1.41692176e+00
C     8.677560698999999e+00   4.780905723746153e+00  -5.735444999999970e-01  2.50160850e-01  -4.26732137e+00  -9.98473960e-01
C     9.928635558600000e+00   4.026674226211437e+00  -8.545020000000001e-01 -1.46581522e+00   1.82880130e-01  -1.03043763e+00
C     1.107066941770000e+01   4.745687685092754e+00  -1.341385500000001e+00  1.00572844e+00  -3.96299920e-01   1.17551737e+00
C     3.786614039099999e+00   6.130520837070229e+00  -9.436032000000019e-01 -8.60288420e-01  -2.85752379e+00  -8.19028770e-01
C     4.971126898100000e+00   6.863126778223716e+00  -5.984558999999976e-01  8.47138360e-01  -3.09643026e+00  -7.29259300e-01
C     6.215668225900000e+00   6.037569950830819e+00  -5.151837000000015e-01 -2.57714100e-01   5.77629674e+00   1.70996025e+00
C     7.450291281100000e+00   6.852589297730977e+00  -2.911445999999991e-01 -3.15009200e-02  -2.16023864e+00  -2.25467206e+00
C     8.720444057500000e+00   6.132529041554916e+00  -6.322404000000006e-01 -2.88216245e+00   1.69986098e+00   1.60730927e+00
C     9.937428607999999e+00   6.762450905373363e+00  -7.671861000000000e-01 -6.87509720e-01   4.29128555e+00  -5.89076840e-01
C     1.108842086870000e+01   6.217810188581192e+00  -1.281046200000002e+00  1.99711844e+00  -4.35176662e+00   2.06339893e+00
C     1.239043416450000e+01   6.749614637869303e+00  -9.270212999999998e-01 -4.38477830e-01   2.56834158e+00  -1.35291730e+00
