32
Lattice="9.86 0 0 4.93 8.53901048131456 0 0 0 30 " PBC="1 1 1" Properties=species:S:1:pos:R:3:force:R:3 Energy="-253.14618707"
C     9.789508937299999e+00   8.174860108575160e-01   4.003379400000000e+00 -5.15773010e-01  -3.19232646e+00  -1.66332225e+00
C     1.167045573200000e+00   1.446090305358899e+00   3.738099900000000e+00 -1.28857541e+00   5.42231060e-01  -3.87314920e-01
C     2.360260572400000e+00   8.055155990161280e-01   3.570925500000000e+00  2.16131261e+00  -3.73424316e+00   1.05497780e+00
C     3.547479114000000e+00   1.544954456355710e+00   3.466128900000000e+00  3.01779439e+00  -1.76435017e+00  -6.72956340e-01
C     4.809308867200000e+00   7.712432557733904e-01   3.546352800000000e+00 -1.49993380e-01   1.56457728e+00  -5.70639800e-01
C     6.020974588599999e+00   1.547412666692693e+00   3.561661200000000e+00  2.21192954e+00  -5.20143784e+00   4.16274860e-01
C     7.357963375000000e+00   8.169160319079759e-01   3.661230300000000e+00 -3.74825442e+00  -4.79777210e-01  -3.56388650e-01
C     8.550290382600000e+00   1.515872294462926e+00   3.887599800000000e+00  3.67750000e-03  -5.00371173e+00  -1.66676360e-01
C     1.104324155990000e+01   2.800417757006469e+00   3.411679500000000e+00 -9.20756710e-01   3.38510968e+00  -3.35023000e-02
C     2.416130093200000e+00   3.649826175422627e+00   3.194601600000000e+00 -1.80377021e+00  -3.28070890e-01   9.06269600e-02
C     3.684316785600000e+00   2.946619193450733e+00   3.217857600000000e+00 -3.08346330e+00  -2.01940650e-01   1.02187031e+00
C     4.872678840700000e+00   3.630849334702190e+00   3.363900300000000e+00  5.58016210e-01   1.21394006e+00  -6.29024340e-01
C     6.076312704699999e+00   2.871176608909409e+00   3.558494700000000e+00 -9.91246690e-01   5.79180552e+00   8.59742730e-01
C     7.284437009899999e+00   3.637876769547020e+00   3.811061400000000e+00  4.65898200e-01  -1.73463779e+00  -2.74603664e+00
C     8.438755837400000e+00   2.807791961066893e+00   3.672678300000000e+00  3.38384837e+00   6.41584146e+00   5.95585490e-01
C     9.732150063499999e+00   3.445677306058988e+00   3.458110500000000e+00  1.46993874e+00   3.07794489e+00   4.48299420e-01
C     1.219821647180000e+01   5.119913149592842e+00   3.161121000000000e+00  1.49471522e+00  -2.70059821e+00   4.89378740e-01
C     3.635829151000000e+00   5.762527483978865e+00   3.269011500000000e+00 -3.31824924e+00   2.48493203e+00   3.53512100e-02
C     4.830884026200000e+00   5.119907855406344e+00   3.332184600000000e+00  1.68436101e+00  -4.68966955e+00   1.39186605e+00
C     6.020090294500000e+00   5.705931007907531e+00   3.733802400000000e+00  3.92680043e+00   2.65290773e+00  -1.40852957e+00
C     7.380611597800000e+00   5.042557912094103e+00   3.642499800000000e+00 -3.08103498e+00  -7.59477100e-01   2.10583112e+00
C     8.639586240100000e+00   5.695900232296674e+00   3.736048200000000e+00 -1.86518390e+00   3.74025430e-01  -1.45520554e+00
C     9.799140185299999e+00   4.925674826572500e+00   3.479686800000000e+00 -3.56831850e-01   6.78811740e-01   4.88744960e-01
C     1.095729405980000e+01   5.788827294696846e+00   3.372124200000000e+00  1.64620305e+00  -2.85783538e+00  -5.36456660e-01
C     1.346899412570000e+01   7.179705468363428e+00   3.519169500000000e+00 -3.06806400e-01   8.91404470e-01  -5.20341440e-01
C     4.836969174499999e+00   7.814051308121458e+00   3.833861100000000e+00 -2.64466260e-01   3.89080907e+00   2.68354390e-01
C     6.076511827399999e+00   7.152834824794859e+00   3.826324200000000e+00  1.33308456e+00  -9.54481380e-01  -3.19920500e-01
C     7.381280993199999e+00   7.850104461999800e+00   3.720253200000000e+00 -2.18850658e+00   1.17216121e+00   2.51966880e-01
C     8.603636285699999e+00   7.140364539279972e+00   3.669603000000000e+00 -3.08090220e-01   9.74202000e-03   2.76253970e-01
C     9.806529318599999e+00   7.885946446148972e+00   3.562343100000000e+00 -1.44197750e+00   6.14265600e-01   2.96137990e-01
C     1.099531515650000e+01   7.172193530063962e+00   3.467916000000000e+00  9.62738240e-01   2.64441023e+00  -8.18721340e-01
C     1.222506111060000e+01   7.997053147251168e+00   3.372805800000000e+00  1.31266198e+00  -3.80236193e+00   2.19377380e+00
