32
Lattice="9.86 0 0 4.93 8.53901048131456 0 0 0 30 " PBC="1 1 1" Properties=species:S:1:pos:R:3:force:R:3 Energy="-255.16178834"
C     4.990944709300000e+00   7.645215089647335e+00  -6.672584999999991e-01  2.20392940e-01   2.73378639e+00   8.73358800e-02
C     6.218437209699999e+00   8.435571724918738e+00  -6.798374999999979e-01 -3.32958040e-01  -1.38245779e+00   1.02167306e+00
C     7.428057227599999e+00   7.713574394215289e+00  -6.390548999999979e-01  1.48064269e+00  -1.89516969e+00   2.78567200e-01
C     8.707384093100000e+00   8.330854253018098e+00  -4.196795999999985e-01 -8.17863590e-01   2.70844132e+00  -7.42799960e-01
C     9.951388297399999e+00   7.644989232820139e+00  -5.534634000000018e-01 -1.05352657e+00  -8.81376490e-01   1.35429387e+00
C     1.118216974870000e+01   8.364435107192165e+00  -5.322051000000023e-01 -7.36582860e-01   2.40236410e-01  -6.50471000e-03
C     1.240762187000000e+01   7.683762488486884e+00  -4.211787000000022e-01  8.86831830e-01   1.50848220e-01  -5.78155690e-01
C     1.365523453850000e+01   8.367087836187880e+00  -5.980434000000017e-01 -1.21603210e+00   2.21282224e+00   6.03183730e-01
C     1.278415357800000e+00   1.266646928066520e+00  -3.506558999999996e-01  1.96087060e-01   1.09789092e+00   2.55639530e-01
C     2.489625596500000e+00   1.994661699455225e+00  -1.196118000000013e-01  1.72900487e+00  -1.15623944e+00   3.18778900e-01
C     3.744857136300000e+00   1.258359049884737e+00  -2.100347999999990e-01  1.19298729e+00  -4.14359280e-01  -1.78156340e+00
C     5.030156893999999e+00   1.983586517472560e+00  -4.645872000000004e-01 -2.19738329e+00  -2.54857282e+00   1.14696125e+00
C     6.249646574700000e+00   1.244657182888319e+00  -6.131045999999998e-01 -1.20416831e+00   3.73434100e-02   5.08420810e-01
C     7.445304438200000e+00   1.956420509531488e+00  -5.697609000000021e-01  1.74839816e+00   1.55668488e+00   6.43689600e-02
C     8.698958131500000e+00   1.325368934626537e+00  -5.289044999999994e-01  2.41292710e-01  -3.03142205e+00  -8.73807700e-02
C     9.922356759900000e+00   2.007042239969967e+00  -2.968530000000023e-01 -4.54038530e-01  -5.23276250e-01  -8.48027210e-01
C     2.558250999300000e+00   3.412145124244657e+00   1.282752000000000e-01 -1.18262051e+00   4.82845560e-01  -1.32035021e+00
C     3.776833954400000e+00   4.099199287042059e+00  -1.234497000000019e-01  1.07341311e+00   8.41078180e-01  -7.09419750e-01
C     4.995486964800000e+00   3.352847759158498e+00  -4.128267000000001e-01  9.28497480e-01   2.86859223e+00   1.26869370e-01
C     6.274191664299999e+00   4.101536670380749e+00  -5.861888999999998e-01 -2.98595630e+00  -8.59567400e-02   2.59645600e-01
C     7.501322401299999e+00   3.401120237033719e+00  -5.350275000000018e-01 -2.12847543e+00  -3.86197730e-01  -4.80185630e-01
C     8.666177329000000e+00   4.146779507337667e+00  -4.368851999999990e-01  2.58035283e+00  -3.12033455e+00   8.93291420e-01
C     9.915232909899999e+00   3.399921872302956e+00  -2.095130999999988e-01  1.05539584e+00   2.92616527e+00   9.54577410e-01
C     1.117714869160000e+01   4.178615500110251e+00   1.057164000000000e-01 -9.95985880e-01  -1.58722167e+00  -1.17343507e+00
C     3.782858858100000e+00   5.577158289583680e+00  -3.219095999999979e-01 -2.99869434e+00  -2.67139531e+00   1.66355400e+00
C     4.918336704600000e+00   6.271186433020309e+00  -5.532654000000008e-01  3.64336786e+00  -1.41003361e+00  -1.01792474e+00
C     6.140279849100000e+00   5.515406556715255e+00  -6.717770999999999e-01  3.35385263e+00   1.02988486e+00   2.64827010e-01
C     7.432515278700000e+00   6.263864316923814e+00  -6.979131000000010e-01 -6.91034880e-01  -7.01930790e-01   7.29632400e-01
C     8.702123684499998e+00   5.510808128791565e+00  -4.607951999999997e-01 -3.18439589e+00   2.21689023e+00  -9.62753450e-01
C     9.889157696200000e+00   6.186760553283710e+00  -3.713334000000010e-01  3.35433358e+00   3.17917743e+00   3.85962500e-01
C     1.117322993320000e+01   5.609806086082599e+00  -2.533529999999828e-02 -9.51857240e-01  -1.92833461e+00  -9.97557040e-01
C     1.241756040490000e+01   6.296384284435845e+00  -1.898862000000001e-01 -5.53277120e-01  -5.58408730e-01  -2.11525290e-01
