32
Lattice="9.86 0 0 4.93 8.53901048131456 0 0 0 30 " PBC="1 1 1" Properties=species:S:1:pos:R:3:force:R:3 Energy="-253.38668322"
C     9.850648726699999e+00   6.081047774321520e-02   3.556881000000000e+00  8.22166100e-02  -6.92586490e-01   2.67238399e+00
C     1.239827163200000e+00   7.144204105342304e-01   3.652204800000000e+00 -1.14347995e+00   4.81525534e+00  -2.62725020e-01
C     2.425927186400000e+00   1.265115883487456e-01   4.000259400000000e+00  2.60451551e+00  -1.52798401e+00   6.60221200e-02
C     3.722608243499999e+00   8.149145732415688e-01   3.933216300000000e+00 -2.64988638e+00   2.36843008e+00  -3.82920730e-01
C     4.911057756800000e+00   1.021859968537408e-01   3.867821100000000e+00 -2.72488250e-01  -2.19494220e-01   1.79385484e+00
C     6.085376854800000e+00   8.569738963113328e-01   4.043756999999999e+00  2.34128033e+00  -6.18499090e-01  -2.06635661e+00
C     7.356104173399999e+00   5.359749020065440e-02   4.019395200000000e+00 -8.93329000e-03   5.68195440e+00  -1.08574702e+00
C     8.619466762199998e+00   7.782221890386944e-01   3.649764900000000e+00 -1.76222551e+00  -6.14023750e-01   2.14939330e+00
C     1.106766995640000e+01   2.274646716353211e+00   3.577989000000000e+00 -1.97383557e+00  -3.91087719e+00  -1.95025100e-02
C     2.359365826700000e+00   2.983966007416794e+00   3.646900800000000e+00  4.97250238e+00  -5.91980790e-01   9.46472170e-01
C     3.727929044600000e+00   2.307735723523630e+00   3.851999700000000e+00 -4.71678225e+00  -3.64763133e+00  -7.72939240e-01
C     4.900584908499999e+00   2.957421297878247e+00   3.856534800000000e+00  1.78174410e-01   5.01048793e+00   1.93862050e-01
C     6.094061986499999e+00   2.298657132971399e+00   3.848166300000000e+00  2.83067651e+00  -3.12300003e+00   1.44747576e+00
C     7.404759526599999e+00   2.905380213117783e+00   3.894951900000000e+00 -2.22208065e+00   1.19899706e+00   6.53819530e-01
C     8.581850073400000e+00   2.193192924604282e+00   3.846755400000000e+00  1.33909719e+00  -1.32276571e+00  -2.15937083e+00
C     9.787304093400000e+00   2.928264590423972e+00   3.625923900000000e+00  9.06641620e-01  -1.38888389e+00  -2.32744560e-01
C     1.226527650100000e+01   4.371804634912915e+00   3.699701700000000e+00  1.28741872e+00   2.46974327e+00   5.54778000e-01
C     3.694790669200000e+00   5.184029505243388e+00   3.851919600000000e+00 -1.93710847e+00  -3.23003841e+00   2.83545190e-01
C     4.894978561800000e+00   4.474794835773662e+00   3.958412400000000e+00  1.74871558e+00  -2.42640844e+00  -1.27924133e+00
C     6.195357316099999e+00   5.088790249585442e+00   3.998882700000000e+00 -3.20704160e-01  -5.84388450e-01   1.56477458e+00
C     7.458292572500000e+00   4.316113635512879e+00   4.056716700000001e+00 -4.78037874e+00  -4.28439600e-01  -9.43236000e-01
C     8.595548275599999e+00   5.012518356346300e+00   3.937884000000000e+00  2.15175029e+00   2.68512423e+00   4.15179850e-01
C     9.754802723299999e+00   4.300454114973817e+00   3.569511900000000e+00  3.01759129e+00   2.94359754e+00   2.05610658e+00
C     1.105188670930000e+01   5.061762402833937e+00   3.727151400000000e+00 -1.88025925e+00   3.72475240e-01  -1.11077033e+00
C     1.353582535360000e+01   6.554353170613248e+00   3.955851599999999e+00 -1.19181352e+00   9.82045080e-01   8.07818020e-01
C     4.918225730300000e+00   7.224605293269364e+00   3.996211800000000e+00  1.11628624e+00  -2.89673100e-02  -1.53687692e+00
C     6.219822736899999e+00   6.500027388208754e+00   4.133044500000000e+00 -3.06754553e+00   4.62826680e-01  -3.77175090e-01
C     7.386393452500000e+00   7.236729492689497e+00   4.260873600000000e+00  1.63503117e+00  -4.77327160e-01  -1.18374428e+00
C     8.620624276899999e+00   6.448708618344792e+00   4.192536300000000e+00 -2.28272730e-01   1.46541433e+00  -2.00306073e+00
C     9.819713864099999e+00   7.202395839351513e+00   3.894375000000000e+00 -1.18402038e+00  -3.13920950e-01   9.55673010e-01
C     1.101285461750000e+01   6.507423366745902e+00   3.832657200000000e+00  2.04110016e+00  -8.24909970e-01   1.13487775e+00
C     1.223963399340000e+01   7.264511419456491e+00   4.091737200000000e+00  1.08681662e+00  -4.48422437e+00  -2.27962552e+00
