32
Lattice="9.86 0 0 4.93 8.53901048131456 0 0 0 30 " PBC="1 1 1" Properties=species:S:1:pos:R:3:force:R:3 Energy="-249.77977003"
C     9.762216851700000e+00   1.106769327047384e-01  -2.879426999999986e-01  6.58836220e+00  -7.10626563e+00  -7.74869130e-01
C     1.208725617300000e+00   6.985857548902232e-01  -4.252673999999992e-01 -4.35561950e-01   5.66788720e-01   2.96547640e+00
C     7.340808503299999e+00   8.425297758289412e+00  -2.807649000000012e-01  1.98472160e+00   5.23717059e+00  -5.58276960e-01
C     3.761169224500000e+00   7.207601988651064e-01  -1.322556000000006e-01 -3.46949682e+00  -3.79856777e+00  -1.04683849e+00
C     4.981379079599999e+00   9.150847658912960e-02  -1.420974000000008e-01 -1.45356520e-01  -4.92121750e+00   4.99433650e-01
C     6.202967264100000e+00   7.272547994559848e-01  -2.462316000000015e-01 -1.21531540e+00   3.66586862e+00   1.02389189e+00
C     7.412976702699999e+00   7.234138671519759e-02  -6.008849999999910e-02 -2.45978634e+00  -2.57926341e+00  -4.17681420e-01
C     8.599928974999999e+00   7.088951584130415e-01  -2.204757000000015e-01 -9.71709240e-01   1.41529603e+00  -2.00164420e-01
C     1.107043637660000e+01   2.110454353338531e+00  -4.377630000000110e-02  6.85983590e-01  -1.38668132e+00  -3.41956999e+00
C     2.520524075700000e+00   2.715843298487519e+00  -9.597510000000042e-02 -3.71911447e+00   4.90870414e+00   3.55935916e+00
C     3.714662217400000e+00   2.053810314978822e+00  -4.793129999999834e-02  1.61883583e+00   3.40125962e+00  -2.02216160e-01
C     4.996132006000000e+00   2.852419733098936e+00  -2.564699999999931e-02 -4.04537049e+00  -9.78246210e-01  -4.34129510e-01
C     6.149790213499999e+00   2.272850877059163e+00  -2.614736999999998e-01  4.08626918e+00  -8.16080819e+00   8.69653400e-02
C     7.447063708699999e+00   2.807110974981113e+00  -2.657348999999982e-01 -4.63251336e+00   4.52844120e-01  -7.92604940e-01
C     8.593391351299999e+00   2.075554307435409e+00  -3.011163000000003e-01  8.99020490e-01   2.14855357e+00   1.56990230e-01
C     9.758610704599999e+00   2.810479358445158e+00  -1.926845999999998e-01  5.71163793e+00  -1.40445920e+00   1.86184333e+00
C     1.231401093140000e+01   4.310429301626448e+00   3.605040000000000e-01  2.30766950e-01  -4.83698356e+00  -2.15446868e+00
C     3.678366078400000e+00   4.923405926097860e+00   2.845755000000000e-01  3.35281093e+00   2.96733279e+00  -2.63068818e+00
C     4.998505603800000e+00   4.194745520126761e+00  -2.001209999999887e-02 -2.71585343e+00   5.80047358e+00   8.93958790e-01
C     6.209017409399999e+00   5.006422698325048e+00  -2.708790000000008e-01 -2.47391657e+00  -4.74378724e+00   8.58866990e-01
C     7.340576349599999e+00   4.170096129354355e+00  -3.477905999999997e-01  3.67832315e+00   2.50693972e+00   4.26713900e-01
C     8.608063129900000e+00   4.755693697573219e+00  -2.321483999999998e-01  2.11391890e+00   7.24200474e+00   1.02237211e+00
C     9.879452991199999e+00   4.172688743716293e+00   7.271670000000001e-02 -3.25004052e+00   1.00929050e+00  -1.53627328e+00
C     1.105085362780000e+01   4.946844485184201e+00   3.167685000000000e-01  1.69757585e+00   2.76951060e-01   1.69788710e-01
C     3.754415913300000e+00   6.431302357821941e+00  -6.557820000000092e-02 -2.53269334e+00  -1.68008873e+00   3.00456854e+00
C     4.980068488400000e+00   7.068270783868694e+00  -2.162384999999993e-01 -1.64081043e+00   3.12175050e+00  -6.30038500e-02
C     6.224693921999999e+00   6.365030499755927e+00  -2.319411000000002e-01 -2.94471947e+00   1.00072494e+00  -1.04382650e+00
C     7.371909260400000e+00   7.072730709042399e+00  -3.680051999999989e-01  4.34079037e+00  -9.05630350e-01   8.08856730e-01
C     8.683105519300000e+00   6.377668832997061e+00  -2.199047999999983e-01 -2.47763965e+00  -2.48766242e+00   9.27537000e-03
C     9.838352813699998e+00   7.104956849203814e+00   1.875600000000000e-02  2.58779676e+00   5.92863190e-01   1.54438020e-01
C     1.112615612400000e+01   6.369911398146296e+00   3.332049000000000e-01 -2.23886448e+00   2.87540686e+00  -2.10595113e+00
C     1.231629500040000e+01   7.217895424224285e+00   1.268619000000000e-01  1.79194877e+00  -4.20056174e+00  -1.22236530e-01
