64
Lattice="9.86 0 0 4.93 8.53901048131456 0 0 0 30 " PBC="1 1 1" Properties=species:S:1:pos:R:3:force:R:3 Energy="-516.33382762"
C     9.860438720699999e+00   4.742833691620024e-01   4.118250000000000e-02 -3.42687740e-01  -4.84102400e-02   5.95649050e-01
C     1.229178659000000e+00   1.206277490214597e+00   1.254426000000000e-01  1.68912590e-01  -1.16759422e+00  -7.90599760e-01
C     1.227589374900000e+00   2.196608358016072e-01   3.302676000000000e+00  1.13575832e+00   3.02991200e-01   3.66235100e-02
C     2.471905697500000e+00   9.512017915680280e-01   3.296663400000000e+00 -8.31540190e-01   2.08407620e-01   6.13338880e-01
C     2.470848902700000e+00   4.768022064733928e-01   2.474850000000000e-02 -8.96683500e-01   1.71034710e-01   4.03739260e-01
C     3.686629399300000e+00   1.194457364957657e+00   7.817160000000001e-02  3.18690620e-01  -9.46312530e-01  -5.06636280e-01
C     3.685875060000000e+00   2.302561253952960e-01   3.359480700000000e+00  5.57745540e-01   4.00412860e-01  -1.80591520e-01
C     4.943419065600000e+00   9.242392682466944e-01   3.324564300000000e+00 -3.97910040e-01  -7.82409170e-01   6.26936280e-01
C     4.907029946800000e+00   4.495519184988832e-01   2.013600000000000e-03  8.85739630e-01   2.21035540e+00   1.90136500e-01
C     6.149528381199999e+00   1.211412338776640e+00   4.383000000000000e-04 -1.39356680e-01  -8.23461900e-01   3.80123290e-01
C     6.180819387000000e+00   2.363017448151360e-01   3.367032900000000e+00 -9.01686000e-02  -1.35732198e+00  -4.54088180e-01
C     7.414978282700000e+00   9.315994683299305e-01   3.323388300000000e+00 -9.32751670e-01   9.60068080e-01  -1.72197770e-01
C     7.392336321000000e+00   5.086878108968657e-01   5.108910000000000e-02 -1.15026783e+00  -2.18096481e+00  -1.22880780e-01
C     8.601204711099999e+00   1.187369644698838e+00   6.490110000000000e-02  1.56031557e+00   3.48686180e-01  -3.61918210e-01
C     8.635079677800000e+00   2.551517812299456e-01   3.301900800000000e+00  4.84207850e-01  -4.40268060e-01   3.36049290e-01
C     9.877554349599999e+00   9.371468364882624e-01   3.303410400000000e+00 -2.23007070e-01   8.85123600e-01  -4.23528800e-02
C     1.109546544430000e+01   2.619548877304559e+00   1.709376000000000e-01  5.11846870e-01  -3.48583760e-01  -3.11530880e-01
C     2.484078459100000e+00   3.314860860966855e+00   1.807440000000000e-01 -1.65398393e+00   1.05596746e+00  -1.14118800e-02
C     2.460903317900000e+00   2.390922849009895e+00   3.360266700000000e+00  2.18181700e-01  -9.13080670e-01  -3.11113790e-01
C     3.701757646600000e+00   3.072610072940408e+00   3.368285400000000e+00  6.13672900e-02  -2.48920300e-01  -1.91597300e-01
C     3.677548388600000e+00   2.605766658219525e+00   1.208121000000000e-01  1.37758587e+00   3.38428830e-01   3.96116300e-02
C     4.909657981900000e+00   3.339014135230374e+00   6.767519999999999e-02  5.35927580e-01  -1.05063654e+00  -1.51724700e-02
C     4.942401365699999e+00   2.308499025670437e+00   3.357621000000000e+00 -7.78908010e-01   2.71500657e+00  -3.67877820e-01
C     6.152237120400000e+00   3.055427363711923e+00   3.305685300000000e+00  6.91309750e-01   2.82832300e-01   5.41255240e-01
C     6.162531354800000e+00   2.635047437496074e+00   3.642810000000000e-02 -4.52514450e-01  -2.58574700e-02  -4.61288490e-01
C     7.401574253600000e+00   3.349807188306779e+00  -9.925800000001317e-03 -4.09767780e-01   1.86943130e-01  -2.05228900e-02
C     7.389631476499999e+00   2.347332225190753e+00   3.276084900000000e+00  6.82984430e-01   1.18903739e+00   3.86530100e-01
C     8.637305276999999e+00   3.099082884010713e+00   3.311966100000000e+00 -1.03425220e-01  -1.81344322e+00   2.00830300e-02
C     8.624876549800000e+00   2.607375237013747e+00   1.813050000000000e-02  2.57412720e-01   7.71236260e-01   3.14137610e-01
C     9.878773094900000e+00   3.310944016859680e+00   8.729160000000001e-02 -1.09695076e+00   6.18475630e-01   2.23691300e-02
C     9.884316633399999e+00   2.374540159673282e+00   3.321486600000000e+00 -1.25696324e+00  -2.13630890e-01  -1.67290900e-02
C     1.108298490280000e+01   3.102240097745589e+00   3.348916500000000e+00  8.69180510e-01  -6.97808000e-01   2.96338200e-01
C     1.230793327670000e+01   4.755955332854326e+00   1.884963000000000e-01  1.03832670e-01  -7.58764960e-01  -3.30490130e-01
C     3.681773743700000e+00   5.446455071770512e+00   1.586247000000000e-01 -2.86915490e-01   2.11934080e-01  -4.05186360e-01
C     3.678306031000000e+00   4.501046998813165e+00   3.316794600000000e+00  2.39335824e+00  -3.17207990e-01   6.93979350e-01
C     4.960846566299999e+00   5.203219479665407e+00   3.330451200000000e+00 -1.71188146e+00   1.13639248e+00   2.96347150e-01
C     4.910116521199999e+00   4.737662979213964e+00   5.283479999999999e-02 -7.42216750e-01   5.23099480e-01   2.12407270e-01
C     6.104908282300000e+00   5.466837348225853e+00  -3.622680000000145e-02  2.36419069e+00  -1.24269900e-01   1.73324880e-01
C     6.174535904800000e+00   4.506432723503111e+00   3.379308000000000e+00  4.46407110e-01  -1.03705593e+00  -1.10114259e+00
C     7.425793568800000e+00   5.211512139693059e+00   3.298065000000000e+00 -8.88652320e-01  -2.95374280e-01   7.66777480e-01
C     7.368015891500000e+00   4.797967264415925e+00  -5.133689999999902e-02  7.24819000e-01  -1.76913435e+00   3.65191120e-01
C     8.640978619999999e+00   5.460575948011184e+00   1.150410000000000e-02 -1.01916663e+00   3.14896790e-01  -3.28433440e-01
C     8.648411827499999e+00   4.497676907547024e+00   3.355835100000000e+00 -1.35528500e-01   5.87931550e-01  -2.32088060e-01
C     9.867413093099998e+00   5.228417245690839e+00   3.399685800000000e+00 -1.03737670e-01  -1.80654770e-01   8.90267200e-02
C     9.869213479799999e+00   4.745260478398440e+00   8.017680000000001e-02 -1.32416471e+00  -9.25120020e-01  -2.08403600e-01
C     1.105711699560000e+01   5.457521543962487e+00   1.044582000000000e-01  1.78267991e+00   1.64451200e-01   1.77637300e-01
C     1.109323890840000e+01   4.501460116140187e+00   3.410451600000000e+00  3.02722560e-01   1.38898143e+00  -2.75417380e-01
C     1.234473222640000e+01   5.219848775624683e+00   3.385854300000000e+00 -1.07636743e+00  -1.22579510e-01   6.06878000e-02
C     1.353811923330000e+01   6.862453391857263e+00   1.212060000000000e-01  1.27489864e+00   4.59254390e-01  -2.26059520e-01
C     4.939019681500000e+00   7.580303581340890e+00   4.991070000000000e-02 -2.31729980e-01   4.37982090e-01  -2.11853900e-02
C     4.947586887600000e+00   6.658696633854865e+00   3.341850900000000e+00 -1.05051007e+00  -1.07731276e+00  -1.23863400e-01
C     6.176015545699999e+00   7.330714965438665e+00   3.315858600000000e+00 -6.24492100e-02   7.37498330e-01  -2.75214200e-02
C     6.192241999800000e+00   6.872742130974721e+00  -6.944100000001896e-03 -2.18256786e+00   6.28809500e-01  -2.00230510e-01
C     7.402719394000000e+00   7.586955214334496e+00  -5.665079999999989e-02  4.67111300e-01   3.26981440e-01   4.87674680e-01
C     7.407843734600000e+00   6.624723326759137e+00   3.314166300000000e+00 -2.07152550e-01   1.88092830e-01   3.82060520e-01
C     8.611685595299999e+00   7.362416383406084e+00   3.409647000000000e+00  2.71717970e-01  -4.49027100e-01  -6.86522700e-01
C     8.641172861999999e+00   6.882817821780701e+00  -1.450379999999996e-02 -5.52353380e-01  -3.35782210e-01  -2.06810040e-01
C     9.852179491699999e+00   7.591083228170842e+00   5.310000000000000e-05  3.69788750e-01  -1.67340480e-01  -6.11757200e-02
C     9.836169908299999e+00   6.654713100075841e+00   3.407148600000000e+00  1.17871494e+00  -5.41854800e-01  -8.62933000e-02
C     1.109789381440000e+01   7.329098616144906e+00   3.358264500000000e+00 -4.15742340e-01   1.15509892e+00   7.14792370e-01
C     1.107535888300000e+01   6.872566227358832e+00   3.906689999999999e-02  5.66762970e-01   2.80458970e-01   3.59959950e-01
C     1.232364267240000e+01   7.564794261996171e+00   9.282299999999999e-02 -7.87433850e-01   1.79196220e+00  -3.08767600e-01
C     1.233498852510000e+01   6.642432124423296e+00   3.403106100000000e+00  3.12376700e-02   1.49657360e-01  -4.52220810e-01
C     1.354956738350000e+01   7.395860271852052e+00   3.350510700000000e+00  1.03572598e+00  -1.94343080e+00   4.05424500e-02
