64
Lattice="9.86 0 0 4.93 8.53901048131456 0 0 0 30 " PBC="1 1 1" Properties=species:S:1:pos:R:3:force:R:3 Energy="-516.34612424"
C     9.804097004499999e+00   1.366257900919912e-01   1.503600000000000e-03  7.54740610e-01  -2.86857720e-01  -1.87528420e-01
C     1.192701145300000e+00   8.182213904400536e-01   6.562469999999999e-02 -1.45591290e-01   7.52011410e-01  -5.43680050e-01
C     1.235874535700000e+00   6.014481918124679e-01   3.367461000000000e+00  1.43520018e+00  -1.28346592e+00  -1.91447100e-02
C     2.502459372500000e+00   1.272711418699521e+00   3.387964800000000e+00 -8.82965960e-01   1.60760207e+00   1.77973030e-01
C     2.436819281900000e+00   1.294508011460664e-01  -3.623430000000027e-02 -5.29391670e-01   6.46822880e-01   1.43246970e-01
C     3.663009177700000e+00   8.682374488651864e-01  -7.223760000000112e-02 -1.92494750e-01  -1.42238069e+00   7.05597440e-01
C     3.724421398900000e+00   5.833613721543608e-01   3.472736700000000e+00 -2.17598070e-01  -1.36365115e+00  -5.37571800e-01
C     4.965067040700000e+00   1.253724758117031e+00   3.400102800000000e+00 -1.46628080e-01   1.78412373e+00   4.26931190e-01
C     4.880196893500000e+00   1.228209426291848e-01  -4.743660000000105e-02  1.04136000e+00   9.90040970e-01  -1.36554820e-01
C     6.126554088200000e+00   8.541225499318511e-01   1.428000000000000e-04 -1.01049901e+00  -3.24492570e-01  -5.68820110e-01
C     6.201380099900001e+00   5.975108540801400e-01   3.431882400000000e+00  1.05416087e+00  -9.07446150e-01  -7.21925700e-02
C     7.461702752100000e+00   1.298007895686102e+00   3.407784000000000e+00 -9.99167530e-01  -3.06502330e-01   3.80508170e-01
C     7.361379174800000e+00   1.680154487867856e-01  -6.781140000000008e-02 -5.88880260e-01  -9.12233490e-01   6.95849140e-01
C     8.587910423800000e+00   8.562643045404449e-01  -1.007430000000298e-02 -1.28211640e-01  -1.26545420e-01   2.28191700e-02
C     8.677779985399999e+00   5.430440072225168e-01   3.424749900000000e+00 -1.45294950e-01   1.97804712e+00  -2.96313700e-01
C     9.880234642700000e+00   1.316782959588897e+00   3.368249100000000e+00  6.36539150e-01  -1.10241860e+00  -1.03933660e-01
C     1.102320189870000e+01   2.246703743848564e+00   8.308860000000000e-02  1.75009264e+00   3.14650000e-03  -7.05360780e-01
C     2.425468597800000e+00   2.992989948301954e+00   3.396810000000000e-02 -1.12543594e+00  -1.47855573e+00   3.82980250e-01
C     2.518394512900000e+00   2.730335707074175e+00   3.379029300000000e+00 -6.12154410e-01  -1.29934754e+00   2.20737540e-01
C     3.730476326300000e+00   3.413095174550662e+00   3.410090700000000e+00  8.31946940e-01   6.71267500e-02  -1.10863660e-01
C     3.652201385200000e+00   2.267879038207183e+00   1.697580000000000e-02  4.22137370e-01   1.25453745e+00  -3.79254730e-01
C     4.892609647500000e+00   3.002366891880356e+00  -4.589700000000363e-03 -6.99676090e-01  -5.23274910e-01   9.74774900e-02
C     4.970182852400000e+00   2.694822047877960e+00   3.393269100000000e+00 -7.54718130e-01  -3.11315680e-01   2.05994360e-01
C     6.168665162200000e+00   3.417136602820741e+00   3.437966700000000e+00  2.00633496e+00  -6.33340000e-01  -2.90683300e-01
C     6.092344818200000e+00   2.261552485342551e+00   2.922000000000000e-04  1.68622911e+00   1.04297324e+00  -2.94402160e-01
C     7.372231583799999e+00   2.967221605596248e+00  -5.247269999999915e-02 -1.75933309e+00   1.09448946e+00   3.87946400e-01
C     7.445197703700000e+00   2.727699885319209e+00   3.434958600000000e+00 -2.08484450e-01  -7.46115530e-01  -2.32202410e-01
C     8.688252390000001e+00   3.422232342714786e+00   3.410455200000000e+00 -4.31353980e-01   4.39434130e-01  -3.29623190e-01
C     8.578717403499999e+00   2.273236498772439e+00   8.548800000000000e-03 -7.86221800e-02  -1.08837538e+00  -5.25878050e-01
C     9.803028131200000e+00   2.928989723193935e+00  -2.462729999999880e-02  7.57510180e-01   2.20236400e+00   8.21915540e-01
C     9.926187616400000e+00   2.717378868742137e+00   3.326707200000000e+00 -2.89903010e-01   1.38789178e+00   8.96930470e-01
C     1.117439725860000e+01   3.474118102874619e+00   3.400539300000000e+00 -1.29234955e+00  -2.10705749e+00  -4.77967930e-01
C     1.227130135540000e+01   4.394937497424074e+00   4.413090000000000e-02  7.11968310e-01   6.04743200e-01  -1.40398580e-01
C     3.656875666099999e+00   5.114976320683829e+00   2.028900000000000e-02 -5.83348650e-01   1.08016719e+00  -6.28260700e-02
C     3.723540950199999e+00   4.825414120411684e+00   3.423369900000000e+00  1.38469309e+00   9.54178320e-01  -7.64586400e-02
C     4.994181845900000e+00   5.524919868291023e+00   3.419486400000000e+00 -1.53882575e+00   4.21112060e-01  -2.29711750e-01
C     4.895798568700000e+00   4.434341871355396e+00  -2.355870000000237e-02 -1.41558703e+00  -1.63254090e+00   3.11153440e-01
C     6.094000410800000e+00   5.109740967968436e+00  -3.545340000000152e-02  2.56931154e+00   4.87651130e-01  -6.03441960e-01
C     6.206178271699999e+00   4.825482688665839e+00   3.418537500000000e+00 -2.77933860e-01   9.36110500e-02   3.56294260e-01
C     7.422041838799998e+00   5.544655997823343e+00   3.469712100000000e+00  4.97314580e-01   1.61512110e-01  -4.85131350e-01
C     7.367358722499999e+00   4.410407195760165e+00  -7.392779999999988e-02 -1.01145057e+00  -7.01953070e-01   3.01589110e-01
C     8.587274355199998e+00   5.123888058971282e+00  -5.425500000000127e-02  5.50620100e-01  -6.73655800e-01   1.12266100e-01
C     8.657096071800000e+00   4.848938240383037e+00   3.414594600000000e+00  7.54644250e-01  -1.52317700e-01   5.05014600e-01
C     9.900081886000001e+00   5.554692579961324e+00   3.440362200000000e+00 -1.51095670e-01   8.88444810e-01  -3.27401400e-02
C     9.823320306999999e+00   4.372363086198307e+00  -1.102170000000058e-02 -4.90640300e-01   5.41677140e-01  -2.84714140e-01
C     1.104118747540000e+01   5.098869441385720e+00   1.802670000000000e-02  4.27047800e-01   7.40298760e-01  -9.37189600e-02
C     1.114956721500000e+01   4.867391725151156e+00   3.441342900000000e+00 -2.24915870e-01   7.04209900e-01  -3.30399600e-01
C     1.238437011660000e+01   5.586166006348928e+00   3.416884500000000e+00 -4.62391080e-01  -1.36080123e+00   4.25053350e-01
C     1.351018792390000e+01   6.564542344868508e+00   1.278210000000000e-02 -4.80142680e-01  -1.02719962e+00  -6.59968620e-01
C     4.876455368600000e+00   7.257070525724219e+00  -8.676780000000051e-02  4.96199840e-01  -4.23782980e-01   6.72037350e-01
C     4.987619818700000e+00   6.948388968646726e+00   3.374871900000000e+00 -2.33765500e-01   3.87887750e-01   3.17172520e-01
C     6.188725628000000e+00   7.689721522340458e+00   3.359000700000000e+00  3.84344800e-01   3.90578960e-01   5.50483510e-01
C     6.119544170499999e+00   6.514271140810233e+00  -9.863339999999710e-02 -3.26944710e-01   1.75735524e+00   4.73401850e-01
C     7.350322466600000e+00   7.265086607202424e+00  -6.297629999999899e-02  7.27120510e-01  -1.55974258e+00  -8.04782800e-02
C     7.425405824299999e+00   6.970658878758775e+00   3.459520800000000e+00 -8.66263620e-01   7.45689400e-02  -1.80987810e-01
C     8.628254832300000e+00   7.682279518536823e+00   3.501578400000000e+00  1.69816849e+00   6.39557580e-01  -3.37580120e-01
C     8.603557405699998e+00   6.539209150136863e+00  -3.418920000000014e-02 -1.83627660e-01   5.12619420e-01  -5.16532520e-01
C     9.856257439800000e+00   7.249247938223491e+00  -6.856170000000006e-02 -1.63638926e+00  -2.89827800e-02   3.93546360e-01
C     9.890681312700000e+00   6.995597229645824e+00   3.460184700000000e+00  2.71401530e-01  -4.00052790e-01   2.83217600e-01
C     1.114797827600000e+01   7.712081433622966e+00   3.463342500000000e+00 -5.06536920e-01  -6.28491000e-01  -8.13737300e-02
C     1.108215350760000e+01   6.558729755044667e+00  -2.919719999999870e-02 -1.57432644e+00  -1.71993116e+00   1.31960080e-01
C     1.225876037210000e+01   7.275634419897844e+00  -2.321159999999978e-02  2.27258606e+00   2.80458730e-01  -4.62270600e-02
C     1.238589304290000e+01   6.977762652357296e+00   3.455811900000000e+00 -2.04636550e-01   1.35095506e+00  -1.14605010e-01
C     1.363088334580000e+01   7.682063908522204e+00   3.439317900000000e+00 -7.17802620e-01  -7.54478200e-01  -2.80347870e-01
