32
Lattice="9.86 0 0 4.93 8.53901048131456 0 0 0 30 " PBC="1 1 1" Properties=species:S:1:pos:R:3:force:R:3 Energy="-248.87904091"
C     5.020875133699999e+00   8.270422821950088e+00  -1.006451400000003e+00 -3.31859014e+00   6.26307020e-01   1.04853338e+00
C     1.262516305000000e+00   3.982907015655568e-01  -8.808954000000000e-01  3.43371454e+00   2.96981785e+00  -1.66062180e-01
C     7.541153695400000e+00   8.264705869043624e+00  -8.387306999999993e-01 -4.83270382e+00   1.31635510e+00  -7.46050440e-01
C     3.693502706700000e+00   4.973334032715048e-01  -7.835964000000004e-01  4.54811320e+00  -3.53630900e-02   1.44826836e+00
C     9.898240087300000e+00   8.301510114283786e+00  -5.967348000000001e-01 -1.37768325e+00   9.66200910e-01  -7.50656660e-01
C     6.105153549800000e+00   5.040685477876048e-01  -6.838464000000002e-01  5.98686634e+00   7.46855100e-02  -6.20483090e-01
C     1.236319734420000e+01   8.280762795130427e+00  -5.397561000000017e-01 -1.59153204e+00   3.96292287e+00  -1.46103642e+00
C     8.633049651700000e+00   5.247163020787688e-01  -9.455913000000002e-01  1.38193387e+00  -3.92466687e+00   1.28493252e+00
C     1.309448327400000e+00   1.931791270823815e+00  -6.563249999999989e-01  2.83827549e+00  -4.77053355e+00   2.21857202e+00
C     2.527206099100000e+00   2.498868408432396e+00  -3.172410000000170e-02 -3.67682500e-01   2.26758242e+00  -3.78849121e+00
C     3.768903309900000e+00   1.911264087360628e+00  -4.959305999999977e-01 -4.66819065e+00  -3.25682445e+00   7.74941640e-01
C     4.896545858100000e+00   2.555175668218774e+00  -6.064262999999990e-01  7.02618740e+00   4.29795464e+00   6.90518700e-02
C     6.261404526100000e+00   1.929153485096438e+00  -9.776505000000029e-01 -6.02404250e+00  -2.78575201e+00   2.31206036e+00
C     7.428919780399999e+00   2.590293629669346e+00  -9.113822999999996e-01  2.13894033e+00   2.33775596e+00   8.98702720e-01
C     8.678212740799999e+00   1.904453628772095e+00  -9.041694000000007e-01  1.08618624e+00  -1.38297160e-01   3.18349100e-02
C     9.995691693099999e+00   2.551938529345806e+00  -5.852375999999992e-01 -6.02684138e+00   1.50426902e+00  -4.76568180e-01
C     2.454010487700000e+00   3.962196414247271e+00   4.939380000000000e-02  4.69753153e+00  -6.36735590e-01   7.63881230e-01
C     3.813913322500000e+00   4.862432182474267e+00  -3.200490000000045e-02 -4.92324680e-01  -3.30800773e+00   7.47832800e-01
C     5.038962662799999e+00   3.966396668112278e+00  -2.258433000000011e-01 -2.16934767e+00   2.99980158e+00  -2.29160843e+00
C     6.243090709999999e+00   4.708918108235141e+00  -6.267209999999999e-01 -1.83365241e+00   2.80073518e+00   8.20157180e-01
C     7.425323049599999e+00   4.042090726512239e+00  -7.060028999999979e-01  2.00469780e-01  -2.94175940e+00  -1.47041003e+00
C     8.664367476699999e+00   4.629790257550858e+00  -6.844859999999997e-01  2.17610056e+00   4.38314035e+00   1.08188428e+00
C     9.786656291400000e+00   3.923525370535971e+00  -2.465340000000005e-01  4.24192119e+00  -2.37484140e-01  -1.11415353e+00
C     1.110078851320000e+01   4.568225443621840e+00   2.532150000000000e-02 -2.75321665e+00   4.01810406e+00  -7.30326580e-01
C     3.873229504899999e+00   6.342405964538644e+00  -5.470229999999887e-02 -1.34332621e+00  -3.96388579e+00  -1.97023395e+00
C     5.028005047599999e+00   6.834253565917377e+00  -7.401581999999998e-01 -5.70722520e-01   3.54043606e+00   9.74438370e-01
C     6.272365641600000e+00   6.255110891890660e+00  -8.174963999999996e-01  1.44419053e+00  -5.23783525e+00   7.34153950e-01
C     7.588034149999999e+00   6.892351285421202e+00  -9.212759999999989e-01 -9.17846190e-01  -2.81217583e+00   9.49945100e-02
C     8.831447888200000e+00   6.119633854878543e+00  -8.017104000000010e-01 -1.99422618e+00   8.47608500e-02   1.28372372e+00
C     1.002327489520000e+01   6.903393933773938e+00  -4.690322999999985e-01 -1.21332177e+00  -4.83610463e+00   1.32531030e-01
C     1.117732207970000e+01   6.022366584231597e+00  -5.822339999999926e-02  1.31079400e-01   5.15374741e+00  -8.86571270e-01
C     1.241718385150000e+01   6.993043211611257e+00  -7.272419999999968e-02  1.63740160e-01  -4.41915131e+00  -2.47842870e-01
