32
Lattice="9.86 0 0 4.93 8.53901048131456 0 0 0 30 " PBC="1 1 1" Properties=species:S:1:pos:R:3:force:R:3 Energy="-249.85354454"
C     1.041327186290000e+01   1.288606103587203e+00   3.368735400000000e+00  2.57058322e+00  -3.65542480e+00   1.71468557e+00
C     1.887496989900000e+00   1.777671439181238e+00   3.804296700000000e+00 -2.32058438e+00   2.98723578e+00   2.95299550e-01
C     3.090544134600000e+00   1.040963442783264e+00   3.786507000000000e+00 -2.84935080e-01   3.30943730e+00   1.04973111e+00
C     4.251893832300000e+00   1.813702135462017e+00   4.116213600000000e+00  1.63577807e+00   4.83801240e-01  -8.79328200e-01
C     5.463025486799999e+00   1.102175168628934e+00   3.704015400000000e+00  7.98742000e-03   9.57798410e-01   2.79183168e+00
C     6.705350335900000e+00   1.829059716590506e+00   3.699555300000000e+00  6.26133430e-01  -8.55177530e-01  -3.80419550e-01
C     7.952950383600000e+00   1.044740417898778e+00   3.508415100000000e+00 -1.71015725e+00   1.98626703e+00   1.01639989e+00
C     9.109139751699999e+00   1.859314455402404e+00   3.539433300000000e+00  3.65818091e+00  -3.01380000e-01   1.84622038e+00
C     1.900626763100000e+00   3.150415914022177e+00   4.287545400000000e+00 -1.41603798e+00   2.43665161e+00  -8.29125120e-01
C     3.073720312399999e+00   4.062599551102893e+00   4.413702600000001e+00  6.60033650e-01  -3.77551359e+00  -4.93279800e-02
C     4.331254063599999e+00   3.266992278287337e+00   4.457152200000000e+00 -7.54880760e-01   3.40217340e-01  -4.01571358e+00
C     5.483048829700000e+00   3.984832647908913e+00   3.872358300000000e+00  4.37839180e-01  -5.94880840e-01   2.26568589e+00
C     6.739186059800000e+00   3.316934730442133e+00   3.813715800000000e+00 -5.09715310e-01  -4.20233613e+00  -5.93029350e-01
C     7.977896873800000e+00   3.930334719053142e+00   3.913414200000000e+00  6.63325130e-01  -1.23560050e-01   9.51393040e-01
C     9.253754350399999e+00   3.127098011153917e+00   4.178999100000000e+00 -4.06642823e+00   3.54661424e+00  -3.09013391e+00
C     1.044678974970000e+01   3.907135679210764e+00   4.275376499999999e+00  3.21957866e+00  -4.23020054e+00   3.62479170e-01
C     1.292089181150000e+01   5.447491536862575e+00   4.167839100000000e+00  1.87699846e+00   4.98428570e-01  -8.83197140e-01
C     4.435793974099999e+00   6.130232218516006e+00   3.809094900000000e+00 -6.31456289e+00   1.57526415e+00   2.53972050e-01
C     5.531338524799999e+00   5.395446694937499e+00   3.691193400000000e+00  3.15581468e+00  -1.69064311e+00  -1.35649548e+00
C     6.816170770599999e+00   6.036762758170144e+00   3.300430800000000e+00 -3.87503237e+00   2.88857484e+00   2.86986527e+00
C     7.901377259200000e+00   5.353473018142850e+00   3.769130400000000e+00  3.38539092e+00  -1.66028449e+00  -4.04512520e-01
C     9.125920880099999e+00   5.987534935802420e+00   3.902889600000000e+00  4.75390230e+00   1.10551454e+00   1.50797661e+00
C     1.057117443850000e+01   5.262288597001436e+00   4.242812700000000e+00 -7.17340798e+00   3.04373472e+00  -1.72429255e+00
C     1.163053066930000e+01   6.086875392803806e+00   3.992011200000000e+00  3.98420064e+00   3.64509940e-01   2.67142460e-01
C     4.361174233600000e+00   7.520192619336196e+00   3.464120100000000e+00  9.16823810e-01   1.02043960e+00   1.50473636e+00
C     5.603886383500000e+00   8.378907022153669e+00   3.383241300000000e+00 -2.54392697e+00  -3.05217031e+00  -9.61929970e-01
C     6.803289025700000e+00   7.550444369494426e+00   3.425658000000000e+00 -1.29459340e-01  -2.25565210e-01  -1.60070000e+00
C     8.030643140999999e+00   8.249649031864241e+00   3.516526500000000e+00  9.98306850e-01  -4.73192714e+00   1.39169145e+00
C     9.238026664400000e+00   7.390517498384821e+00   3.835571700000000e+00 -2.25660064e+00   2.31933220e+00  -1.36691497e+00
C     1.038863719520000e+01   8.207579718152214e+00   3.854085900000000e+00  3.33572359e+00  -8.70606440e-01  -2.14081955e+00
C     1.168228403450000e+01   7.496756707343104e+00   3.664512600000000e+00 -1.88656089e+00  -3.30625480e-01   2.28890680e+00
C     1.294940693150000e+01   8.150339400690687e+00   3.632935800000000e+00 -6.44310850e-01   1.43647416e+00  -2.10207740e+00
