32
Lattice="9.86 0 0 4.93 8.53901048131456 0 0 0 30 " PBC="1 1 1" Properties=species:S:1:pos:R:3:force:R:3 Energy="-255.53211211"
C     1.244739316600000e+00   8.265328362907617e-01   3.806859300000000e+00 -4.62289075e+00  -1.54671989e+00  -2.06969660e-01
C     2.362990066900000e+00   1.548730150619652e+00   3.804966300000000e+00  4.49164450e+00   4.77641190e-01  -7.41582690e-01
C     3.619711403400000e+00   8.691691402986592e-01   3.696225300000000e+00  1.12905556e+00  -3.58423393e+00   2.23949800e-01
C     4.921634973200000e+00   1.420282341644566e+00   3.737412600000000e+00 -3.72859710e-01   3.49142426e+00  -3.59271280e-01
C     6.176864097299999e+00   7.314197872077096e-01   3.766647000000000e+00 -4.50589840e-01   2.71202244e+00   1.44757070e-01
C     7.388632658499999e+00   1.533621737816969e+00   3.740440200000000e+00 -5.37900870e-01  -1.74410000e-04  -8.33232890e-01
C     8.615482385500000e+00   8.386205741361448e-01   3.612650100000000e+00  1.13658610e+00  -1.04322372e+00   1.58583751e+00
C     9.881242088199999e+00   1.551882326338344e+00   3.746340000000000e+00 -2.01739702e+00   5.85778100e-02  -7.67385060e-01
C     2.360496768700000e+00   2.944882785669625e+00   3.733471500000000e+00  3.06430268e+00   3.47370500e-01  -2.55784200e-02
C     3.661171125800000e+00   3.587806317625129e+00   3.684794400000000e+00  2.82208690e-01   1.82590223e+00   7.15586830e-01
C     4.932722395300000e+00   2.919969197912967e+00   3.700699200000000e+00 -1.68963526e+00  -2.39417556e+00  -1.82259000e-03
C     6.130216930300000e+00   3.639002381908494e+00   3.695251800000000e+00  1.93986740e-01  -6.54958100e-02   6.32659290e-01
C     7.363905651900000e+00   2.978241454791002e+00   3.705556200000000e+00  1.21744195e+00  -1.76834593e+00  -1.23431840e-01
C     8.636162108600001e+00   3.680391734215997e+00   3.676476900000000e+00 -1.94502555e+00  -2.09596460e+00   6.42564630e-01
C     9.827971268999999e+00   2.995058779761048e+00   3.714605400000000e+00  1.37934026e+00  -2.59914647e+00  -1.94576140e-01
C     1.105871885120000e+01   3.674163209191675e+00   3.697836900000000e+00 -1.16830958e+00   2.36894573e+00   7.94522470e-01
C     3.721884913899999e+00   5.051777396319253e+00   3.776071500000000e+00 -2.49167911e+00  -3.43659960e-01  -6.82066400e-02
C     4.913867561000000e+00   5.767557985832843e+00   3.772601100000000e+00  1.03014149e+00  -9.18157880e-01  -3.00123160e-01
C     6.151515466999999e+00   5.036477111951085e+00   3.778028100000000e+00 -1.30712146e+00   2.21665250e-01  -4.98213280e-01
C     7.370256132800000e+00   5.670960088217424e+00   3.748590900000000e+00  7.03996210e-01   4.29270530e+00   2.55951000e-01
C     8.637866163100000e+00   5.032057917857371e+00   3.786974700000000e+00 -1.41657535e+00   3.08195758e+00  -9.12286830e-01
C     9.793288965500000e+00   5.847187588772930e+00   3.777442500000000e+00  2.32577874e+00  -2.18422769e+00   2.73022480e-01
C     1.105095267150000e+01   5.118713845570925e+00   3.789197700000000e+00  1.01312357e+00   2.18674180e-01   6.74929300e-02
C     1.233751973500000e+01   5.841437504505802e+00   3.871679100000000e+00 -1.23392610e+00  -4.87759046e+00  -9.44239390e-01
C     4.885349088600000e+00   7.161234820184244e+00   3.690336000000000e+00 -1.63488000e-01   2.96355229e+00   8.61340230e-01
C     6.081801322999999e+00   7.951065793970499e+00   3.780602400000000e+00  2.61877248e+00  -2.62849487e+00  -7.54231690e-01
C     7.348567386599999e+00   7.175601534536635e+00   3.714174600000000e+00 -2.61225390e-01  -3.69923630e-01   1.62645600e-02
C     8.591228017999999e+00   7.896735656670661e+00   3.619793100000000e+00 -1.55484468e+00   2.40667841e+00   1.45827948e+00
C     9.830936811899999e+00   7.245384462931815e+00   3.775368600000000e+00 -4.07227840e-01  -3.56974840e-01  -1.94816950e-01
C     1.109937192700000e+01   7.896748123625962e+00   3.860969700000001e+00 -2.41282889e+00   6.58961500e-02  -7.86694090e-01
C     1.226030213100000e+01   7.187712925441048e+00   3.814949400000000e+00  4.05006910e+00   2.16041147e+00   9.02660900e-02
C     1.352726110550000e+01   7.919305883781292e+00   3.693193200000000e+00 -5.82922680e-01   8.30848800e-02  -4.98317400e-02
