32
Lattice="9.86 0 0 4.93 8.53901048131456 0 0 0 30 " PBC="1 1 1" Properties=species:S:1:pos:R:3:force:R:3 Energy="-252.504969"
C     1.206231382400000e+00   8.374506443102799e-01   3.736768800000000e+00  1.82470518e+00  -9.41777220e-01   2.81453100e-01
C     2.455969669700000e+00   1.584770752152588e+00   3.539194800000000e+00 -1.82583433e+00  -2.22372710e+00   9.58159900e-01
C     3.655930141400000e+00   8.742426787654560e-01   3.949461000000000e+00 -2.54209485e+00   1.08014377e+00  -4.84967050e-01
C     4.834292874700000e+00   1.589930876185652e+00   4.022563500000000e+00  2.36177820e+00  -1.62534390e+00  -6.56482200e-02
C     6.055172026599999e+00   8.366450740615967e-01   4.198013100000001e+00  3.28468916e+00   1.95780970e+00  -1.25660198e+00
C     7.329412315300000e+00   1.556312108805054e+00   4.016634600000000e+00  7.87430470e-01   1.24327229e+00   7.37622980e-01
C     8.670909192300000e+00   8.815273939960487e-01   3.953116200000000e+00 -5.30036536e+00  -1.80625510e-01   7.85011300e-02
C     9.859096528200000e+00   1.574830917003344e+00   3.751936200000000e+00  6.16519430e-01  -1.19894599e+00  -1.05060939e+00
C     2.389849101300000e+00   2.952972814978586e+00   3.235944000000000e+00  9.69777350e-01   2.49056408e+00   1.11509613e+00
C     3.658020165600000e+00   3.655846348591237e+00   3.459126000000000e+00 -4.73177270e-01   2.37183351e+00  -3.21020230e-01
C     4.874037696600000e+00   2.942934951989032e+00   3.759713100000000e+00 -5.42718000e-03   3.54031452e+00  -1.85411880e-01
C     6.107614605799999e+00   3.760455716619202e+00   3.891909000000000e+00 -1.10317200e-02  -3.92567174e+00   2.43041630e-01
C     7.344161051200000e+00   3.052268442174952e+00   4.033575300000000e+00 -3.11441800e-01  -3.53973490e+00  -6.85093250e-01
C     8.600526392399999e+00   3.645970470630488e+00   3.953188800000000e+00  4.56265490e-01   3.86181786e+00  -1.08518562e+00
C     9.830297292299999e+00   2.948840104686476e+00   3.477171300000000e+00 -1.63459482e+00   3.16882148e+00   2.23702425e+00
C     1.098190516210000e+01   3.752835759837164e+00   3.248246100000000e+00  1.97451127e+00  -4.04140060e-01   1.28685533e+00
C     3.664436905700000e+00   5.201639079605769e+00   3.536294700000000e+00  1.41096819e+00  -3.51214912e+00   1.57296770e-01
C     4.918583204600000e+00   5.835961607865189e+00   3.943958400000000e+00 -2.59313805e+00   5.96719220e-01  -1.06454582e+00
C     6.154497229600000e+00   5.107710220496083e+00   3.951886200000000e+00 -2.15402881e+00   2.69602282e+00   1.86028477e+00
C     7.313205482599999e+00   5.813018140606476e+00   4.385968200000000e+00  1.11507060e+00  -8.45435590e-01  -1.66847520e+00
C     8.532513985800000e+00   5.204475995057539e+00   4.142903400000000e+00  5.02540033e+00  -4.09085494e+00  -2.76666610e-01
C     9.894282184700000e+00   5.891689495790499e+00   4.072370100000001e+00 -3.08565705e+00   1.29576900e-02  -8.50523650e-01
C     1.107883862490000e+01   5.227168330018034e+00   3.568922700000000e+00 -3.24348599e+00  -3.09746703e+00  -3.58824510e-01
C     1.227934770700000e+01   5.895437865220904e+00   3.486765900000000e+00  2.10202078e+00   6.01005850e-01   2.06327232e+00
C     4.812550983100000e+00   7.269855217604980e+00   4.122756900000001e+00  3.38235419e+00  -5.50158040e-01  -1.76897046e+00
C     6.153476818200000e+00   7.928308647920461e+00   4.068598499999999e+00 -2.35854788e+00   1.35920640e+00   8.00359230e-01
C     7.341940924300000e+00   7.188535146760167e+00   4.388561699999999e+00 -1.04928450e-01   5.19193882e+00  -1.55597198e+00
C     8.544025092100000e+00   8.059754332694865e+00   4.269661200000001e+00  1.34352757e+00  -4.07426635e+00   1.21079040e-01
C     9.851558656800000e+00   7.340385480197370e+00   4.196648100000000e+00 -1.90927923e+00  -2.04320735e+00   3.98909130e-01
C     1.107427053620000e+01   7.972695961417386e+00   4.127190000000000e+00  1.23625550e-01   5.70387420e-01  -3.98868300e-02
C     1.231558093920000e+01   7.247616816441601e+00   3.934093200000000e+00 -3.12094494e+00   1.11442241e+00  -1.07094444e+00
C     1.346024288270000e+01   7.993858959600915e+00   3.920016300000000e+00  3.89533394e+00   3.96266970e-01   1.45039140e+00
