32
Lattice="9.86 0 0 4.93 8.53901048131456 0 0 0 30 " PBC="1 1 1" Properties=species:S:1:pos:R:3:force:R:3 Energy="-247.8532118"
C     4.912476265700000e+00   8.266021132827859e+00  -9.794903999999995e-01  3.99036501e+00   1.07553799e+00   5.91613990e-01
C     1.310859737100000e+00   5.163154527883351e-01  -1.131212700000003e+00 -8.94617920e-01  -1.59748765e+00   3.49342951e+00
C     7.505966609200000e+00   8.299932019756978e+00  -9.471441000000027e-01 -3.65898914e+00  -4.44245000e-03  -4.94583610e-01
C     3.721264424100000e+00   4.538502002042008e-01  -5.041256999999995e-01  2.54739475e+00  -1.91780197e+00  -2.49139492e+00
C     9.954609263600000e+00   8.328738200831049e+00  -6.670088999999990e-01 -3.72748090e-01  -1.63177778e+00   1.69980043e+00
C     6.221967582700000e+00   5.150071056025896e-01  -7.307312999999986e-01  5.10863290e-01   3.90822270e-01   4.81827600e-01
C     1.249196534530000e+01   8.283674683094210e+00  -5.077652999999991e-01 -4.51970659e+00   3.97382198e+00  -1.24887046e+00
C     8.718277667599999e+00   5.207426735519007e-01  -8.020470000000017e-01 -7.20327300e-01  -2.22404250e+00  -4.20574560e-01
C     1.188071628800000e+00   1.835001416252805e+00  -5.394009000000004e-01  4.54687046e+00   1.20473836e+00  -1.73958965e+00
C     2.529819590700000e+00   2.620428224603789e+00  -3.550442999999994e-01 -2.81823934e+00  -1.40906747e+00   2.51002107e+00
C     3.750759135100000e+00   1.806718932691473e+00  -3.258305999999997e-01 -1.05783799e+00   6.91588590e+00  -7.04949110e-01
C     4.940967130099999e+00   2.780655412711977e+00  -4.823049000000026e-01  2.25937165e+00  -8.87221677e+00  -2.00558325e+00
C     6.153717402200000e+00   2.015156093118168e+00  -9.202073999999989e-01  8.18942600e-01  -2.45055215e+00   2.24080487e+00
C     7.469060234800001e+00   2.574031254990395e+00  -9.320957999999990e-01 -1.78854746e+00   4.87281567e+00   1.84706380e-01
C     8.702902920300000e+00   1.945662637178260e+00  -9.063689999999980e-01 -2.09803261e+00  -1.90709255e+00   3.53278750e-01
C     9.851806340000000e+00   2.593575000616600e+00  -5.575454999999998e-01  3.20252177e+00   1.45357721e+00   2.30341870e-01
C     2.520970388599999e+00   4.090108485704842e+00   1.796721000000000e-01  7.31321210e-01  -3.84071220e+00  -1.73366455e+00
C     3.790152349400000e+00   4.621361485696155e+00   1.336314000000000e-01  2.07208441e+00   7.19462146e+00  -3.26854363e+00
C     5.051922153800000e+00   4.103713349542207e+00  -4.736615999999998e-01 -7.05350654e+00  -1.36689787e+00   3.67441058e+00
C     6.198707990599999e+00   4.716206836800660e+00  -6.466101000000002e-01  5.10007932e+00   3.62492937e+00  -1.79086586e+00
C     7.474451189799999e+00   4.105996510164349e+00  -8.243712000000016e-01  3.40837860e-01  -3.59186979e+00   2.99050620e-01
C     8.728540103500000e+00   4.790808841150332e+00  -6.650415000000010e-01  1.20577113e+00  -1.87511863e+00   1.16175290e-01
C     1.000391232020000e+01   3.986794997907322e+00  -3.603284999999978e-01 -1.96629519e+00   4.28388428e+00   1.08008207e+00
C     1.121855881820000e+01   4.882878245337893e+00   2.069577000000000e-01 -3.67735815e+00  -3.68466998e+00  -2.14863240e+00
C     3.737456811900000e+00   6.171408522512033e+00  -2.133974999999992e-01  1.48011540e-01  -4.23544820e-01   1.97407686e+00
C     4.985232860600000e+00   6.886775823918390e+00  -6.014624999999967e-01 -1.87130894e+00  -1.26746852e+00  -9.82622120e-01
C     6.204635723999999e+00   6.118651868673344e+00  -8.141919000000009e-01 -2.23054860e-01   2.26375052e+00   1.33358500e-01
C     7.399543290799999e+00   6.843950978559094e+00  -1.090242600000000e+00  3.75728993e+00   8.91329760e-01   1.95611095e+00
C     8.770049224499999e+00   6.190935702457907e+00  -8.115711000000019e-01 -3.13460423e+00  -1.29217552e+00   4.93385250e-01
C     9.952459438499998e+00   6.803061158364671e+00  -4.329101999999985e-01 -1.93066590e+00   5.89746028e+00  -1.09527113e+00
C     1.106371515970000e+01   6.312530357792059e+00   1.677315000000000e-01  2.97871112e+00  -2.88149092e+00  -1.56670463e+00
C     1.232332355350000e+01   6.974515949792591e+00  -1.062023999999973e-01  3.57540420e+00  -1.80474548e+00   1.79375280e-01
