32
Lattice="9.86 0 0 4.93 8.53901048131456 0 0 0 30 " PBC="1 1 1" Properties=species:S:1:pos:R:3:force:R:3 Energy="-253.91737875"
C     5.196430264500000e+00   7.956273138731518e+00   1.641990000000000e-01 -3.18849190e+00   2.22205472e+00   7.59028700e-02
C     1.414068892700000e+00   1.988244547689400e-01   1.411131000000000e-01  2.62574598e+00   5.83807370e-01   4.74227100e-02
C     7.610421822299999e+00   8.017180363463471e+00   2.597481000000000e-01 -2.77625569e+00   2.03449810e-01   8.68761330e-01
C     3.862403767200000e+00   1.858150161323456e-01   3.925200000000000e-01  4.12744560e-01   1.55141907e+00  -1.04210616e+00
C     9.989772242099999e+00   8.065120076100287e+00   3.346014000000000e-01  4.63592749e+00  -2.36189527e+00  -1.90331424e+00
C     6.419578498199999e+00   2.243841894486192e-01   1.226109000000000e-01 -1.88759844e+00  -3.77600320e+00   8.88470820e-01
C     1.255451994610000e+01   8.042136304712109e+00   2.172960000000000e-02  6.58729050e-01  -4.73973980e-01   1.03848601e+00
C     8.883124542599999e+00   2.085834336762176e-01   1.403283000000000e-01  6.27423090e-01  -5.94757100e-01  -9.24839770e-01
C     1.471197880600000e+00   1.668928933910639e+00  -7.953570000000099e-02  1.20473045e+00  -1.92536165e+00  -7.28518950e-01
C     2.751178759900000e+00   2.323155383258309e+00  -2.707887000000007e-01 -2.17850620e+00   1.15421650e+00   1.09544847e+00
C     3.910820113999999e+00   1.608203590101909e+00   1.325103000000000e-01 -4.58010130e-01  -2.31977760e-01  -1.04509442e+00
C     5.146853050600000e+00   2.228101765688198e+00   1.569450000000000e-02  2.41191405e+00   2.73836197e+00  -1.64038910e-01
C     6.481959562999999e+00   1.568737649905026e+00   1.111647000000000e-01 -4.55868104e+00   2.46548704e+00   4.95559870e-01
C     7.595502902800000e+00   2.327429926514493e+00   1.630989000000000e-01  5.46481477e+00   2.97559008e+00  -1.50895554e+00
C     8.964165016499999e+00   1.651487748834924e+00   6.171869999999999e-02 -4.47694683e+00  -8.44246610e-01   2.30068140e-01
C     1.012705169100000e+01   2.359243034738990e+00  -2.126657999999999e-01 -2.28634770e-01   1.49325726e+00   9.38544870e-01
C     2.714933547800000e+00   3.821822340114979e+00  -4.896048000000022e-01 -1.93288278e+00  -3.87446059e+00   7.51694360e-01
C     3.926261514900000e+00   4.409281924959111e+00  -3.794964000000007e-01  1.59031830e+00   3.27976968e+00   1.04960679e+00
C     5.178798366000000e+00   3.678172274612035e+00  -1.802382000000016e-01 -1.10084144e+00   3.51877850e-01   6.18378730e-01
C     6.351895760700000e+00   4.485642709297349e+00   4.259580000000000e-02  4.99726810e-01  -1.10586564e+00  -3.85255100e-02
C     7.631982782899999e+00   3.840611834945485e+00   6.366569999999999e-02 -6.88653210e-01  -3.11837280e+00   7.57324300e-02
C     8.890992033800000e+00   4.531891441688812e+00  -7.448639999999784e-02 -2.50939136e+00  -2.07362365e+00   1.44460580e-01
C     1.008827709310000e+01   3.810861239312327e+00  -2.897172000000019e-01  6.50548480e-01  -3.64622240e-01   1.64114750e-01
C     1.130436699650000e+01   4.537109374822824e+00  -3.991449000000031e-01  4.97434540e-01  -6.39481380e-01  -3.25815430e-01
C     3.825188232500000e+00   5.906265757460068e+00  -1.698363000000001e-01  4.69438867e+00  -3.26344848e+00   6.06782920e-01
C     5.096176989000000e+00   6.536542331773854e+00   1.730049000000000e-01 -3.18513252e+00   2.53519517e+00  -1.10255403e+00
C     6.252293935400000e+00   5.892956770335836e+00   2.312625000000000e-01  4.83242228e+00  -1.98965030e+00  -4.36510380e-01
C     7.539777683100000e+00   6.608754267090175e+00   3.135768000000000e-01 -1.14890820e-01  -8.62980080e-01  -1.15453305e+00
C     8.762816717300000e+00   5.904337136553055e+00   4.511910000000000e-02  2.11438853e+00   1.59208372e+00   7.88952570e-01
C     1.003531183530000e+01   6.602816239202383e+00   4.549590000000001e-02 -7.35401440e-01   2.34774906e+00   3.38530070e-01
C     1.128607654860000e+01   5.955779807459082e+00  -2.493978000000006e-01 -1.26590195e+00  -1.06146993e+00   7.48644050e-01
C     1.253022830780000e+01   6.585131350767570e+00  -9.153210000000200e-02 -1.63503653e+00   3.06787134e+00  -5.90755960e-01
