32
Lattice="9.86 0 0 4.93 8.53901048131456 0 0 0 30 " PBC="1 1 1" Properties=species:S:1:pos:R:3:force:R:3 Energy="-245.33374297"
C     4.871036707000000e+00   8.098723046311498e+00  -2.142239999999980e-01  8.41763259e+00   1.95682620e-01   1.89930620e-01
C     1.284722799800000e+00   4.113202068767792e-01  -8.653169999999832e-02  1.64133890e-01  -7.60435490e-01  -8.28442330e-01
C     7.414391415499999e+00   8.223341962987352e+00  -1.185890999999977e-01  5.22814000e-03   2.07308610e-01  -1.05940943e+00
C     3.697999211800000e+00   4.073610092776224e-01  -5.409278999999998e-01  2.16478808e+00  -5.51208504e+00   4.65529662e+00
C     9.962189187900000e+00   8.151790007791030e+00  -1.370627999999989e-01  9.21939220e-01   4.54067600e-01  -3.35489669e+00
C     6.262883575399999e+00   3.155929467699008e-01  -2.092728000000008e-01  1.29612435e+00   3.14577840e-01  -1.56489990e-01
C     1.249114006330000e+01   8.156827170073182e+00  -3.469979999999993e-01 -5.40599034e+00   3.60656600e-02   8.41844270e-01
C     8.726829393499999e+00   2.964244906542920e-01  -1.967451000000011e-01 -9.00609660e-01   4.02975638e+00   5.92403880e-01
C     1.459316531300000e+00   1.859559012662551e+00  -3.243335999999992e-01 -4.88764494e+00  -1.40580038e+00  -1.17919443e+00
C     2.612783799900000e+00   2.582822593230079e+00  -5.516250000000014e-01  2.44352840e-01   1.88721310e-01  -2.01019617e+00
C     3.828418122000000e+00   1.746541707965454e+00  -5.548268999999983e-01  1.61985870e-01   3.16300648e+00  -3.27300760e-01
C     5.119940032700000e+00   2.372438282243630e+00  -5.179670999999999e-01  4.36871860e-01   2.43902914e+00  -1.22349906e+00
C     6.408051073599999e+00   1.756800475156126e+00  -3.108882000000008e-01 -3.08853156e+00  -6.78476350e-01   1.92712787e+00
C     7.577961864200001e+00   2.517663197449400e+00   4.318950000000000e-02 -1.19446230e-01   1.13561690e-01  -3.64364316e+00
C     8.900974149900000e+00   1.807969726946583e+00  -7.516439999999847e-02 -8.69474178e+00  -2.98228794e+00   6.39902920e-01
C     9.881697472300001e+00   2.489014902679105e+00  -5.508023999999985e-01  8.88873901e+00   3.29717003e+00   1.05738064e+00
C     2.579693196200000e+00   4.056788242130624e+00  -1.107626100000001e+00 -5.79957090e-01  -6.51161959e+00   2.34063163e+00
C     3.887801746800000e+00   4.486446486353832e+00  -1.083142500000001e+00 -2.97975076e+00   6.74630714e+00  -2.01885830e-01
C     5.066148260399999e+00   3.855076320967872e+00  -7.574271000000010e-01 -5.41638619e+00  -5.51045051e+00  -2.63728330e-01
C     6.041146324500000e+00   4.554581044165952e+00  -3.192480000000018e-01  1.03187699e+01   3.15398976e+00   5.65684020e-01
C     7.370657730600000e+00   3.931773713099232e+00  -3.169299000000017e-01  2.94562361e+00  -1.12603169e+00   2.33939698e+00
C     8.602390228199999e+00   4.720020700441446e+00  -4.412939999999992e-01  2.43773811e+00  -9.93677180e-01  -6.69764480e-01
C     9.976763303199998e+00   3.925753198370203e+00  -6.056558999999986e-01 -3.32185927e+00   1.33718806e+00  -1.52826470e+00
C     1.114492350010000e+01   4.634510622544203e+00  -1.077809700000000e+00  3.75950040e-01   1.35267287e+00   5.51461340e-01
C     3.756783250000000e+00   6.113911180835058e+00  -9.088329000000002e-01  2.38016802e+00  -3.33175983e+00   1.33726278e+00
C     4.999227602300000e+00   6.700061393812186e+00  -4.839026999999980e-01 -1.60155230e-01   4.26492620e-01   2.51460150e-01
C     6.288658897199999e+00   5.927218866765997e+00  -2.809148999999991e-01 -3.77392956e+00   4.42349866e+00   2.62498690e-01
C     7.458139643900000e+00   6.777361640083435e+00  -2.144579999999863e-02  1.22608626e+00  -5.56350960e-01  -2.67675190e+00
C     8.729410297799999e+00   6.182933027226155e+00  -4.390596000000002e-01 -2.24549910e-01  -4.35392886e+00   1.88161244e+00
C     1.014067323170000e+01   6.639933780737056e+00  -4.355972999999977e-01 -1.06798798e+01   7.26843094e+00   1.73734166e+00
C     1.114241979960000e+01   6.133908518697960e+00  -1.048521900000001e+00  4.67117570e+00  -4.20979838e+00   1.06395045e+00
C     1.236639735790000e+01   6.792093994864578e+00  -6.389324999999992e-01  3.17612491e+00  -1.21482521e+00  -3.11171970e+00
