32
Lattice="9.86 0 0 4.93 8.53901048131456 0 0 0 30 " PBC="1 1 1" Properties=species:S:1:pos:R:3:force:R:3 Energy="-250.11485061"
C     5.022257949400000e+00   8.072907226707523e+00  -1.789032000000006e-01 -2.77818618e+00   2.49277568e+00  -5.26495270e-01
C     1.270387789500000e+00   2.898262264761864e-01  -1.433354999999992e-01  1.18312704e+00   2.42231164e+00  -1.12441488e+00
C     7.432080551299999e+00   8.179813332384294e+00  -1.704954000000001e-01  2.39718542e+00  -9.07797780e-01   5.61057800e-02
C     3.752792957300000e+00   3.347438125239208e-01  -2.605235999999991e-01  1.57969232e+00   1.93703947e+00  -4.53779900e-01
C     1.004733640110000e+01   8.178433940631354e+00  -2.253624000000016e-01 -4.63893747e+00   2.83139343e+00  -6.74715610e-01
C     6.329424130500000e+00   3.306111022318104e-01  -2.708829000000001e-01 -1.95600810e+00   3.30827540e-01   1.24121276e+00
C     1.239361154950000e+01   8.194324868354425e+00  -2.106543000000016e-01  5.10616898e+00  -3.46803233e+00  -1.92883252e+00
C     8.710092980200001e+00   3.865316302335488e-01  -1.267421999999989e-01  1.14785308e+00  -4.44330304e+00   1.81390100e-02
C     1.342912822300000e+00   1.766809134729839e+00  -4.241579999999985e-01  8.41600900e-01   1.31937836e+00   3.42259170e-01
C     2.598141354800000e+00   2.588433662406592e+00  -6.363914999999984e-01  7.34308280e-01  -4.85975716e+00   2.34381330e-01
C     3.844051595700000e+00   1.812350922443662e+00  -5.435519999999983e-01 -1.37091209e+00  -4.12676996e+00   1.62119471e+00
C     5.154670551600000e+00   2.335115377506912e+00  -4.476239999999976e-01 -2.38638059e+00   2.26523982e+00  -1.24007073e+00
C     6.420632088500000e+00   1.684598103531543e+00  -1.966202999999993e-01 -2.73454430e+00   3.39997082e+00  -1.57308660e-01
C     7.581731933800000e+00   2.495486362551582e+00  -9.851970000000065e-02 -1.91339818e+00  -2.48809556e+00  -4.20995120e-01
C     8.758630161299999e+00   1.738805962201308e+00  -5.519160000000056e-02  3.03485067e+00   4.07240030e+00  -1.54716618e+00
C     1.004215812630000e+01   2.543524871539652e+00  -4.112352000000001e-01 -3.78269091e+00  -1.28041190e+00   1.30457522e+00
C     2.617767832700000e+00   3.928347093583713e+00  -9.194940000000003e-01 -2.26933036e+00   1.92823062e+00  -1.24740307e+00
C     3.839686573700000e+00   4.696134099475219e+00  -1.074195300000000e+00 -1.08283110e+00  -7.93852371e+00   1.75771511e+00
C     4.956562987900000e+00   3.701658054426332e+00  -7.053110999999994e-01  4.90982158e+00   7.25172029e+00   8.71990940e-01
C     6.252673151000000e+00   4.570538832341082e+00  -3.828138000000010e-01 -3.41504412e+00  -4.76312400e-02  -1.22495670e-01
C     7.429592183100000e+00   3.859898727136452e+00  -2.598371999999998e-01  3.02755212e+00   2.40735274e+00  -8.23098130e-01
C     8.669226336800000e+00   4.628802379428427e+00  -5.417270999999992e-01 -2.12773482e+00   2.00794366e+00   2.44714533e+00
C     9.854391533399999e+00   3.996370473479384e+00  -5.990397000000023e-01  5.64455296e+00  -3.61228274e+00  -1.41894491e+00
C     1.118249394550000e+01   4.626886652427239e+00  -9.557274000000007e-01 -1.12322057e+00  -1.54734723e+00   1.44790661e+00
C     3.754825744200000e+00   6.024383583897079e+00  -8.915177999999990e-01  3.01140012e+00   3.83083220e+00   1.87271458e+00
C     4.977194742100000e+00   6.666856768439868e+00  -4.507406999999972e-01  3.89005570e-01   2.26012599e+00   7.76541390e-01
C     6.209346733400000e+00   6.074963558574311e+00  -1.778820000000003e-01  3.79948160e-01  -4.88116678e+00  -2.46710266e+00
C     7.463811214500000e+00   6.735352611785397e+00  -1.801853999999992e-01 -1.36873074e+00   1.89879217e+00   7.51199930e-01
C     8.666600914600000e+00   6.088064279232936e+00  -3.398781000000000e-01  2.29789875e+00  -7.37259520e-01  -9.52024230e-01
C     9.939380049899999e+00   6.867152750884826e+00  -3.962357999999995e-01  7.20074340e-01  -7.58123454e+00  -1.72106442e+00
C     1.120722987540000e+01   5.969199203988821e+00  -8.300057999999986e-01 -6.35791230e-01   7.08278528e+00   1.97525042e+00
C     1.245960398720000e+01   6.804923601940464e+00  -7.035795000000000e-01 -2.82129954e+00  -1.81950653e+00   1.07579660e-01
