32
Lattice="9.86 0 0 4.93 8.53901048131456 0 0 0 30 " PBC="1 1 1" Properties=species:S:1:pos:R:3:force:R:3 Energy="-252.15681639"
C     4.960125356600000e+00   8.231581168809399e+00  -3.306087000000026e-01  4.75455785e+00   6.96353380e-01   6.92240150e-01
C     1.368451159000000e+00   3.740614301087664e-01  -2.079443999999988e-01 -1.78985828e+00   7.79191190e-01  -7.08710550e-01
C     7.569883566200000e+00   8.221908348517864e+00  -2.168054999999995e-01 -1.64549426e+00   1.26302154e+00   1.97137570e-01
C     3.843823238100000e+00   4.457757118943128e-01  -2.347026000000021e-01 -1.28891574e+00  -6.45925230e-01  -2.74003653e+00
C     9.944455238400000e+00   8.256593125966786e+00  -5.295456000000023e-01  2.09812102e+00  -2.96801586e+00   6.96686480e-01
C     6.291275691899999e+00   3.815585959201016e-01  -4.088871000000012e-01 -3.63678267e+00   1.01625561e+00  -7.55292500e-02
C     1.243047754720000e+01   8.229084020584628e+00  -4.372857000000003e-01 -9.74319650e-01   1.84297100e-01  -1.29659781e+00
C     8.720356155599999e+00   4.037116069786800e-01  -3.271646999999973e-01 -1.52656528e+00   1.17791193e+00  -2.60728410e-01
C     1.286365377200000e+00   1.797776624746503e+00  -3.919212000000023e-01  5.07198810e-01   2.18611620e-01  -1.06619211e+00
C     2.512000943800000e+00   2.507098733683544e+00  -8.310455999999995e-01 -6.91565800e-01   2.09698000e-03   1.54948927e+00
C     3.710624892500000e+00   1.810524769662409e+00  -6.604230000000015e-01  3.05987351e+00   1.03069704e+00   1.39765450e+00
C     5.019603637399999e+00   2.542892045472979e+00  -6.097764000000012e-01 -2.27252714e+00   1.17511240e-01   5.16418600e-02
C     6.141501355199999e+00   1.819166162878064e+00  -3.006081000000016e-01  3.83499677e+00  -1.62182464e+00  -1.06941582e+00
C     7.424459412200000e+00   2.471503868497664e+00  -3.195282000000006e-01 -1.94819845e+00   3.80396227e+00   1.17110964e+00
C     8.646365483099999e+00   1.875614230947257e+00  -3.431259000000004e-01  6.96241120e-01  -4.39469445e+00   1.11365570e+00
C     9.860616447200000e+00   2.512263298002058e+00  -3.761691000000020e-01  3.68146663e+00   5.16732720e-01  -2.15405832e+00
C     2.593533776800000e+00   3.961416034079504e+00  -1.042862400000001e+00 -5.17855440e-01  -2.64612523e+00   1.22233760e-01
C     3.817594898599999e+00   4.626049231669466e+00  -9.238080000000011e-01  1.55169291e+00   3.78597935e+00   3.85195660e-01
C     5.104690556700000e+00   3.970213178846314e+00  -6.915864000000020e-01 -3.79852640e+00  -2.45561490e-01  -4.96169320e-01
C     6.250393124599999e+00   4.724964958289576e+00  -4.429083000000027e-01  1.19082728e+00  -3.54064060e+00   1.46528317e+00
C     7.438864428499999e+00   3.920689138205039e+00  -1.679946000000001e-01  1.54791991e+00   1.48422203e+00  -2.36298520e+00
C     8.700714986300000e+00   4.686267955986417e+00  -3.656097000000003e-01  1.14622955e+00  -4.73293535e+00  -9.49912930e-01
C     9.962373224800000e+00   3.852982043257547e+00  -8.046375000000019e-01 -1.49374452e+00   3.46309159e+00   2.36425396e+00
C     1.121208720720000e+01   4.588900095796016e+00  -1.092696900000000e+00 -1.98805142e+00   1.86747171e+00   1.98207343e+00
C     3.792430896800000e+00   6.185732456421918e+00  -8.003940000000007e-01 -8.28762010e-01  -2.97357065e+00  -3.91979600e-01
C     5.043961633499999e+00   6.843414643310846e+00  -4.752767999999996e-01 -2.11805661e+00  -1.69472886e+00  -2.40700900e-01
C     6.239537856199999e+00   6.068521558287989e+00  -2.890668000000005e-01  2.26090012e+00   4.75802867e+00  -1.00357898e+00
C     7.579324664100000e+00   6.849493052530929e+00  -2.790195000000004e-01 -2.08908620e+00  -3.51198875e+00   1.18305478e+00
C     8.799170389400000e+00   6.053811917274722e+00  -3.230952000000009e-01 -3.12020308e+00   7.91979930e-01  -1.32186544e+00
C     9.952002871199999e+00   6.667750375886600e+00  -7.245801000000007e-01 -1.38963010e-01   6.08232675e+00   2.04820185e+00
C     1.116383808600000e+01   6.072435499131601e+00  -8.641851000000003e-01  9.93214830e-01  -2.12393698e+00  -1.99932500e+00
C     1.232010815820000e+01   6.882994920858056e+00  -8.698470000000000e-01  4.54423566e+00  -1.93979456e+00   1.71787438e+00
