32
Lattice="9.86 0 0 4.93 8.53901048131456 0 0 0 30 " PBC="1 1 1" Properties=species:S:1:pos:R:3:force:R:3 Energy="-252.97520982"
C     8.823203745000000e-01   1.195887990773476e+00   3.447978600000000e+00  2.30394458e+00  -2.21964661e+00  -7.82696900e-02
C     2.116927801600000e+00   1.819492865419029e+00   3.695292000000000e+00  2.94430548e+00   2.88355780e-01  -4.03411580e-01
C     3.443067235600000e+00   1.103085939486731e+00   3.495224700000000e+00 -2.89954523e+00   4.70222157e+00   1.92273605e+00
C     4.598377190300000e+00   1.998116070754804e+00   3.725944200000000e+00 -1.04465599e+00  -3.77333539e+00  -1.70770075e+00
C     5.780779319099999e+00   1.335559218953159e+00   3.412272000000000e+00  3.93209211e+00  -4.32533654e+00   1.53788807e+00
C     7.097693392000000e+00   1.889084434589352e+00   3.475953600000000e+00 -7.58626250e-01   1.88742518e+00  -5.49136450e-01
C     8.345116995000000e+00   1.195334065163639e+00   3.331079400000000e+00 -1.48281723e+00  -1.00495833e+00   1.32236487e+00
C     9.557341285400000e+00   1.892569375546449e+00   3.518764200000000e+00 -3.01037910e-01   1.09051218e+00   8.86838300e-02
C     2.211817680800000e+00   3.216685551945465e+00   3.999221100000000e+00 -1.53257230e+00   3.71373465e+00  -5.47098390e-01
C     3.363849086900000e+00   4.128671767103884e+00   4.071027000000001e+00  1.06657799e+00  -3.74074094e+00  -1.11476240e+00
C     4.587080588299999e+00   3.355639759415143e+00   3.870152400000000e+00  1.33444481e+00   4.21765867e+00  -9.66635970e-01
C     5.865554711700000e+00   4.061543190116412e+00   3.513864000000000e+00 -9.31882800e-01  -3.26021200e-02   1.91791837e+00
C     7.088058545099999e+00   3.324640248109180e+00   3.573491400000000e+00  1.59512553e+00   6.10506290e-01  -8.27028490e-01
C     8.390739264300000e+00   4.031422172208631e+00   3.606278700000000e+00 -2.02109060e+00   3.16225640e-01   4.23822050e-01
C     9.631561991700000e+00   3.319535286083817e+00   3.747221400000000e+00 -9.22787170e-01   5.91381890e-01  -9.54407650e-01
C     1.087341932890000e+01   4.039032821469245e+00   3.870762900000000e+00 -1.33063952e+00  -3.47141540e-01   3.46176650e-01
C     3.308133184900000e+00   5.528445796498425e+00   3.889917000000000e+00  6.40810545e+00  -2.06868687e+00  -3.84573250e-01
C     4.700078160299999e+00   6.196055351581295e+00   3.507897600000000e+00 -5.69884605e+00   2.15305810e-01   5.41209190e-01
C     5.866211831399999e+00   5.539872956493075e+00   3.396415500000000e+00  4.81501910e-01  -5.21085800e+00   4.88711280e-01
C     7.061282778399999e+00   6.188924509319552e+00   3.271695300000000e+00  2.88308754e+00  -1.53466950e-01   7.97519460e-01
C     8.317495881199999e+00   5.463299038453256e+00   3.558386400000000e+00  6.96074980e-01  -2.12668100e-01  -1.45197441e+00
C     9.586038716799999e+00   6.133689749249462e+00   3.544431600000000e+00 -1.19003582e+00   3.55960503e+00   7.40108550e-01
C     1.081689032200000e+01   5.559913843309426e+00   3.800487600000000e+00 -1.02926490e+00  -5.69031185e+00   5.50269340e-01
C     1.202093914410000e+01   6.183301827088786e+00   3.868863300000000e+00 -9.37439460e-01   5.44760458e+00  -2.18216824e+00
C     4.661098079999999e+00   7.559658559533080e+00   3.266302200000000e+00 -1.07131225e+00   1.07399890e+00   1.22234703e+00
C     5.892161083600000e+00   8.267832171560562e+00   3.232012500000000e+00 -3.73633276e+00   3.27384557e+00  -2.95987600e-02
C     7.037414627100000e+00   7.591925516164589e+00   3.205680300000000e+00  5.19585396e+00  -5.10423290e-01   1.83811330e-01
C     8.349815580800000e+00   8.295767544345882e+00   3.303263700000000e+00  1.11701490e-01  -1.47158820e+00   5.64804300e-01
C     9.601544158399999e+00   7.632493757224336e+00   3.499673700000000e+00 -2.81320400e-02  -2.25157022e+00  -8.67646050e-01
C     1.084677401000000e+01   8.352388185816874e+00   3.516170700000000e+00 -2.66264463e+00   1.58062636e+00  -1.14493793e+00
C     1.207655896040000e+01   7.639075284941901e+00   3.473894100000000e+00 -3.11034241e+00  -2.26550375e+00   2.09844817e+00
C     1.325156776540000e+01   8.269819882420096e+00   3.404264700000000e+00  3.73718949e+00   2.70983061e+00  -1.53746854e+00
