32
Lattice="9.86 0 0 4.93 8.53901048131456 0 0 0 30 " PBC="1 1 1" Properties=species:S:1:pos:R:3:force:R:3 Energy="-246.18545148"
C     1.261860516400000e+00   8.247099283334912e-01   4.143579600000000e+00 -7.12532955e+00   5.10264982e+00   6.34563850e-01
C     2.310791867800000e+00   1.660549261366195e+00   4.315358400000000e+00  5.93486170e+00   6.94675920e-01  -1.91819147e+00
C     3.536198090800000e+00   9.054209969508704e-01   3.803718000000000e+00  2.85998032e+00   9.94834270e-01   1.74298300e+00
C     4.931383259400000e+00   1.518003289918315e+00   4.036124099999999e+00 -2.64789905e+00   2.59468088e+00  -1.06501285e+00
C     6.218599948999999e+00   8.988953143618448e-01   3.767278200000000e+00 -5.19811864e+00   2.63002571e+00  -2.30487020e-01
C     7.359589535500000e+00   1.719511043340491e+00   3.849950100000000e+00 -8.05772910e-01  -6.07870030e-01  -1.16136952e+00
C     8.550524705499999e+00   9.889267983082488e-01   3.973971000000000e+00  2.12550139e+00  -3.40801585e+00  -1.18944029e+00
C     9.753270873700000e+00   1.521993484125514e+00   4.156611000000000e+00  4.28971977e+00   5.51976121e+00   2.33436144e+00
C     2.434641602300000e+00   3.172489768453606e+00   4.552371000000000e+00  7.45833700e-02  -3.99583267e+00   1.80055820e-01
C     3.740197300300000e+00   3.786646996513982e+00   4.533977100000000e+00 -2.54727468e+00  -1.51179465e+00  -2.40856660e-01
C     4.871902119200000e+00   3.001093981588103e+00   4.205809800000000e+00  1.29772453e+00  -8.55451730e-01  -9.92934840e-01
C     6.016170402200000e+00   3.751321366328536e+00   3.738306000000000e+00 -1.40226900e+00   1.89412996e+00   7.76994940e-01
C     7.225455180099999e+00   3.122847377127077e+00   3.599210700000000e+00  5.67140356e+00  -1.56663828e+00   2.86142487e+00
C     8.608193725600000e+00   3.831481668769955e+00   3.942199200000000e+00 -9.79032820e-01  -1.63035930e+00   6.40796480e-01
C     9.817161948199999e+00   3.238802101429294e+00   4.443987600000000e+00 -1.14216833e+00  -5.56923958e+00  -2.48954088e+00
C     1.108661860860000e+01   3.853693172050321e+00   4.580153700000000e+00 -2.02595841e+00   4.05186159e+00  -8.76408560e-01
C     3.721324668699999e+00   5.187037030124549e+00   4.489761900000000e+00 -4.08507760e+00   8.08612250e-01  -1.87463603e+00
C     4.777090183299999e+00   5.797972660311030e+00   3.932094900000000e+00  2.63389544e+00   2.37244047e+00   1.71984300e-01
C     5.923396626900000e+00   5.205223585425063e+00   3.629678400000000e+00  7.60279691e+00  -3.59574098e+00  -9.08993990e-01
C     7.383432888900000e+00   5.950101109319568e+00   3.404357700000000e+00 -3.90191192e+00  -2.42939473e+00   2.21130610e+00
C     8.657583895300000e+00   5.190816054602578e+00   3.899287800000000e+00 -4.67859136e+00   4.40140055e+00  -2.88039667e+00
C     9.736016366699999e+00   6.064455025327098e+00   3.981102900000000e+00  4.32762278e+00  -2.72294248e+00  -7.27606900e-02
C     1.106949997240000e+01   5.402445951047746e+00   4.319834100000000e+00 -8.64068370e-01  -2.31049336e+00   2.14613980e-01
C     1.234568485030000e+01   6.001039893217169e+00   4.191627899999999e+00 -2.13198663e+00   5.59597370e-01   7.15949020e-01
C     4.898108372300000e+00   7.160583037514306e+00   3.866859300000000e+00 -1.00382599e+00   7.39549388e+00  -2.16937580e-01
C     6.082093721300000e+00   8.096856504010674e+00   3.785371500000000e+00 -4.72315900e-02  -7.56024157e+00  -1.29539248e+00
C     7.212559828400000e+00   7.362020258709917e+00   3.416911200000000e+00  4.19553818e+00  -1.03884636e+00   1.63020720e-01
C     8.488992882500000e+00   8.043732074990611e+00   3.374814900000000e+00 -1.54722465e+00   2.57682328e+00   1.58622446e+00
C     9.724667654599999e+00   7.367856843153207e+00   3.477480600000000e+00  8.20937110e-01   9.81570630e-01   8.51413870e-01
C     1.095813373740000e+01   8.097589407280173e+00   3.513088500000000e+00  3.83646096e+00  -2.30421681e+00   1.43830262e+00
C     1.225483924730000e+01   7.465082784989430e+00   3.812639700000001e+00  1.88580715e+00  -4.85717436e+00  -4.91144900e-02
C     1.362558344790000e+01   7.970737710144009e+00   3.813120300000000e+00 -5.42309166e+00   3.38569494e+00   9.38478530e-01
