32
Lattice="9.86 0 0 4.93 8.53901048131456 0 0 0 30 " PBC="1 1 1" Properties=species:S:1:pos:R:3:force:R:3 Energy="-253.5953289"
C     9.807470850000000e-01   1.182047364856758e+00   3.481538700000000e+00 -1.47291361e+00   1.78520429e+00  -2.82559780e-01
C     2.209279568900000e+00   1.859342121796359e+00   3.676570200000000e+00 -3.67498662e+00   3.41860916e+00   1.12473479e+00
C     3.348044098500000e+00   1.234219950378615e+00   3.508425600000000e+00  5.20081266e+00  -4.60637562e+00  -6.62332300e-02
C     4.530663295199999e+00   1.955915341671491e+00   3.546585000000000e+00  3.72435534e+00   1.01846099e+00   5.98491500e-02
C     5.816159759900000e+00   1.187476040769418e+00   3.374767500000000e+00 -7.69222660e-01   3.14603595e+00   1.36577554e+00
C     7.073499614200000e+00   1.863311310037778e+00   3.451859100000000e+00  1.54212463e+00   1.16234050e-01  -4.37895240e-01
C     8.354817953200000e+00   1.174185156347403e+00   3.352010100000000e+00 -7.20519800e-02   2.60381805e+00   1.27114855e+00
C     9.629089399500000e+00   1.955376786280518e+00   3.586838400000000e+00 -2.35237610e+00  -2.36409839e+00  -1.18704652e+00
C     2.219876012300000e+00   3.289903041135911e+00   4.007799900000000e+00 -1.35947740e+00   7.70773240e-01  -1.18110426e+00
C     3.419702092200000e+00   4.089777001318008e+00   4.043476800000000e+00  4.75141490e-01   1.01491324e+00  -2.08165999e+00
C     4.635908442200000e+00   3.447399880643119e+00   3.764257199999999e+00  5.13499000e-03  -4.59923963e+00  -6.86663440e-01
C     5.917090269499999e+00   4.021138812667776e+00   3.528832800000000e+00 -9.64024660e-01   8.70734510e-01   6.58632880e-01
C     7.142271290099999e+00   3.266326662420421e+00   3.536826900000000e+00 -1.73169426e+00   1.24281442e+00  -2.88552400e-01
C     8.302470917400001e+00   4.046941226025297e+00   3.611822700000000e+00  2.18566510e+00   1.43144360e-01  -6.36657170e-01
C     9.566803828799999e+00   3.356028540562298e+00   3.713347800000000e+00 -1.82511650e-01  -7.77440970e-01  -2.13253400e-02
C     1.080726484210000e+01   4.019170570752137e+00   3.859831500000000e+00  9.24155720e-01  -1.26391906e+00   6.23602800e-01
C     3.475912473200000e+00   5.539997284485664e+00   3.749891400000000e+00 -4.62843248e+00  -3.72741800e-01   1.40776364e+00
C     4.624948263399999e+00   6.241422858091220e+00   3.499743300000000e+00  2.96670766e+00  -1.46947866e+00  -5.80107430e-01
C     5.904342226199999e+00   5.420024358021873e+00   3.419815800000000e+00 -5.61642660e-01   3.30322874e+00   1.14739200e-02
C     7.124693375100000e+00   6.206213358448303e+00   3.292004100000000e+00 -5.42213120e-01  -1.73147855e+00   2.10945270e-01
C     8.339838394699999e+00   5.488151913845400e+00   3.425993400000000e+00 -8.54168480e-01  -7.09215340e-01   2.97156940e-01
C     9.567331486699999e+00   6.185825958586674e+00   3.462403200000000e+00  1.77455281e+00  -4.56742090e+00   1.37416862e+00
C     1.076060012430000e+01   5.381848747698623e+00   3.797331600000000e+00  1.43474400e+00   5.00324599e+00  -1.24061796e+00
C     1.198242726590000e+01   6.253230516392860e+00   3.748225500000000e+00  1.52830437e+00  -4.62223588e+00   5.79281520e-01
C     4.632234951300000e+00   7.674060208609195e+00   3.298469700000000e+00  8.20946840e-01  -2.30633829e+00  -5.18562460e-01
C     5.840473533900000e+00   8.373331902211277e+00   3.125763600000000e+00  3.27388159e+00  -1.37192603e+00   1.91814482e+00
C     7.177713158700000e+00   7.613741150919104e+00   3.235710900000000e+00 -2.58173045e+00   2.66580430e-01  -2.13819050e-01
C     8.413093905600000e+00   8.236269768683757e+00   3.415673400000000e+00 -1.00951642e+00   2.90301785e+00  -1.10431748e+00
C     9.678682389400000e+00   7.527892928206851e+00   3.413562000000000e+00 -3.39832969e+00   4.30153051e+00   5.90054190e-01
C     1.080026182640000e+01   8.375413627576195e+00   3.534637500000000e+00  4.42471120e-01  -3.53957472e+00  -6.29947250e-01
C     1.199292343310000e+01   7.602676130358909e+00   3.628987800000000e+00  2.06666280e+00   3.30741325e+00  -1.62723467e+00
C     1.328458880680000e+01   8.329619255932375e+00   3.335356200000000e+00 -2.21036887e+00  -9.14275170e-01   1.29157104e+00
