32
Lattice="9.86 0 0 4.93 8.53901048131456 0 0 0 30 " PBC="1 1 1" Properties=species:S:1:pos:R:3:force:R:3 Energy="-252.63716044"
C     4.957880678300000e+00   8.033468013613442e+00   2.360256000000000e-01  5.28304013e+00   1.07892013e+00  -5.93185560e-01
C     1.415789857100000e+00   1.712164676454232e-01   2.073477000000000e-01 -4.02397877e+00   1.47470525e+00   4.43421210e-01
C     7.516976827500001e+00   8.011866708021977e+00   3.080856000000000e-01  2.25750697e+00  -9.56746380e-01  -6.78456840e-01
C     3.895187971400000e+00   2.360165418651040e-01   2.769051000000000e-01 -1.64962712e+00  -2.60196069e+00  -2.33115480e+00
C     1.004744254400000e+01   8.076653973725938e+00   1.260300000000000e-03 -1.85762128e+00  -2.62414382e+00   2.07345549e+00
C     6.328684827699999e+00   1.353060006322024e-01   1.115799000000000e-01  1.36932095e+00   4.29812749e+00   8.31084260e-01
C     1.251821769390000e+01   7.940635990399914e+00   2.366217000000000e-01 -3.07080766e+00   4.34313673e+00  -1.55375538e+00
C     8.716703814399999e+00   2.299837309609840e-01   3.034554000000000e-01  1.50107224e+00  -9.39413050e-01  -1.07576230e-01
C     1.379448362100000e+00   1.597324122239446e+00   2.796990000000000e-02  9.80414800e-02   9.83491930e-01   9.55666840e-01
C     2.638330320400000e+00   2.279369984610119e+00  -1.408379999999987e-01 -1.19326289e+00   2.46856993e+00  -4.33527920e-01
C     3.874464815000000e+00   1.570986142144619e+00  -6.480690000000067e-02 -1.73785340e-01   3.32320597e+00   9.51234100e-01
C     5.093594457800000e+00   2.414374985122901e+00  -2.494920000000178e-02 -6.23017690e-01  -4.08268534e+00   3.15537640e-01
C     6.280516755700000e+00   1.683507501113038e+00   1.866510000000000e-01  3.09495505e+00  -1.83221237e+00  -2.61248100e-01
C     7.621570425700000e+00   2.384454548571295e+00   2.651451000000000e-01 -4.73868222e+00  -2.69481749e+00   1.62553480e-01
C     8.784673823000000e+00   1.649985822281597e+00   2.848218000000000e-01  2.14812170e-01   2.13889780e-01   3.03236830e-01
C     9.978532630900000e+00   2.394149570290077e+00   1.635195000000000e-01  3.49490383e+00  -2.97599113e+00  -1.97716187e+00
C     2.612013339500000e+00   3.792651799463727e+00  -3.423149999999993e-01  5.96659240e-01  -1.39351630e-01  -2.13317900e-02
C     3.903088493599999e+00   4.538458453088560e+00  -4.123929000000004e-01 -2.25451320e+00  -4.31090770e-01   1.23088101e+00
C     5.077739528500000e+00   3.789094106137340e+00  -7.908510000000035e-02  4.72636910e-01   1.61905590e+00  -8.79972900e-01
C     6.312392607400000e+00   4.453198824368695e+00   9.031230000000000e-02  7.86360330e-01   1.13302228e+00   4.50625280e-01
C     7.595199066900000e+00   3.744238171745271e+00   2.602056000000000e-01 -1.98025143e+00   1.75617844e+00  -1.40390708e+00
C     8.808963785100000e+00   4.372393058125091e+00   1.253730000000000e-02 -1.84248750e-01   5.90842649e+00   1.41653779e+00
C     1.002601267210000e+01   3.765784486109246e+00  -1.735146000000007e-01 -7.66675370e-01  -6.02739880e-01   1.36679656e+00
C     1.117108099550000e+01   4.569749742382625e+00  -3.051797999999977e-01  4.52357399e+00  -3.99456538e+00   3.18221200e-02
C     3.904763066700000e+00   6.018839631342938e+00  -3.424751999999991e-01 -1.92964103e+00  -4.31883245e+00  -1.28345400e-02
C     5.060038018399999e+00   6.666581385351888e+00  -4.641030000000157e-02  1.08290004e+00  -2.58174500e-02   9.02292670e-01
C     6.297577415099999e+00   5.911300528819286e+00   1.155813000000000e-01 -3.53840712e+00  -2.95430954e+00  -9.80414460e-01
C     7.438416488700000e+00   6.534058931355956e+00   2.169042000000000e-01  8.25408182e+00   3.94324124e+00   1.18638196e+00
C     8.850515353399999e+00   5.879795251922592e+00   1.946895000000000e-01 -3.24828531e+00  -1.36503418e+00  -1.45929644e+00
C     1.004125795760000e+01   6.626533084640269e+00   3.548760000000000e-02 -9.72630400e-02   4.86283200e-02   3.22011900e-02
C     1.130491171220000e+01   5.922123980773001e+00  -1.316943000000030e-01 -2.87975418e+00   1.35517272e+00  -8.76270230e-01
C     1.250443193490000e+01   6.646195607902250e+00  -2.080382999999983e-01  1.17995726e+00  -1.40806105e+00   9.16365730e-01
