32
Lattice="9.86 0 0 4.93 8.53901048131456 0 0 0 30 " PBC="1 1 1" Properties=species:S:1:pos:R:3:force:R:3 Energy="-252.52085589"
C     4.938773378700001e+00   8.445225588607007e+00  -6.253346999999998e-01 -6.96222230e-01   3.03145920e-01   1.85592295e+00
C     1.272762028200000e+00   6.440365919715727e-01  -5.595651000000004e-01 -1.46565828e+00   2.24372133e+00  -5.17551640e-01
C     7.404866113200000e+00   8.535218476226042e+00  -7.008630000000018e-01  2.05692419e+00  -2.70019079e+00   1.91472655e+00
C     3.712263969600000e+00   6.550703597534095e-01  -3.652686000000003e-01 -1.96376163e+00   2.19481058e+00  -3.01202480e-01
C     9.822394009300000e+00   8.447194172083067e+00  -2.028701999999996e-01  1.14115146e+00   6.66482980e-01   3.24503800e-01
C     6.126286980800000e+00   5.640738822326608e-01  -2.609084999999993e-01  1.72256516e+00   3.46869448e+00  -9.59198200e-02
C     1.232778988700000e+01   8.469272893750469e+00  -1.683009000000020e-01  3.07612300e-02  -1.50210205e+00  -1.69909000e-02
C     8.626327843199999e+00   6.135776000289936e-01  -5.334953999999996e-01  3.97665360e-01   1.23802831e+00   2.27896710e-01
C     1.319327751600000e+00   2.107515738271944e+00  -2.501166000000019e-01 -2.27698711e+00  -3.41988010e-01   1.15214681e+00
C     2.480909553700000e+00   2.856007739912527e+00   2.281389000000000e-01  5.74779170e-01  -4.37420319e+00  -2.84950037e+00
C     3.673252682400000e+00   2.130318653418155e+00  -1.202225999999982e-01  3.11514883e+00  -1.74618945e+00   6.60710040e-01
C     5.001570091800000e+00   2.785923726007823e+00  -1.332255000000018e-01 -3.48939009e+00   4.10469440e-01   4.98327610e-01
C     6.170482853199999e+00   2.051240755945181e+00  -3.971634000000002e-01  1.59263014e+00  -1.66702710e-01  -4.18034990e-01
C     7.452669513100000e+00   2.799360115168417e+00  -6.143190000000018e-01 -1.27612957e+00   3.16386440e-01   8.32229100e-01
C     8.690216847100000e+00   2.106550573917390e+00  -6.531251999999981e-01 -2.39027750e-01  -1.28312486e+00   1.85244825e+00
C     9.915508546200000e+00   2.790133287394253e+00  -2.251377000000012e-01 -6.42993540e-01   8.57004130e-01  -9.92567020e-01
C     2.498687183000000e+00   4.173841168570673e+00   5.245245000000001e-01 -1.49184575e+00   4.52583875e+00   3.65023460e-01
C     3.768068217200000e+00   4.983205982730976e+00   4.276476000000000e-01 -1.46693498e+00  -2.69595607e+00  -6.84491080e-01
C     4.889667127699999e+00   4.232139127870254e+00   2.346390000000000e-02  3.51463375e+00  -1.12391760e-01  -2.04695401e+00
C     6.098347191799999e+00   4.919696409165137e+00  -5.297441999999997e-01  9.80802280e-01   8.49263000e-02   1.88184676e+00
C     7.415686181400000e+00   4.271007251943432e+00  -5.722319999999996e-01 -5.93733110e-01  -1.05382291e+00   7.46695180e-01
C     8.611046667299998e+00   5.035489746169282e+00  -2.418953999999971e-01  1.01921100e+00  -3.29444256e+00  -5.24122910e-01
C     9.846399707600000e+00   4.251532501521906e+00   7.662600000000000e-02 -1.16434115e+00  -1.05178409e+00  -6.96884690e-01
C     1.101652110780000e+01   4.899021756990961e+00   5.068476000000001e-01  3.05937948e+00   1.22213051e+00  -6.81085380e-01
C     3.764486375000000e+00   6.379785397524739e+00   2.457231000000000e-01 -1.08202582e+00   1.02497510e-01  -7.10003310e-01
C     4.900918176500000e+00   7.015093327593552e+00  -3.225636000000023e-01  1.86646627e+00   1.69355334e+00  -8.74121140e-01
C     6.156407407400000e+00   6.334091786204582e+00  -6.056529000000026e-01  2.47777000e-01   1.14449670e-01   9.50378340e-01
C     7.458956890000000e+00   7.066188631553251e+00  -6.644253000000013e-01 -1.65456645e+00   1.37546095e+00  -1.80522000e-02
C     8.706851307999999e+00   6.437536091642657e+00  -3.215754000000004e-01 -4.03814383e+00  -2.75260310e+00  -2.36761260e-01
C     9.848933727599999e+00   7.056001762830820e+00   2.245440000000000e-02  3.26987586e+00   1.43752067e+00   4.15434630e-01
C     1.111558674630000e+01   6.385679961849188e+00   4.252071000000000e-01 -2.85196271e+00  -1.88885340e+00  -8.36557780e-01
C     1.233174044390000e+01   7.039239258308057e+00   2.850321000000000e-01  1.80395282e+00   2.70923365e+00  -1.17748922e+00
