32
Lattice="9.86 0 0 4.93 8.53901048131456 0 0 0 30 " PBC="1 1 1" Properties=species:S:1:pos:R:3:force:R:3 Energy="-254.16923596"
C     1.182197731000000e+00   1.038338721741922e+00   3.848100000000000e+00 -2.56134318e+00  -5.02427667e+00   1.65206860e-01
C     2.357352661200000e+00   1.671005621259374e+00   3.816205500000000e+00  8.64496710e-01   4.28596621e+00   1.02674300e-02
C     3.544375974800000e+00   1.003498363522054e+00   3.995516100000000e+00  2.99221085e+00   5.99026900e-01  -1.10091090e-01
C     4.851464311200000e+00   1.697816747924898e+00   4.024484100000000e+00 -8.20733060e-01  -9.37870750e-01  -1.99931380e-01
C     6.089380852900000e+00   9.999629570130200e-01   4.103931900000000e+00  1.34252290e-01   7.35701300e-02  -1.27173925e+00
C     7.298265314799999e+00   1.718334965427080e+00   3.968137800000000e+00  5.97556940e-01   2.88116552e+00   1.15672133e+00
C     8.575261374899998e+00   1.099664614157710e+00   3.958098900000000e+00 -1.50296689e+00  -3.10749533e+00  -3.16664510e-01
C     9.842619334299998e+00   1.734417764715636e+00   3.952390200000000e+00 -6.91502290e-01   1.87325710e-01  -1.94966851e+00
C     2.327869585000000e+00   3.145453297301515e+00   3.744128400000000e+00  8.13358860e-01  -5.05782120e-01  -2.89570060e-01
C     3.566327637900000e+00   3.789958595558335e+00   3.877070400000000e+00  1.68100396e+00   1.32605454e+00  -7.14709860e-01
C     4.877439988200000e+00   3.068798771002765e+00   3.883059600000000e+00 -2.02523350e+00   2.63136933e+00   1.26094340e-01
C     6.078926935800000e+00   3.857720681733319e+00   3.844100100000000e+00 -6.69916520e-01  -3.19489300e-01   1.05780239e+00
C     7.276686014600000e+00   3.197022430952750e+00   4.028358600000000e+00  3.37113771e+00  -2.22219507e+00  -6.79555890e-01
C     8.641711070100000e+00   3.849547567852386e+00   4.053957599999999e+00 -1.97580048e+00  -5.42096560e-01  -2.07779997e+00
C     9.876297051700000e+00   3.109239268465730e+00   3.692542500000000e+00 -4.32278750e+00   2.24091518e+00   2.55997889e+00
C     1.097379117090000e+01   3.923643294270700e+00   3.587751300000000e+00  3.08831434e+00  -2.71341130e-01   1.32970460e+00
C     3.573745808900000e+00   5.234769074026492e+00   3.882552300000000e+00  2.86887781e+00   1.39894746e+00   2.70093650e-01
C     4.917010485300000e+00   6.032821236322681e+00   3.993748500000000e+00 -4.09783158e+00  -2.80075417e+00  -1.00918423e+00
C     6.104299131499999e+00   5.273668023927502e+00   3.903494100000001e+00 -1.04737154e+00   5.02375330e-01   1.57601052e+00
C     7.298272956299999e+00   5.946131323347415e+00   4.206771900000000e+00  2.36961117e+00  -1.60988008e+00  -1.95808070e+00
C     8.609174549100000e+00   5.258787261144216e+00   4.041209700000000e+00 -1.04809646e+00   1.14813932e+00   1.23435597e+00
C     9.788121487399998e+00   6.083069812003184e+00   3.998169600000000e+00  1.26515090e-01  -2.20932597e+00  -8.58489030e-01
C     1.101766841740000e+01   5.371329284517997e+00   3.791790600000000e+00 -1.11798387e+00  -1.63511236e+00  -2.52756970e-01
C     1.225396323560000e+01   6.018227640461837e+00   3.857399400000000e+00 -7.01550200e-02  -3.78594250e-01   4.17270820e-01
C     4.811535698900000e+00   7.434044506575887e+00   3.991353300000000e+00 -9.10951190e-01   2.93747080e-01  -1.24625824e+00
C     6.038788897100000e+00   8.078113376007074e+00   3.886456500000000e+00  2.20279929e+00   1.63598236e+00   1.70350409e+00
C     7.285030483300000e+00   7.312169600917781e+00   4.132856700000000e+00 -9.76330600e-02   4.89375554e+00  -1.12744022e+00
C     8.509262528199999e+00   8.171513841148258e+00   4.064930400000001e+00  1.55133910e-01  -3.60191633e+00   4.39331250e-01
C     9.791599355900001e+00   7.475522066861648e+00   4.016018400000000e+00 -1.62059155e+00   3.34973790e-01   7.02392510e-01
C     1.104431028530000e+01   8.126205253810644e+00   4.024512300000000e+00 -3.43395602e+00   1.74881853e+00   4.88828890e-01
C     1.219978628240000e+01   7.449516083494285e+00   3.999891900000000e+00  3.18348789e+00  -1.44542621e+00  -1.27958597e+00
C     1.338627976890000e+01   8.177027565605298e+00   3.853642800000000e+00  3.56609691e+00   4.29423360e-01   2.10396236e+00
