64
Lattice="7.10842262195238 0 0 0 7.10842262195238 0 0 0 7.10842262195238 " PBC="1 1 1" Properties=species:S:1:pos:R:3:force:R:3 Energy="-505.67039956"
C     5.537958810563400e-02   2.778042644122200e-03   7.035532499033389e+00 -1.42929415e+00   3.50739930e-01   1.75193033e+00
C     1.746000832552083e+00   1.705165503632326e+00   7.105198666004926e+00  8.83591410e-01   2.23690450e+00   4.94786700e-01
C     7.064105088091384e+00   1.774098081389478e+00   1.716306818741557e+00  1.72269222e+00  -1.00231220e-01   1.94835944e+00
C     1.780371264351628e+00   7.011521029349517e+00   1.844841600893302e+00  8.26921980e-01   4.74621206e+00  -2.02802726e+00
C     8.727456859514536e-01   8.819603341937596e-01   9.532273179393198e-01  7.30502720e-01  -1.82679025e+00  -2.70921156e+00
C     2.735256053193253e+00   2.688477585373593e+00   8.365733401019644e-01 -2.09186853e+00  -1.47541943e+00   1.21946066e+00
C     9.394811924452162e-01   2.634603347926196e+00   2.683651392919970e+00 -2.84947602e+00   2.12620044e+00  -3.76297848e+00
C     2.663426366713094e+00   9.839062747880730e-01   2.594957542447670e+00  8.44015460e-01  -3.13437551e+00   2.80243909e+00
C     3.525429093558941e+00   4.636717448686700e-02   7.093012554939007e+00  3.06448200e-01  -1.27484885e+00  -5.23001940e-01
C     5.370211694544497e+00   1.749800568779377e+00   7.048200561152943e+00 -1.62824303e+00  -2.53606517e+00   2.35292690e-01
C     3.591273488193061e+00   1.853479969313804e+00   1.765921689355049e+00 -7.63923090e-01  -2.41084748e+00  -8.88743390e-01
C     5.418250770031587e+00   7.108333906885703e+00   1.753671531401324e+00 -2.97609974e+00   5.28057690e-01  -1.90976760e-01
C     4.448863377360638e+00   8.565998991492904e-01   8.301355260719352e-01  8.54100310e-01   2.20862126e+00   1.95202738e+00
C     6.175330477805640e+00   2.589321487404951e+00   8.067228699095721e-01  1.26248197e+00   2.69787374e+00   3.05845636e+00
C     4.408708822075200e+00   2.641287610968461e+00   2.746341922606048e+00  5.85397430e-01   2.12004175e+00  -1.72041324e+00
C     6.187685342824557e+00   9.872392009019123e-01   2.616084200979667e+00  5.13671220e-01  -3.62070346e+00   1.64343308e+00
C     7.064666155888780e+00   3.460866631860113e+00   1.184959833908760e-02  5.43137160e-01   4.95700938e+00  -1.41780773e+00
C     1.750780322669092e+00   5.362318857488379e+00   6.532889182571699e-02  7.50665080e-01  -1.55594700e+00  -3.63028593e+00
C     4.637996964758300e-02   5.343892262204363e+00   1.821158540334474e+00 -2.28208846e+00  -5.84088290e-01  -1.68191069e+00
C     1.787795514188634e+00   3.517261160547430e+00   1.727256490776952e+00  1.48681940e-01   2.04746625e+00   1.07851711e+00
C     8.025684944777656e-01   4.427941370315871e+00   8.170149417683916e-01  2.84420144e+00   1.80630670e-01   4.39598735e+00
C     2.715842240175771e+00   6.220250803952432e+00   8.499931179135838e-01 -2.47040324e+00   2.58130200e-01   3.02504557e+00
C     8.572689438862848e-01   6.249061738420875e+00   2.728386615741738e+00  2.17528091e+00  -1.52297135e+00  -3.42287710e-01
C     2.691664646655270e+00   4.456367383699441e+00   2.710702424116154e+00 -1.94736746e+00   4.40171410e-01  -7.41354500e-01
C     3.591814865659800e+00   3.534983808739388e+00   7.086647673325059e+00 -6.83540190e-01   9.96533400e-01   3.22253130e-01
C     5.361679454873711e+00   5.360816634536095e+00   1.867688284446660e-02 -8.17539510e-01  -1.36402180e-01  -4.94640430e-01
C     3.579726566489133e+00   5.382868667524765e+00   1.768650897135772e+00  1.73504600e-02  -2.14406013e+00   8.23744580e-01
C     5.354486868529889e+00   3.535493056135885e+00   1.804894753716818e+00 -1.67342886e+00   5.39415980e-01  -7.35992090e-01
C     4.422565270288365e+00   4.472324157544139e+00   8.853088277531368e-01  2.01426486e+00  -1.47858785e+00   3.87150090e-01
C     6.247994195511803e+00   6.253439744828308e+00   8.438816515660388e-01  1.19109383e+00  -8.38164280e-01   1.41450549e+00
C     4.508911990695768e+00   6.183563595052576e+00   2.665149519440408e+00 -8.06027280e-01   2.54202886e+00  -3.88550740e-01
C     6.237438614426461e+00   4.451244059180303e+00   2.693487317299264e+00  1.07341900e+00  -1.86477843e+00  -1.91217643e+00
C     7.710577100140199e-02   6.753833174446540e-02   3.581291485728926e+00 -4.42989248e+00  -2.59856400e-02  -2.07104509e+00
C     1.836282775721917e+00   1.922582154034669e+00   3.511124601468036e+00 -6.80008480e-01  -5.22545778e+00   1.30143909e+00
C     7.019841366942001e+00   1.806798104957549e+00   5.299295795792138e+00  3.13981855e+00   1.39399421e+00  -9.43276750e-01
C     1.659549618332167e+00   7.097470317848235e+00   5.205322235503060e+00  3.66736889e+00   6.64046610e-01   4.82068684e+00
C     8.069689635006765e-01   9.588360055549523e-01   4.458004026923470e+00  3.61719132e+00   4.92223570e-01  -1.81298767e+00
C     2.724929505484727e+00   2.712891533946209e+00   4.390051274140259e+00 -2.93049658e+00  -1.19027656e+00   5.09259645e+00
C     8.897149835141437e-01   2.725152496702316e+00   6.256350146301614e+00 -8.98958140e-01  -4.22295855e+00  -6.07682510e-01
C     2.578195668657032e+00   8.390258880743168e-01   6.176949492141572e+00  6.47149870e-01   1.89528137e+00  -4.91229300e-02
C     3.578097600361533e+00   7.087383821571586e+00   3.600029216671019e+00 -1.75033681e+00  -7.74054210e-01  -2.05099320e+00
C     5.245644194141200e+00   1.735394994918816e+00   3.559570634150123e+00  7.37226650e-01   4.93968300e-02   2.53614570e-01
C     3.515257935968888e+00   1.780635342251961e+00   5.306577308502935e+00  5.85110060e-01  -2.10471905e+00   1.30893955e+00
C     5.374254183404265e+00   7.076521156629059e+00   5.279983562133896e+00 -3.16150200e-02   4.95921900e-02   3.21858553e+00
C     4.378524398188119e+00   7.543548361311274e-01   4.545535152707817e+00  1.79443023e+00   4.14262211e+00  -3.72102754e+00
C     6.116484893914720e+00   2.685192285691307e+00   4.349819734637845e+00  8.29638120e-01  -3.02182604e+00   4.08947016e+00
C     4.482135771118073e+00   2.592593849758068e+00   6.216221892179869e+00 -2.30984373e+00   1.47190968e+00   3.84477200e-02
C     6.301259738730249e+00   8.869999214944347e-01   6.125684116879940e+00 -3.23332833e+00  -6.01936460e-01   2.51235822e+00
C     7.069993634305566e+00   3.394297035950301e+00   3.522854991559787e+00  1.10739752e+00   6.06299145e+00   9.69106570e-01
C     1.676175152576953e+00   5.337951824505056e+00   3.651894756054457e+00  2.80477434e+00  -2.49159854e+00  -1.96361505e+00
C     1.339198387917520e-02   5.278256144353010e+00   5.303024305624780e+00 -9.05060830e-01   1.97173367e+00   1.55070080e+00
C     1.788658050189345e+00   3.564187128136455e+00   5.440725114408110e+00 -1.00429602e+00  -6.48659460e-01  -3.42002840e+00
C     8.281833399678046e-01   4.357214413436752e+00   4.542914632708953e+00  1.97311213e+00   2.30615470e-01  -3.25107281e+00
C     2.623034887701730e+00   6.176437259207574e+00   4.483885793682890e+00  4.22270410e-01   1.57230892e+00  -1.88035209e+00
C     8.932556177369395e-01   6.229473200375394e+00   6.190945549774994e+00  1.02664220e-01  -1.07782409e+00  -6.08156200e-02
C     2.621097984706232e+00   4.421762089616531e+00   6.250894076519633e+00  3.37417322e+00   1.88127153e+00   6.57395670e-01
C     3.547321329207112e+00   3.600873768362502e+00   3.702623232155598e+00  2.66473671e+00   2.22695824e+00  -5.52167288e+00
C     5.402988204739959e+00   5.354604370755799e+00   3.519783513229911e+00 -6.35839370e-01  -1.10161374e+00   2.29447787e+00
C     3.615242165172760e+00   5.375117785668368e+00   5.364811710216987e+00 -2.60899233e+00  -3.34118600e-01   1.07326128e+00
C     5.312827744512701e+00   3.481221031358673e+00   5.423986485159439e+00  1.29849371e+00   4.73623184e+00  -4.96799714e+00
C     4.498620914016114e+00   4.526891395112759e+00   4.503975617691534e+00 -1.22567148e+00  -2.55177194e+00  -1.29718570e-01
C     6.301198677379944e+00   6.223077468207275e+00   4.437185092006693e+00 -1.56644152e+00   2.56959990e-01  -1.37449233e+00
C     4.466227121294512e+00   6.278460539439992e+00   6.290233793320142e+00  2.03820130e-01  -1.56529503e+00  -2.30034543e+00
C     6.222956340685830e+00   4.521116299323593e+00   6.157628941628864e+00 -1.61225597e+00  -4.60990734e+00   3.55573904e+00
