64
Lattice="7.10842262195238 0 0 0 7.10842262195238 0 0 0 7.10842262195238 " PBC="1 1 1" Properties=species:S:1:pos:R:3:force:R:3 Energy="-501.59348716"
C     1.115347051191100e-02   7.062391887155738e+00   2.626974446601960e-02 -3.91476783e+00   2.92063843e+00   1.59359365e+00
C     1.755872583381381e+00   1.778603826151391e+00   6.986314136233640e-02 -6.73370000e-01  -1.15103451e+00  -4.51019662e+00
C     2.231006872977480e-02   1.778666167017769e+00   1.802534828491204e+00 -1.17664698e+00   1.09117108e+00   7.22598700e-01
C     1.777199770515489e+00   1.095274287396744e-01   1.606704893732825e+00  2.31296439e+00  -5.06227265e+00   7.65032780e+00
C     7.983323011016027e-01   8.658996352103578e-01   9.269253012346055e-01  2.05866552e+00   2.41991772e+00  -2.50042624e+00
C     2.643171982720797e+00   2.658903419568440e+00   8.185065020867461e-01  9.46348500e-01   5.10595000e-01   3.31197360e+00
C     9.229839652287202e-01   2.694589407142269e+00   2.686494051125708e+00 -7.99290700e-02  -4.59184310e-01   6.37000000e-05
C     2.584173425575095e+00   8.136910433512796e-01   2.752232885683920e+00  1.67776662e+00   5.36315735e+00  -5.86621819e+00
C     3.538022446156760e+00   7.084695629389381e+00   7.096907828366314e+00  2.40367366e+00   3.82162820e-01  -1.46488275e+00
C     5.316879616490327e+00   1.689322819970679e+00   1.412231743599924e-01  4.02885770e-01   3.43464280e+00  -4.11447426e+00
C     3.561621414075993e+00   1.823369330853520e+00   1.767964436763358e+00 -2.09804567e+00  -2.77824957e+00  -1.82024159e+00
C     5.296882415228422e+00   7.098661262973989e+00   1.858116366883473e+00  1.77966997e+00  -1.83582408e+00  -2.53331670e-01
C     4.481982726779064e+00   8.158035243854911e-01   9.740863443596740e-01 -2.92900415e+00   1.76856608e+00  -1.37319336e+00
C     6.216795399716850e+00   2.728442132522400e+00   9.313220027935277e-01 -5.99894890e-01  -2.20934317e+00   3.34624140e-01
C     4.315388170403767e+00   2.761452154400930e+00   2.506891294608490e+00  4.44578919e+00  -2.46797041e+00   6.03978261e+00
C     6.267825770526663e+00   8.720239678028450e-01   2.696810860295245e+00 -1.11508855e+00  -8.55481170e-01  -1.15136618e+00
C     1.738826799191300e-02   3.513223789751949e+00   7.089722137192434e+00  5.29083830e-01   4.01964930e-01   9.72719560e-01
C     1.736470143840091e+00   5.313105399500238e+00   3.226953749420440e-02  2.59889523e+00   6.34126460e-01  -8.02858290e-01
C     7.104462162337267e+00   5.284255368707385e+00   1.654122835251380e+00 -6.28044540e-01   2.87371951e+00   5.14273886e+00
C     1.858642105820448e+00   3.529955026241095e+00   1.840928840746348e+00 -3.46877883e+00   1.24699456e+00  -3.44862921e+00
C     9.009216250272525e-01   4.527684837245604e+00   9.032846068745929e-01  6.01691850e-01  -6.12166917e+00  -9.02555630e-01
C     2.725716265700309e+00   6.181639060712437e+00   8.060549625201970e-01 -2.91882905e+00   1.93529201e+00   1.62804407e+00
C     1.080162136327755e+00   6.341857077660689e+00   2.715840391985890e+00 -4.46186486e+00  -2.89265767e+00  -2.90779349e+00
C     2.666871392651651e+00   4.485831937627793e+00   2.546804021356397e+00  9.36459030e-01  -1.35450530e+00   4.99455501e+00
C     3.517885422221919e+00   3.598156147310649e+00   7.101315619064524e+00  2.00188989e+00  -2.53115022e+00  -4.82661790e-01
C     5.351543839396757e+00   5.376765162610553e+00   2.073733022509980e-02 -1.04601299e+00  -4.27712045e+00  -1.92150471e+00
C     3.575664600551386e+00   5.289394758261645e+00   1.695423979105425e+00 -1.06193214e+00   3.29028911e+00   2.72560351e+00
C     5.275439147552930e+00   3.658955978748260e+00   1.828977734132248e+00  1.43196495e+00  -1.23573148e+00  -3.51888706e+00
C     4.445429511645595e+00   4.482857631435134e+00   8.540925452385378e-01  6.32634590e-01  -1.13674234e+00  -1.10070330e-01
C     6.159829780356241e+00   6.129623107106362e+00   9.106942133610021e-01  2.38782775e+00   4.78082440e+00   7.91599300e-02
C     4.353579734782694e+00   6.264090863113663e+00   2.760597579833553e+00  2.54528368e+00  -1.38403106e+00  -3.33573767e+00
C     6.216539709755208e+00   4.553218859970453e+00   2.584576899643006e+00 -6.27816150e-01  -2.87923377e+00   3.65027915e+00
C     3.608043394501260e-02   7.014909756580924e+00   3.608660832090033e+00  3.44841790e-01   3.42346015e+00  -3.52710327e+00
C     1.770859981633389e+00   1.773593596636136e+00   3.535209572241799e+00 -8.40420580e-01  -1.57779022e+00   2.28174456e+00
C     7.072635906077645e+00   1.759310500897318e+00   5.306052351492449e+00 -6.51434790e-01  -7.39988820e-01  -8.69446400e-02
C     1.684071188423250e+00   7.040295213273015e+00   5.424825634449730e+00  4.54975696e+00   4.06304166e+00  -2.96553825e+00
C     8.440779151145770e-01   8.331499948523986e-01   4.444942442527672e+00  2.23765290e-01   7.17776330e-01   2.41641406e+00
C     2.709596495724934e+00   2.625330694955311e+00   4.425982217957573e+00 -4.54864530e+00   8.90543700e-02   6.65056780e-01
C     8.656858138579482e-01   2.556185575361821e+00   6.212631712251412e+00  7.95314090e-01   3.69079179e+00  -3.13160600e-01
C     2.691687606860332e+00   9.059416641657225e-01   6.134631986021318e+00 -1.72718266e+00  -8.43456710e-01   4.22802256e+00
C     3.523519202569400e+00   6.680061964496180e-02   3.532295474388730e+00  9.67077500e-01  -4.16377380e-01   3.45286323e+00
C     5.334396618015889e+00   1.766362766978620e+00   3.424677652301693e+00 -2.74333690e-01   9.68150970e-01   3.27180305e+00
C     3.556550549715789e+00   1.843512752368718e+00   5.280138667915464e+00  7.32268240e-01  -3.95641086e+00   2.27525877e+00
C     5.333028317745765e+00   7.060291348271527e+00   5.333095065834167e+00 -4.51326030e-01   2.15455676e+00  -2.23009900e-01
C     4.463999910319214e+00   9.484051772865904e-01   4.484767522424675e+00 -9.07562900e-02  -1.44219870e+00  -3.82411336e+00
C     6.195110587840730e+00   2.632489729544365e+00   4.330982272526392e+00  1.60821166e+00   2.09134627e+00   2.33277103e+00
C     4.447793630840554e+00   2.605537505422600e+00   6.169339357053051e+00  2.29146570e-01   2.88978796e+00   3.11630463e+00
C     6.144716491939634e+00   9.457882114990375e-01   6.237193089509166e+00  2.54585640e+00  -4.03686674e+00   9.52258700e-02
C     3.752202205234860e-02   3.587803511691108e+00   3.585788273878338e+00 -8.89892390e-01   9.49605130e-01  -2.55101272e+00
C     1.896657736739530e+00   5.398211060402414e+00   3.549421015080608e+00 -7.54495170e-01   1.04944510e-01  -6.32425070e-01
C     7.072694337311582e+00   5.345907002427550e+00   5.316208439226547e+00  1.91204851e+00  -6.72045580e-01   1.52903285e+00
C     1.805161746070425e+00   3.554206120851487e+00   5.290529760101380e+00 -8.27721320e-01   5.22564100e-02   1.57157383e+00
C     9.135269197750722e-01   4.566295372053752e+00   4.431811266674425e+00  1.04448000e+00  -3.34951608e+00   2.62775860e-01
C     2.783945833686979e+00   6.343575041239490e+00   4.479783096483531e+00 -4.04918394e+00  -5.37696848e+00   1.79424381e+00
C     8.984645987486494e-01   6.262550396847683e+00   6.386689614788124e+00 -8.89476030e-01  -2.91116111e+00  -5.73998765e+00
C     2.658296502445145e+00   4.428424458717126e+00   6.269211770769111e+00 -1.34768552e+00   9.30796480e-01  -2.60011858e+00
C     3.540354222028798e+00   3.390537391226583e+00   3.632043490708940e+00  1.64431124e+00   6.67678450e+00  -5.89583065e+00
C     5.253302808671989e+00   5.387711706939996e+00   3.606483806578431e+00  3.75065390e-01  -2.77744937e+00  -3.24639658e+00
C     3.593358104210602e+00   5.322024906035362e+00   5.412584077687376e+00 -2.03988221e+00  -1.29524227e+00  -3.45135163e+00
C     5.385508309180475e+00   3.534364949466091e+00   5.297136754589766e+00 -1.69316507e+00  -1.31514985e+00   3.81803250e-01
C     4.374842377439411e+00   4.344539811568388e+00   4.401620729543892e+00  2.99060171e+00   2.45091916e+00   3.07069297e+00
C     6.225027166363488e+00   6.165922267215390e+00   4.352290551256330e+00 -9.68768490e-01   1.27065254e+00   5.44347221e+00
C     4.451858866652707e+00   6.131218876900324e+00   6.220212560638736e+00  1.91707432e+00   3.67961485e+00   5.51999520e-01
C     6.299627715980924e+00   4.378512740375022e+00   6.235562914949722e+00 -2.72057384e+00   2.08452836e+00  -2.03926814e+00
