64
Lattice="7.10842262195238 0 0 0 7.10842262195238 0 0 0 7.10842262195238 " PBC="1 1 1" Properties=species:S:1:pos:R:3:force:R:3 Energy="-506.00548716"
C     4.392507589576601e-03   7.100841984865354e+00   7.098968844420757e+00 -2.42450595e+00   3.65795320e-01   1.32780980e+00
C     1.762311534759030e+00   1.813297691180147e+00   7.035787407068542e+00  1.69755284e+00  -3.23653000e-03   2.13881625e+00
C     5.362259928664859e-02   1.759221076940759e+00   1.776878043307708e+00 -2.33875627e+00   1.01118082e+00  -1.49132186e+00
C     1.724411273539071e+00   5.385049531584580e-02   1.761127626971669e+00  3.26832170e-01  -5.47241420e-01   8.41789100e-01
C     8.493556345730222e-01   9.005522713879172e-01   8.494182597763044e-01  2.28916267e+00   5.14727200e-01  -1.21796820e-01
C     2.721734980359299e+00   2.756939301216396e+00   9.194739683074166e-01 -1.24198890e+00  -3.77836393e+00  -3.70606870e-01
C     8.740595357043082e-01   2.647656117877945e+00   2.612760018225651e+00  5.68258490e-01   1.79803500e+00   1.83456338e+00
C     2.642490356075765e+00   9.506249244181377e-01   2.737478928030753e+00  7.53840590e-01  -2.01888673e+00  -2.72248204e+00
C     3.563048287748505e+00   7.036891202932975e+00   1.430726437572640e-01  4.51311470e-01   3.51753515e+00  -4.66205699e+00
C     5.378833713592973e+00   1.778517743153463e+00   7.097599477887240e+00 -4.56231050e-01   2.02174164e+00   4.97321420e-01
C     3.583122117806254e+00   1.839495711661931e+00   1.841365084642538e+00 -1.06028000e-01  -6.41166630e-01  -2.08327624e+00
C     5.317205182246323e+00   9.357349826402500e-02   1.759272541920528e+00  9.58825060e-01  -2.98935689e+00   6.75613050e-01
C     4.518106948607416e+00   9.703188803710741e-01   8.152782119538732e-01 -3.51144123e+00  -2.86115513e+00   5.58066587e+00
C     6.314760054970153e+00   2.672135819359796e+00   8.116738151801760e-01 -1.65594833e+00   6.28154610e-01   2.14472189e+00
C     4.501035005422093e+00   2.736366175553819e+00   2.693250464657566e+00 -8.08494740e-01  -2.95174342e+00  -1.06968436e+00
C     6.219847969642556e+00   9.088029464387251e-01   2.661332722998825e+00 -5.79368180e-01   9.39602090e-01   6.71149500e-02
C     6.111779118140280e-02   3.631231211256153e+00   6.981651579668730e+00 -5.10672140e-01  -3.81045369e+00   2.60365790e+00
C     1.850477087262211e+00   5.302189208135383e+00   7.037392773233043e+00 -3.51860617e+00   1.52994556e+00   3.24513208e+00
C     7.072421800388332e+00   5.311731199239341e+00   1.753559786997738e+00  9.09719290e-01   1.85202231e+00  -1.91983187e+00
C     1.769476185001954e+00   3.507413151849682e+00   1.753304807878359e+00  8.46573880e-01   2.95100575e+00  -5.53182040e-01
C     9.072616982462566e-01   4.450351525636135e+00   7.659530806463718e-01  6.54146780e-01  -2.74638500e-02   3.68914746e+00
C     2.614208146081797e+00   6.257851587327410e+00   9.343782690989968e-01  2.00503138e+00  -2.07983602e+00   6.22367400e-01
C     7.554621862068710e-01   6.294939569094582e+00   2.598323025137109e+00  3.21049380e+00  -2.43640833e+00   2.28478370e+00
C     2.750783549395929e+00   4.415275227470424e+00   2.634541007059819e+00 -3.52228765e+00   3.19839000e-01   2.01152579e+00
C     3.643220987689306e+00   3.593587208671644e+00   9.921758582430500e-02 -3.48925121e+00  -2.32554045e+00  -3.93455661e+00
C     5.429159142131561e+00   5.356766895085254e+00   6.997097897685085e+00 -4.01911261e+00  -8.34425880e-01   3.66423126e+00
C     3.624667933566880e+00   5.348272472222807e+00   1.820095902237010e+00 -2.39892912e+00  -2.16643630e-01   1.17109100e-02
C     5.330699811748131e+00   3.553312094538570e+00   1.746646277325979e+00  1.48285297e+00   1.57929608e+00   2.49259310e-01
C     4.420550174644047e+00   4.465535116352456e+00   8.897029702799159e-01  4.28629225e+00   1.77985477e+00   5.96228940e-01
C     6.212336570544229e+00   6.205160262488207e+00   8.537606529864100e-01 -4.63159000e-03   1.23675807e+00   6.22181560e-01
C     4.443386408816155e+00   6.209529170114686e+00   2.774855298503618e+00  2.83473860e-01   1.56247378e+00  -2.97672474e+00
C     6.211839833971543e+00   4.494316550867026e+00   2.632022208588648e+00  3.77106700e-01  -1.68442956e+00   9.78469830e-01
C     7.039349437643424e+00   3.556087933571680e-02   3.583897006956060e+00 -3.06141280e-01  -1.56351135e+00  -1.41417102e+00
C     1.727176165601346e+00   1.815038046290201e+00   3.561496092585202e+00  3.20840920e-01  -2.73123101e+00  -3.04793270e-01
C     7.101116512146938e+00   1.727382380941552e+00   5.330009370659051e+00 -2.30648610e-01   8.55426610e-01  -1.16720310e-01
C     1.669106608207852e+00   7.063754216350860e+00   5.468686521289237e+00  3.26264299e+00   8.91133940e-01  -4.66979787e+00
C     8.466997857137378e-01   8.291107758670360e-01   4.400968673936960e+00  6.12255220e-01   2.04127154e+00   3.13581614e+00
C     2.660511700186215e+00   2.563595110764004e+00   4.419449435401341e+00  2.60341170e-01   1.85309908e+00   1.33494552e+00
C     8.848064044423551e-01   2.669926024019917e+00   6.132607009669559e+00  1.45523498e+00  -5.10877000e-02  -2.24383980e-01
C     2.693086899853080e+00   8.561775166772100e-01   6.248210646980582e+00 -3.49734349e+00  -2.07852679e+00   2.25410431e+00
C     3.568834401592733e+00   1.579207169259200e-02   3.607179152479120e+00 -2.43522415e+00  -5.50276100e-01   3.22359450e-01
C     5.346870620197917e+00   1.816302350337395e+00   3.541480054003354e+00  4.87818210e-01   3.27210350e-01   1.14451958e+00
C     3.511107825590654e+00   1.612916020165502e+00   5.383730279430535e+00  2.17844522e+00   6.16539460e+00  -2.06902961e+00
C     5.272945441813608e+00   7.107696494629367e+00   5.357717575526453e+00 -1.31160607e+00   1.80844460e+00   3.21270450e-01
C     4.421880587021607e+00   9.493405035349299e-01   4.415410642921334e+00  9.59680480e-01  -2.91601308e+00   1.50013336e+00
C     6.280527028979852e+00   2.653072664830159e+00   4.515979895306834e+00 -1.19438841e+00   6.89926100e-01  -4.02278158e+00
C     4.487994675209928e+00   2.635800406295404e+00   6.290991409002981e+00 -1.00685389e+00   1.22343980e+00  -2.04483846e+00
C     6.122220680126798e+00   9.182791846334469e-01   6.248571470512774e+00  4.46689239e+00  -2.93104798e+00  -2.41124247e+00
C     7.098052213323908e+00   3.637864435824005e+00   3.533207840432007e+00  7.86125410e-01  -3.62196750e+00  -5.22357530e-01
C     1.738303263865337e+00   5.328650240254107e+00   3.555135689277505e+00  1.83332076e+00   1.93646625e+00  -1.85089386e+00
C     7.081415518855607e+00   5.343689956496598e+00   5.309516925593210e+00  6.59716140e-01  -4.94442960e-01   6.78598170e-01
C     1.832479272030633e+00   3.551875340158615e+00   5.176456068590858e+00 -1.55176162e+00  -1.65930396e+00   5.01843511e+00
C     9.399170098360483e-01   4.432904044483798e+00   4.369150450194899e+00 -2.26722699e+00   1.33798571e+00   7.64641490e-01
C     2.579288019961047e+00   6.190463954142489e+00   4.561565143305500e+00  1.51054545e+00  -5.35876280e-01  -2.41335178e+00
C     8.062037418056335e-01   6.197208496608570e+00   6.253978421094451e+00  2.09653925e+00  -4.77079700e-01  -8.24595390e-01
C     2.666010847009273e+00   4.382902475679778e+00   6.251294636134269e+00  1.40064401e+00  -6.68900630e-01  -1.95338886e+00
C     3.554233132857443e+00   3.448058604899170e+00   3.585799007596494e+00  1.37467387e+00   2.63934655e+00  -1.23952877e+00
C     5.391707564547377e+00   5.331002985972875e+00   3.589858201249419e+00 -3.66279268e+00   4.10768380e-01  -1.10808040e-01
C     3.503474303791714e+00   5.174134599931620e+00   5.360139059691956e+00  2.03716617e+00   4.57517947e+00  -5.94397740e-01
C     5.427221812630706e+00   3.544635269551693e+00   5.317973389478867e+00 -3.93857917e+00  -1.68785312e+00   1.32071523e+00
C     4.440727218998239e+00   4.339605215669810e+00   4.444318962779672e+00  6.42993140e-01   1.68962092e+00   8.80632080e-01
C     6.124156090353545e+00   6.272457689790081e+00   4.537534765217459e+00  3.47998853e+00  -2.33439466e+00  -3.02442941e+00
C     4.405245598574735e+00   6.208949691502704e+00   6.242662594209898e+00  3.97044980e-01  -1.52289933e+00  -4.12224160e-01
C     6.229869068431102e+00   4.398827688128041e+00   6.204151435149977e+00  6.64787730e-01   2.98229508e+00  -2.21960218e+00
