64
Lattice="7.10842262195238 0 0 0 7.10842262195238 0 0 0 7.10842262195238 " PBC="1 1 1" Properties=species:S:1:pos:R:3:force:R:3 Energy="-510.24577046"
C     7.072334935463915e+00   5.910177144214460e-02   7.372706664588981e-02  2.05034072e+00  -2.71639359e+00  -2.29375139e+00
C     1.809986303586846e+00   1.859691806588743e+00   7.085496251029070e+00 -8.74918760e-01  -2.86919828e+00   6.61958400e-01
C     2.795195267904260e-02   1.736803813197874e+00   1.811581220370095e+00 -1.17064861e+00   1.98228066e+00  -1.20348828e+00
C     1.768075399240457e+00   3.807278263694620e-02   1.751810830696313e+00  3.83782020e-01  -2.61135360e+00   8.54038040e-01
C     9.212928714874221e-01   8.790803567692665e-01   8.952969434607250e-01 -1.23831470e+00   2.45315619e+00  -4.10938990e-01
C     2.645488404399976e+00   2.697202107876250e+00   9.002720573682368e-01  1.78778980e-01  -9.90911060e-01   6.18565270e-01
C     8.554587129818756e-01   2.695395360098924e+00   2.642899872302903e+00  1.98810000e-02  -1.50104927e+00   2.38407477e+00
C     2.616831367281256e+00   9.267452448896407e-01   2.685911160470868e+00  1.79200614e+00  -1.34028112e+00  -1.11360269e+00
C     3.549252261127609e+00   7.076693535877594e+00   6.748381014297000e-03  4.11201280e-01   6.27803880e-01  -1.49919370e-01
C     5.353284336675265e+00   1.748134283433023e+00   1.705410104454680e-02 -1.03385306e+00   2.99956055e+00  -3.17410050e-01
C     3.525957604780738e+00   1.788660395968810e+00   1.784431382099493e+00  9.21500350e-01   2.44421490e-01  -1.27121040e-01
C     5.332688890565660e+00   7.756142089134399e-03   1.795331295176549e+00 -1.09841120e-01  -1.09721700e-01  -1.51298041e+00
C     4.442534748702053e+00   9.529579798062480e-01   8.584141107703668e-01 -7.50692570e-01  -3.56021833e+00   1.73446669e+00
C     6.222470622168205e+00   2.664737373096900e+00   9.247354094780619e-01  2.73356600e-02  -8.12119950e-01  -1.23126222e+00
C     4.486546049764200e+00   2.695670811475450e+00   2.645199660273152e+00 -7.22097690e-01  -2.96852246e+00   6.93641000e-02
C     6.214162795399533e+00   8.728228123368805e-01   2.655155077236688e+00  2.46532637e+00   3.47905380e-01   1.45915483e+00
C     3.175758889711200e-03   3.550692214297743e+00   1.175036475931240e-02 -9.18195950e-01  -7.55299250e-01  -5.64721790e-01
C     1.800305982578704e+00   5.327937549802226e+00   7.061701659319335e+00 -1.40691712e+00  -1.68607300e-02   2.46516082e+00
C     7.027167378378398e+00   5.251701494308381e+00   1.771305111057854e+00  3.12515193e+00   2.22852074e+00  -6.04481600e-01
C     1.736192631021007e+00   3.528522465830486e+00   1.772555838017843e+00  6.64212470e-01   1.40015804e+00  -5.83775920e-01
C     8.449527486864203e-01   4.403196382501841e+00   8.810935331394768e-01  1.29396643e+00   8.35072770e-01  -1.77806930e-01
C     2.661274007427984e+00   6.195222829833900e+00   9.118607055129442e-01  6.69060290e-01   7.77849880e-01  -1.16691067e+00
C     8.688816895836740e-01   6.176687475683798e+00   2.616217341735340e+00 -9.00237300e-02   1.60184148e+00   9.20221680e-01
C     2.677642572195058e+00   4.441564306845970e+00   2.572514475130675e+00 -6.52100000e-02  -1.19493362e+00   3.37391002e+00
C     3.546136781661716e+00   3.542655573852023e+00   8.982081979447461e-02 -7.60588970e-01   1.38613490e+00  -3.75635972e+00
C     5.361006216167371e+00   5.325737990590919e+00   7.016316015827838e+00 -1.63440977e+00   1.03043508e+00   3.53307332e+00
C     3.561101361877113e+00   5.279040985294484e+00   1.763165540652597e+00  1.75298810e-01   3.38589331e+00  -6.90539660e-01
C     5.262387657117253e+00   3.556931845505126e+00   1.743371640277623e+00  2.99246224e+00   5.84335850e-01   5.90398110e-01
C     4.410214101649211e+00   4.468411326312959e+00   8.486261682437578e-01  1.69306965e+00  -5.96250370e-01   6.54166080e-01
C     6.259647317049674e+00   6.183620035928179e+00   8.782151906521863e-01 -2.62632777e+00   1.33491303e+00   3.40903450e-01
C     4.478672831954514e+00   6.250949735468747e+00   2.656286667033566e+00 -2.44477640e+00  -1.39241710e+00   2.50149470e-01
C     6.177440470891934e+00   4.452990598618037e+00   2.670827229839681e+00 -1.25908130e-01  -1.13416567e+00   8.15532400e-02
C     1.412905622064300e-02   7.101504845274668e+00   3.566174216595650e+00 -7.21675200e-01  -1.29673041e+00   2.85169550e-01
C     1.726041448098516e+00   1.758692423550509e+00   3.531561032163632e+00  1.06828508e+00   1.79679976e+00   1.84416041e+00
C     7.292921729102099e-02   1.718922433928812e+00   5.382836750707201e+00 -2.59570022e+00   1.40134830e+00  -6.64674730e-01
C     1.827269651260887e+00   1.577003558247000e-03   5.386860544415478e+00 -2.14823961e+00  -7.47246080e-01  -1.59673032e+00
C     9.483530014645596e-01   8.526184005556021e-01   4.493424443828216e+00 -2.14303710e+00   4.66887490e-01  -1.71729098e+00
C     2.626412525793849e+00   2.680533354421934e+00   4.460969021082498e+00  2.53842181e+00  -2.45872736e+00  -3.08076178e+00
C     8.850837750929875e-01   2.661320780848824e+00   6.211940986825425e+00  8.20659960e-01   8.70431280e-01   1.62221680e-01
C     2.643562732712218e+00   8.824777562762695e-01   6.222832938469147e+00  2.47781811e+00   3.23742890e-01   5.59076520e-01
C     3.564915883623458e+00   2.918334472950520e-02   3.555836224326705e+00 -2.31925080e-01  -3.89128300e-01  -1.90527830e-01
C     5.460261121210430e+00   1.783033652959723e+00   3.585112689392532e+00 -3.89798922e+00   5.80834740e-01  -8.04970110e-01
C     3.554738612789952e+00   1.712161186669573e+00   5.297799401746402e+00 -5.16216080e-01   3.71551304e+00   1.58992112e+00
C     5.276715038328994e+00   5.972354516871600e-02   5.365419196014093e+00  1.28807392e+00  -2.57085838e+00  -2.09579263e+00
C     4.482731954523212e+00   9.191861482755328e-01   4.412333051348006e+00 -1.12123184e+00  -1.24377280e-01   7.79834270e-01
C     6.221679739067504e+00   2.666263977938772e+00   4.547419169039022e+00  2.91269598e+00  -3.54834140e-01  -2.52367561e+00
C     4.408112141080476e+00   2.712434106950612e+00   6.297835469385743e+00  1.79873397e+00  -2.26346704e+00  -2.25086171e+00
C     6.180923811228412e+00   8.807875866299121e-01   6.227259353234621e+00  1.79770636e+00   3.16287990e-01   1.23420659e+00
C     7.101449897167815e+00   3.602752311208290e+00   3.593146628637657e+00 -3.64947590e-01  -1.03111390e+00  -9.85336750e-01
C     1.808883431817353e+00   5.365001078595585e+00   3.482995649065756e+00 -9.10147590e-01  -5.50774070e-01   1.28462994e+00
C     7.096522409691858e+00   5.330539801154955e+00   5.402875251904528e+00  9.67635160e-01   1.96771828e+00  -2.64782118e+00
C     1.798942018446378e+00   3.552994348047456e+00   5.261067409784040e+00 -1.65690242e+00   1.46601548e+00   2.32628804e+00
C     9.021105797946737e-01   4.510572660388251e+00   4.407930876303666e+00 -2.21339510e-01  -1.39165119e+00   7.60421340e-01
C     2.641342487991087e+00   6.240927641501036e+00   4.456525546102736e+00  2.18597580e+00  -1.03338054e+00  -1.00822781e+00
C     9.212018836778862e-01   6.243900881430303e+00   6.255903381939947e+00 -1.70459413e+00  -1.16783460e-01  -2.78225110e-01
C     2.661504035983967e+00   4.450991425840388e+00   6.187823814897194e+00 -2.99768180e-01  -1.72939652e+00   1.27433993e+00
C     3.630219611633100e+00   3.489596885731819e+00   3.492844581858444e+00 -3.47171779e+00   1.74499237e+00   2.11403509e+00
C     5.317375144631168e+00   5.331063052144014e+00   3.528964609717451e+00 -5.25499060e-01   4.10161480e-01   1.50169287e+00
C     3.526063022688193e+00   5.256273063063755e+00   5.323094794723898e+00  1.76017199e+00   1.83710275e+00  -1.71893901e+00
C     5.384930039000338e+00   3.591502308317199e+00   5.349555684674169e+00 -2.82355918e+00  -1.81815294e+00   8.34320560e-01
C     4.449543369068468e+00   4.349524308593758e+00   4.405925590282564e+00  6.79336000e-03   2.96690482e+00   4.32857530e-01
C     6.134617058333816e+00   6.240058352498836e+00   4.466350168090065e+00  3.03369585e+00  -3.69479950e-01  -2.12779400e-02
C     4.464175488357928e+00   6.172817294988339e+00   6.161560823432664e+00 -1.91124398e+00   1.55626412e+00   1.39395340e+00
C     6.216266604158148e+00   4.468353321584381e+00   6.239228586326402e+00  1.68816213e+00  -1.83971877e+00  -8.97080800e-01
