64
Lattice="7.10842262195238 0 0 0 7.10842262195238 0 0 0 7.10842262195238 " PBC="1 1 1" Properties=species:S:1:pos:R:3:force:R:3 Energy="-497.97306068"
C     7.106091981475580e+00   7.024555033065549e+00   2.982601721857940e-02 -6.32964470e-01   2.62506248e+00  -5.53814800e-02
C     1.747082165801037e+00   1.805917158142253e+00   7.079090638153510e+00 -8.66839190e-01  -6.67585110e-01   1.24971340e+00
C     7.069753653957915e+00   1.681929989361653e+00   1.865694371901750e+00  1.95128556e+00   3.37754552e+00  -3.11854480e+00
C     1.843222231136239e+00   1.287285577523660e-01   1.721384365019023e+00 -1.37224330e+00  -7.44837298e+00  -1.17443810e-01
C     9.688973380155262e-01   7.821405228050882e-01   7.546921307844463e-01 -3.31733624e+00   4.37965694e+00   4.59487467e+00
C     2.596913567100016e+00   2.701736144160191e+00   9.455961419198450e-01  1.75613033e+00  -3.83097464e+00  -7.89146550e-01
C     9.692221218450342e-01   2.646298835662882e+00   2.658657041640431e+00 -3.41356148e+00  -1.13310565e+00   1.44144969e+00
C     2.685296566251143e+00   8.143728832489899e-01   2.735510392554596e+00 -1.84561730e-01   4.53949503e+00  -4.60464166e+00
C     3.561652620051295e+00   3.096101905831480e-02   9.525506671901220e-02  4.84097310e-01  -7.59082870e-01  -3.32966522e+00
C     5.375354780478519e+00   1.716194434579934e+00   7.064985750569775e+00 -9.42062710e-01   5.28425857e+00   1.86098059e+00
C     3.490910308979316e+00   1.771758912757915e+00   1.914050980627277e+00  3.07648887e+00   8.17729020e-01  -5.62940596e+00
C     5.314281132601586e+00   3.863427693970000e-03   1.752652254681843e+00 -1.04416050e+00  -2.34967474e+00   9.44469540e-01
C     4.500711927614014e+00   9.640521660735081e-01   9.146010024329542e-01 -3.08747344e+00  -2.36275393e+00  -2.67427620e-01
C     6.257816116298536e+00   2.743798457908386e+00   1.076524187799291e+00 -7.63589360e-01  -1.86749764e+00  -4.28896751e+00
C     4.444033133106122e+00   2.652291946773804e+00   2.642563075239168e+00 -1.97756123e+00   1.27162731e+00   1.89658731e+00
C     6.147087932809892e+00   7.644185854553923e-01   2.686365033255155e+00  3.96892712e+00   2.81559903e+00  -2.02935012e+00
C     7.059128623583574e+00   3.664343736588862e+00   4.497669593816880e-02  2.37165745e+00  -4.09840593e+00   2.30075996e+00
C     1.827383314938581e+00   5.294017720912563e+00   6.971475659435520e+00 -1.70465889e+00   4.07499188e+00   3.83223754e+00
C     3.747631489490200e-02   5.322228135838068e+00   1.782670696900746e+00  1.19311838e+00   2.38311968e+00  -1.27246357e+00
C     1.868129930744040e+00   3.512337653788140e+00   1.886244892780396e+00 -5.41367396e+00   1.80706117e+00  -4.98692250e+00
C     9.848294456337323e-01   4.652985997947511e+00   8.698634338317222e-01 -3.17584055e+00  -7.41821088e+00  -5.22470410e-01
C     2.583431093000888e+00   6.192115809390924e+00   7.966343832745896e-01  5.27546586e+00   1.26391972e+00   2.47797820e+00
C     9.909439686030040e-01   6.224541945435448e+00   2.591032342561133e+00 -3.05547191e+00   7.99967940e-01   1.08793271e+00
C     2.624290377304874e+00   4.403943264466525e+00   2.644249193084632e+00  3.70936195e+00   7.44481490e-01   3.18558890e+00
C     3.448941968578158e+00   3.478373681594006e+00   3.044381022848360e-02  7.11121546e+00   8.54632180e-01   8.28508070e-01
C     5.383452624442997e+00   5.377877701834810e+00   7.028498643766672e+00 -3.03083891e+00  -2.31801459e+00   5.54242314e+00
C     3.575395262418315e+00   5.160457852642287e+00   1.802390811848923e+00 -1.30067412e+00   5.87812693e+00  -1.57131924e+00
C     5.245790485478720e+00   3.656619582401518e+00   1.841733372018480e+00  4.88200144e+00  -4.88329830e+00  -1.05586137e+00
C     4.486273299588269e+00   4.383532779513493e+00   9.148628056380488e-01 -4.10227422e+00   2.05390603e+00  -2.81305506e+00
C     6.159413155706483e+00   6.112780055129402e+00   9.810921213570412e-01  2.38222115e+00   4.18700990e+00  -3.80862224e+00
C     4.387061329417834e+00   6.214322379487352e+00   2.701173725762496e+00  6.16237000e-02  -5.47277950e-01  -2.73751242e+00
C     6.252109616787652e+00   4.518191609920820e+00   2.583406995448206e+00 -1.68363090e+00  -2.32621705e+00   5.31514959e+00
C     5.239497470017460e-02   7.086384519519666e+00   3.459674975892096e+00 -1.74702497e+00  -2.83125408e+00   2.25254601e+00
C     1.807665616854094e+00   1.716376054777875e+00   3.485782363985475e+00 -8.44940310e-01   1.14528213e+00   4.15581012e+00
C     7.040217304961100e+00   1.656331848664771e+00   5.295190894981767e+00  2.86388800e+00   3.52706289e+00   2.02698030e-01
C     1.823910850488711e+00   5.428346933763000e-02   5.348565268150526e+00 -2.88387983e+00   5.58902570e-01  -1.09858415e+00
C     9.777164736232555e-01   7.345390418144844e-01   4.273235721856751e+00 -2.85960604e+00   5.69930689e+00   4.49177189e+00
C     2.658032708881716e+00   2.613754486550189e+00   4.524207325815674e+00 -2.33377718e+00   2.06366959e+00  -3.61417820e+00
C     7.793553717383459e-01   2.620005277981086e+00   6.260938704187049e+00  1.68478725e+00   2.32463039e+00  -1.29772936e+00
C     2.673836864892762e+00   9.510571875976599e-01   6.203414007387378e+00 -9.86841500e-02  -8.47442050e-01   2.64959759e+00
C     3.537484054227521e+00   3.403534075723860e-02   3.515713585858830e+00  1.94643473e+00  -3.01109934e+00   4.77997244e+00
C     5.303571938503425e+00   1.707701788823142e+00   3.404943249424049e+00  7.44198130e-01   2.33996409e+00   6.55271582e+00
C     3.456885133266425e+00   1.808374895263118e+00   5.376423531819436e+00  7.45371317e+00  -1.54474830e-01  -2.30427120e+00
C     5.327202112397960e+00   1.001427470282980e-02   5.326764304648795e+00 -7.31616620e-01   2.18882520e-01   5.82960000e-01
C     4.504746241787768e+00   8.977770010286167e-01   4.437186300438539e+00 -3.90908649e+00   4.61168880e-01  -1.08741804e+00
C     6.253084252613081e+00   2.661168234099398e+00   4.480552298895241e+00 -7.32848080e-01   5.63435620e-01  -4.03283398e+00
C     4.579536586289158e+00   2.724614673446887e+00   6.098514303941776e+00 -5.33154855e+00  -3.05398287e+00   4.26225288e+00
C     6.206414259322602e+00   8.836530628722602e-01   6.233027767106525e+00  7.74147610e-01  -2.84266647e+00  -1.63969370e-01
C     7.095454511361655e+00   3.607168418760964e+00   3.555489759808207e+00  2.23337095e+00  -2.01265960e+00  -1.05635620e-01
C     1.840648058052859e+00   5.357253679866273e+00   3.528922670023992e+00 -1.69103115e+00   7.43256000e-01   9.17297010e-01
C     7.080830495673982e+00   5.350397606249282e+00   5.364278720688940e+00  8.72268290e-01   1.50858258e+00  -1.66042394e+00
C     1.761150729345184e+00   3.586771297642458e+00   5.411426684316388e+00 -9.73437190e-01  -3.00179653e+00  -3.09889258e+00
C     9.333890610071977e-01   4.483233169402148e+00   4.413172484975203e+00 -1.69409366e+00   1.73516350e-01   1.94423006e+00
C     2.633272437959054e+00   6.339729171349392e+00   4.512911331430232e+00  3.16860898e+00  -5.41153729e+00  -2.08655474e+00
C     8.466235123390252e-01   6.383369270582322e+00   6.180933265430498e+00  1.61410537e+00  -7.43044318e+00  -1.30588745e+00
C     2.715841173912378e+00   4.328261879189719e+00   6.281925753298790e+00 -2.78997803e+00   4.47804565e+00  -3.04742080e+00
C     3.486667007180534e+00   3.521192900182778e+00   3.519917009406715e+00  1.68084224e+00  -5.61913510e-01   3.66824877e+00
C     5.301025914773621e+00   5.378795683531957e+00   3.513678373378498e+00  4.50484800e-02  -1.93367720e-01   1.65766068e+00
C     3.518361188947875e+00   5.357562540829112e+00   5.370384855719520e+00  1.34927749e+00  -1.29715259e+00  -5.64872090e-01
C     5.362209245611579e+00   3.660293144127308e+00   5.232775816672214e+00 -1.28724944e+00  -3.04764227e+00   2.92405981e+00
C     4.323290674914648e+00   4.432070013257793e+00   4.417143889608770e+00  3.41230596e+00   1.83189643e+00  -8.99940820e-01
C     6.143835402955885e+00   6.252234511773086e+00   4.469881703531907e+00  3.19336360e+00  -2.47599064e+00  -1.62785275e+00
C     4.480157781439831e+00   6.201272808325782e+00   6.241059218403731e+00 -2.11122072e+00   2.14674481e+00  -7.67889630e-01
C     6.189178964585471e+00   4.451313010879717e+00   6.323289806693023e+00  1.83171288e+00   1.24027936e+00  -5.86148919e+00
