64
Lattice="7.10842262195238 0 0 0 7.10842262195238 0 0 0 7.10842262195238 " PBC="1 1 1" Properties=species:S:1:pos:R:3:force:R:3 Energy="-506.99517089"
C     4.290252930187900e-02   8.591950420794000e-03   7.092708883124680e+00 -1.76047485e+00  -1.12580424e+00  -4.09386740e-01
C     1.730945762116732e+00   1.753728327698058e+00   4.336066713973800e-03  2.54566052e+00   9.22659300e-02   4.06149560e-01
C     7.108095348222575e+00   1.834526071239836e+00   1.729883195103495e+00 -6.46983200e-01  -2.77146520e+00   8.76928650e-01
C     1.700833844140376e+00   2.874013457914820e-02   1.796014201337652e+00  3.50211312e+00  -8.61118060e-01  -1.12475973e+00
C     8.610019320251778e-01   8.716588081328556e-01   8.518200536111500e-01  4.68400030e-01   1.34160220e+00   1.51385063e+00
C     2.705981223064629e+00   2.673879728681161e+00   9.305654533740811e-01 -1.06366499e+00  -1.31492885e+00  -1.78937588e+00
C     9.877903879918672e-01   2.669626190753806e+00   2.539907571898926e+00 -2.75478050e+00  -7.23500570e-01   3.86424881e+00
C     2.710669298866744e+00   7.901111260046679e-01   2.681826731917643e+00 -2.01875414e+00   3.18898046e+00  -3.55951120e-01
C     3.520636666112764e+00   7.108086889199657e+00   7.037812383420301e+00  1.72200385e+00  -1.13559834e+00   3.05557639e+00
C     5.289905071921535e+00   1.761458879465761e+00   7.031240433455433e+00  9.72754750e-01  -3.82699310e-01   2.10444564e+00
C     3.590509972519446e+00   1.702831879570406e+00   1.772058035181764e+00 -1.64402120e+00   8.65773540e-01  -2.24571560e-01
C     5.390140868201929e+00   1.392682159710400e-02   1.770970659773583e+00 -2.98913943e+00  -1.86032364e+00  -2.08735600e-01
C     4.464546405850239e+00   7.603022400846028e-01   8.311613425402273e-01 -1.40858860e-01   5.10417675e+00   6.52860810e-01
C     6.148903139610134e+00   2.636497244964843e+00   9.098254930326121e-01  3.86113060e-01   9.59846830e-01  -1.13837512e+00
C     4.327805020867931e+00   2.724095261006044e+00   2.652493257302403e+00  2.11815716e+00  -2.64089549e+00   1.69173762e+00
C     6.183449362701072e+00   8.444835217092741e-01   2.683949164743522e+00  1.58997945e+00   3.54880827e+00  -1.59826500e+00
C     1.241486010583000e-03   3.522436874141278e+00   3.114676214137540e-02 -7.15393030e-01   2.16913640e-01  -6.70497800e-02
C     1.782442232197739e+00   5.378797034132255e+00   1.051534741331360e-02 -7.66633460e-01   1.91181390e-01  -2.59880290e-01
C     7.234817482606221e-02   5.283169699320633e+00   1.850880703498575e+00 -1.87961543e+00  -3.26480820e-01  -2.58563275e+00
C     1.799537064503898e+00   3.600421814852322e+00   1.738763249893077e+00  1.69659083e+00  -1.71985563e+00   1.14515630e+00
C     9.242154283634089e-01   4.389085097337748e+00   8.633007248162595e-01 -5.35347130e-01   2.93631829e+00   8.62432250e-01
C     2.650801097297712e+00   6.293176822453273e+00   9.065347909491355e-01 -4.97577970e-01  -2.59032101e+00  -5.89200110e-01
C     8.867893700164304e-01   6.241280290347214e+00   2.648495338252463e+00  1.55394981e+00  -1.80795208e+00   1.30579510e+00
C     2.693401518638241e+00   4.427930139008131e+00   2.679548411383706e+00 -1.25427430e+00   1.06275091e+00   5.36120390e-01
C     3.589384140544891e+00   3.571132483541553e+00   3.742740894727640e-02 -1.68039656e+00   6.64137390e-01  -7.12342650e-01
C     5.430586797730562e+00   5.372783095343055e+00   4.718485634084560e-02 -3.36883752e+00  -1.70746114e+00   2.86041160e-01
C     3.586761488019242e+00   5.290220899138542e+00   1.796379432091868e+00 -1.31874900e+00   2.72960703e+00  -8.41459300e-02
C     5.220902689454254e+00   3.546498387120395e+00   1.806067572364892e+00  4.20341617e+00  -9.95877100e-02  -3.76692680e-01
C     4.467479198854799e+00   4.449289456212481e+00   8.996424643767833e-01  1.74876720e-01   6.73077000e-01   3.06647940e-01
C     6.228353979233875e+00   6.205425406651933e+00   9.289807016351783e-01  2.73120537e+00   3.99075450e-01   6.32599050e-01
C     4.384687684936564e+00   6.234829396819563e+00   2.715511485271263e+00  2.95771051e+00  -1.13146856e+00  -2.75047234e+00
C     6.285753070205851e+00   4.354514634525676e+00   2.711651611788603e+00 -3.13111328e+00   3.09114046e+00  -1.66150437e+00
C     8.767130387841279e-02   4.097138412870360e-02   3.474693153614048e+00 -3.54241718e+00  -2.86313560e-01   2.55428620e+00
C     1.875301262904228e+00   1.793999461114466e+00   3.522479809013903e+00 -1.12013057e+00   1.37253117e+00  -7.42588160e-01
C     7.013564345431636e+00   1.804426735171518e+00   5.269389950987537e+00  3.28946041e+00  -4.52642380e-01   9.68319350e-01
C     1.709312983894191e+00   5.633069505219000e-02   5.227719382409929e+00  1.77576485e+00  -9.54290510e-01   2.82030958e+00
C     9.061642288779548e-01   1.018706481819224e+00   4.333380725402606e+00 -1.05146352e+00  -3.07400134e+00   1.53822552e+00
C     2.695390313118864e+00   2.709025902641227e+00   4.506551994385927e+00 -1.42872258e+00  -7.79231610e-01  -4.19079140e-01
C     9.059759267627511e-01   2.605219972184165e+00   6.245952087861530e+00 -2.88193618e+00   2.54881067e+00  -1.32469731e+00
C     2.649621383479697e+00   8.926468524237627e-01   6.228311257613929e+00 -1.36960390e+00  -2.92841830e-01  -1.25344938e+00
C     3.505458477797635e+00   7.047551491083511e+00   3.605838930478345e+00  2.07545717e+00   6.46759330e-01  -1.58209615e+00
C     5.192180254847430e+00   1.787003351571862e+00   3.526583145971299e+00  4.29526421e+00   5.82881480e-01  -1.25811799e+00
C     3.505586571573247e+00   1.772987461439329e+00   5.408308006060315e+00  9.37824670e-01   4.64423620e-01  -3.16046998e+00
C     5.423965515312711e+00   7.033567233431637e+00   5.322624785820264e+00 -1.80315864e+00   2.21530554e+00  -5.27818930e-01
C     4.481232148434618e+00   8.526757655261455e-01   4.323391898852757e+00 -2.94227104e+00  -6.95370340e-01   6.31638989e+00
C     6.135089128680010e+00   2.688846654676023e+00   4.406799073254110e+00 -1.90738860e-01  -2.04103639e+00   8.88082340e-01
C     4.351186115633861e+00   2.686606506371557e+00   6.212008659008768e+00  3.20380119e+00  -6.29594120e-01  -3.33583830e-01
C     6.268326132394885e+00   8.886735285160876e-01   6.210640500907096e+00 -1.89016728e+00  -3.55518100e-01  -1.52012009e+00
C     7.059293610072584e+00   3.477401249379590e+00   3.595691515019843e+00  2.97584886e+00   1.28998953e+00  -2.23898588e+00
C     1.815791041498338e+00   5.287384212007805e+00   3.608474378164710e+00 -1.10104299e+00   8.69448890e-01  -1.55418860e+00
C     1.262896579514440e-02   5.268456757265983e+00   5.308707276256792e+00 -8.53693070e-01   1.05020689e+00   3.53635610e-01
C     1.717007851380341e+00   3.565371604597626e+00   5.385656022202519e+00  2.72807117e+00  -7.88840990e-01   4.83913700e-02
C     8.813372809511165e-01   4.365531694407510e+00   4.454074775236039e+00 -4.49939240e-01   9.95323410e-01   2.60824430e-01
C     2.682416659910876e+00   6.194877786999926e+00   4.505515159862574e+00 -2.04915900e+00   1.31664475e+00  -1.24866670e+00
C     8.573931280294561e-01   6.217656371864584e+00   6.128156426267177e+00  1.05191189e+00   9.87145410e-01   1.79166766e+00
C     2.669788049536863e+00   4.553841273455061e+00   6.291755422266179e+00 -1.89981800e-02  -3.92172634e+00  -1.25588846e+00
C     3.536218328495803e+00   3.611039025961780e+00   3.648416391613812e+00  4.21989270e-01  -1.64289520e-01  -2.28268538e+00
C     5.377493136171067e+00   5.431526460116700e+00   3.495018124242962e+00 -1.46497376e+00  -3.86655669e+00   2.05668698e+00
C     3.536753805971768e+00   5.361079361836130e+00   5.377460010921658e+00  2.12839560e+00   5.53794340e-01   1.22235905e+00
C     5.279440336477276e+00   3.548759789608495e+00   5.259410934060901e+00 -1.29602170e-01   2.57628715e+00   3.65097622e+00
C     4.455311427519240e+00   4.597419031821613e+00   4.483823879321870e+00 -9.46570900e-02  -4.28135308e+00  -1.68200286e+00
C     6.234544846662085e+00   6.163977189533881e+00   4.404491537103206e+00  2.69883055e+00   2.31264997e+00   9.70211290e-01
C     4.521991132895436e+00   6.209667997608454e+00   6.277308903891327e+00 -2.10121047e+00   6.43829720e-01  -2.39087717e+00
C     6.248863200177098e+00   4.484335045992474e+00   6.323863385314230e+00  4.54141720e-01  -2.71383427e+00  -3.95299020e+00
