64
Lattice="7.10842262195238 0 0 0 7.10842262195238 0 0 0 7.10842262195238 " PBC="1 1 1" Properties=species:S:1:pos:R:3:force:R:3 Energy="-510.96313942"
C     4.729716941824160e-02   3.076667478388400e-03   7.088011424204706e+00 -8.07341460e-01  -3.38686220e-01   1.22734679e+00
C     1.785609389896080e+00   1.767355529281729e+00   7.105447531880851e+00 -6.65365320e-01   3.32944050e-01  -5.57117400e-02
C     7.084586515102163e+00   1.754447060309167e+00   1.798302900168614e+00  9.96040010e-01   2.82101530e-01   2.72506800e-01
C     1.813725973643002e+00   7.077126438815152e+00   1.797242181345257e+00 -1.89917553e+00   1.11627044e+00   8.43148500e-02
C     8.930683818851288e-01   8.953059000732262e-01   9.371857406127658e-01  6.58366830e-01  -7.65598020e-01  -1.67606146e+00
C     2.661504178152420e+00   2.660063869561155e+00   8.685848418550628e-01 -3.60894500e-01  -7.13485320e-01   4.28489900e-01
C     8.582693122015973e-01   2.655696952293011e+00   2.705268461528521e+00  2.01221627e+00  -4.97574340e-01  -1.98513617e+00
C     2.678811836631822e+00   8.651648375641283e-01   2.679399347761365e+00  2.76505160e-01   9.34385050e-01  -1.45507912e+00
C     3.511792935362769e+00   7.075939047900706e+00   7.074379602146331e+00  2.22644905e+00   7.36730050e-01   1.26680640e-01
C     5.312395481333179e+00   1.758933754498458e+00   4.275026688935860e-02  7.46771870e-01  -1.09087802e+00  -2.51145761e+00
C     3.538362513094900e+00   1.785227098927576e+00   1.754237361841877e+00  3.31116110e-01  -1.29849025e+00   6.36737660e-01
C     5.339439688443647e+00   7.086957742719743e+00   1.765571954962145e+00  7.38372060e-01  -7.15844160e-01   6.17806970e-01
C     4.457330788217130e+00   8.399379697806890e-01   8.698374880891592e-01 -1.14714312e+00   7.87262020e-01   6.80369060e-01
C     6.212047044490916e+00   2.599657915820919e+00   8.970969382365613e-01 -1.10115245e+00   1.56179843e+00   7.83157050e-01
C     4.371082377294563e+00   2.681629970779521e+00   2.673028423988190e+00  2.09122509e+00  -4.97129790e-01   2.07141320e-01
C     6.215286352678850e+00   9.151494883223134e-01   2.684539519242113e+00 -6.92019620e-01  -1.43667047e+00  -8.74732200e-02
C     7.057310857751188e+00   3.542620742581185e+00   6.354517533768039e-02  5.63908070e-01   1.80532040e-01  -1.89852456e+00
C     1.735808065357265e+00   5.389490234279520e+00   5.540276156337520e-02  8.60023560e-01  -3.56833704e+00  -2.27199626e+00
C     1.281470887820500e-02   5.318884547090299e+00   1.814743260004150e+00 -1.10844437e+00  -1.26808544e+00  -7.55010890e-01
C     1.794372368965111e+00   3.487301576067821e+00   1.763238188731773e+00 -1.37637994e+00   2.51721401e+00   8.73631650e-01
C     8.392051624927932e-01   4.397076883636736e+00   9.147113962362428e-01  1.80632718e+00   1.31391286e+00   3.72906650e-01
C     2.657223272797977e+00   6.182914311730466e+00   8.978229925229682e-01 -3.49231090e-01   2.62222472e+00  -6.31241470e-01
C     8.761042734709512e-01   6.192498455780559e+00   2.692655347515819e+00  6.90316960e-01   1.40346781e+00  -6.22722440e-01
C     2.684159645137300e+00   4.479730636324596e+00   2.655300515563493e+00 -1.22010040e+00  -1.59423230e+00  -3.08260320e-01
C     3.515842319392478e+00   3.570892503193902e+00   2.677991595745700e-02  7.95019530e-01   1.19407170e-01  -4.72533590e-01
C     5.335629929340459e+00   5.396905598588251e+00   7.052228264493661e+00 -3.16624620e-01  -2.10535907e+00   2.29312115e+00
C     3.542678960562443e+00   5.399900305953832e+00   1.754400926646363e+00  2.36691550e-01  -3.67287775e+00   1.14597516e+00
C     5.290480356564172e+00   3.505315882839878e+00   1.789361286439142e+00 -2.35971230e-01   1.85838237e+00  -8.44812060e-01
C     4.374084050914310e+00   4.499695778600485e+00   9.137187050173597e-01  2.29468138e+00  -1.74629244e+00  -2.02329025e+00
C     6.282532954758990e+00   6.158750935055204e+00   9.039597648550404e-01 -1.74887493e+00   2.93320065e+00  -1.42975216e+00
C     4.447366485725319e+00   6.147904264063572e+00   2.646756049405801e+00  1.60815106e+00   2.65334254e+00   4.13948050e-01
C     6.173581805841120e+00   4.404527790058568e+00   2.626485813631061e+00  1.82175748e+00  -3.63744090e-01   2.06195593e+00
C     2.954758030455400e-02   5.142737621314020e-02   3.577616146897481e+00  8.70117100e-02  -7.61155520e-01  -6.76950900e-01
C     1.835095669144376e+00   1.843608147400279e+00   3.562599248691600e+00 -1.79862808e+00  -2.90405584e+00  -4.02385200e-01
C     3.470694452637620e-02   1.775543365876576e+00   5.336157374298862e+00 -3.47501900e-01   1.22807375e+00   1.80498080e-01
C     1.721204095421379e+00   3.569274057531780e-02   5.283282509987612e+00  4.33982394e+00  -1.76128470e+00   1.29186553e+00
C     9.679969852064770e-01   9.457314862865297e-01   4.461962778564774e+00 -2.65070936e+00   2.16569670e-01  -1.55002396e+00
C     2.692141337476167e+00   2.660816722600840e+00   4.419995504427009e+00 -3.26582280e-01   1.79214095e+00   2.11040327e+00
C     8.459492784535182e-01   2.731364476145708e+00   6.221578230792490e+00  2.01581204e+00  -2.25385579e+00   1.00250839e+00
C     2.692342505836313e+00   8.345384119585370e-01   6.177445731124673e+00 -2.72477100e+00   2.03968800e+00   8.82198220e-01
C     3.589163281854087e+00   7.056153890885557e+00   3.498962090365217e+00 -1.26493220e+00   1.38220115e+00   8.17633180e-01
C     5.293831622408370e+00   1.773590042424827e+00   3.564358014616240e+00 -1.11180880e-01   2.76615320e-01  -1.54714400e-02
C     3.524019493353395e+00   1.759389546556853e+00   5.309893956328975e+00  1.13567222e+00  -6.76680960e-01   5.60173140e-01
C     5.384605539507735e+00   2.636066119132940e-02   5.259391101561792e+00 -2.10235467e+00   1.46326680e-01   1.51706284e+00
C     4.370686935744212e+00   8.455307345296526e-01   4.401421906963210e+00  3.74783252e+00   1.57102193e+00   4.54060080e-01
C     6.224383427611022e+00   2.640529853117169e+00   4.502334140740124e+00 -1.33441750e+00   8.89541390e-01  -2.12196046e+00
C     4.393606693882104e+00   2.634432532530638e+00   6.272397552534716e+00  1.16453796e+00   9.33812080e-01  -1.32075481e+00
C     6.280856077862933e+00   8.478873187966350e-01   6.157981874811947e+00 -1.45972439e+00   1.80071670e+00   2.25388607e+00
C     3.674130399599400e-03   3.521736125839399e+00   3.521629641668551e+00 -9.65615950e-01   1.20475198e+00   2.22042939e+00
C     1.777748896162884e+00   5.324003961976997e+00   3.521097220814313e+00  1.98797540e-01   2.43636020e-01   8.92648320e-01
C     3.100054188808200e-03   5.408126528030826e+00   5.331938170052762e+00  1.15567021e+00  -3.74782012e+00   8.05850620e-01
C     1.838758354983558e+00   3.570931741686764e+00   5.384274500266321e+00 -3.07333339e+00  -1.23091990e-01  -2.55246747e+00
C     9.085884142440533e-01   4.451111131677308e+00   4.411906759243485e+00 -2.52786900e-01   9.79336300e-02   1.20897432e+00
C     2.677077168259863e+00   6.254936209958269e+00   4.369588897702100e+00 -1.13579173e+00  -1.48304234e+00   1.61196850e+00
C     9.204800233608252e-01   6.241380945611512e+00   6.212531483492469e+00 -8.59639970e-01   1.89539560e-01   1.73132660e-01
C     2.672751906348272e+00   4.436670939798589e+00   6.221830224374370e+00  2.98545090e-01   2.18979437e+00   7.99733490e-01
C     3.535837601380276e+00   3.586595506351065e+00   3.580693951723488e+00  8.65440770e-01   6.52188850e-01  -8.31029880e-01
C     5.379450156002579e+00   5.268091313259089e+00   3.573296856060890e+00 -1.15477316e+00   2.26622451e+00  -8.70884570e-01
C     3.589239128723443e+00   5.390015759963816e+00   5.290046387363221e+00 -1.77787945e+00   2.75034800e-02   1.34893483e+00
C     5.291240389110702e+00   3.559632193090012e+00   5.368774158238054e+00  8.29171970e-01  -3.95385190e-01   2.51648380e-01
C     4.432667547263231e+00   4.527716114305132e+00   4.473127053879068e+00  1.24554316e+00  -3.94153806e+00  -9.34321640e-01
C     6.276565149632596e+00   6.256997794686522e+00   4.474089960807174e+00 -1.14974020e+00  -7.01660590e-01  -2.53414318e+00
C     4.474415881984300e+00   6.293353822176512e+00   6.150194526747510e+00 -3.47032900e-01  -1.66839691e+00   1.46978509e+00
C     6.191141315733948e+00   4.419545825612068e+00   6.265131607269457e+00  1.13586300e-02   1.59035467e+00  -1.24841151e+00
