64
Lattice="7.10842262195238 0 0 0 7.10842262195238 0 0 0 7.10842262195238 " PBC="1 1 1" Properties=species:S:1:pos:R:3:force:R:3 Energy="-503.35267311"
C     1.252241054007060e-02   7.071392642961407e+00   7.054545183762424e+00 -8.30769280e-01  -2.70655730e-01   3.31465016e+00
C     1.763162910536227e+00   1.702843608467729e+00   2.202224869789100e-02  9.37542410e-01   3.39986976e+00   8.11319250e-01
C     7.084709490813489e+00   1.809614106578462e+00   1.802266769874205e+00  1.15031868e+00  -1.61649489e+00  -9.12632280e-01
C     1.861277980012170e+00   7.083734926072287e+00   1.703607621730927e+00 -4.53252030e+00  -5.57485240e-01   2.64339381e+00
C     8.709731296869303e-01   8.426114475280710e-01   9.344576701796622e-01  5.98795550e-01   8.71991610e-01  -2.16148587e+00
C     2.622087832556067e+00   2.688274568823566e+00   8.602064995339997e-01 -1.50689690e-01  -3.34926615e+00   2.94166781e+00
C     7.962375200397149e-01   2.678770465612173e+00   2.730659889295614e+00  2.47168733e+00  -4.24005640e-01  -1.42053929e+00
C     2.604043741493233e+00   8.863460176976210e-01   2.631216184547766e+00  3.25317286e+00  -9.88747200e-02  -1.19818070e+00
C     3.580085257494538e+00   7.054119033826355e+00   3.230770972367380e-02  2.97018870e-01   2.10919895e+00  -2.03724533e+00
C     5.242109175572274e+00   1.769119768691787e+00   9.188204910159599e-02  4.22939804e+00   2.55642737e+00  -4.13928180e+00
C     3.504838907682076e+00   1.687648146685634e+00   1.750028891313932e+00  1.13886498e+00   4.49519116e+00   9.03304050e-01
C     5.264160213381776e+00   8.289828242598760e-02   1.767081570673955e+00  3.98978912e+00  -5.40531277e+00   6.41370870e-01
C     4.455747031657394e+00   9.126180368588791e-01   9.498302738534480e-01 -3.43801894e+00  -1.51578708e+00  -1.96869759e+00
C     6.306261367054134e+00   2.724745681675774e+00   9.021129966583644e-01 -2.28007360e+00  -2.49128798e+00  -7.97825880e-01
C     4.568642502118650e+00   2.583417160492553e+00   2.704424052005491e+00 -4.70649360e+00   1.18879349e+00  -1.58106896e+00
C     6.216612855423969e+00   8.465490871541937e-01   2.619828207173622e+00  2.87247930e-01   1.62526776e+00   1.97544929e+00
C     5.129245835181260e-02   3.649602645180638e+00   6.391040609189600e-03 -1.85677926e+00  -2.57866369e+00   1.45616455e+00
C     1.822547597198648e+00   5.309705227708414e+00   7.104243009667892e+00 -2.42612911e+00   6.44400670e-01  -8.13622800e-02
C     7.084120273662518e+00   5.434292489526594e+00   1.837299635577707e+00 -1.22019640e-01  -2.91350440e+00  -2.14901378e+00
C     1.786402760944698e+00   3.499554008716784e+00   1.879244233847315e+00 -1.42745539e+00   3.20002816e+00  -3.02892668e+00
C     8.722812216174628e-01   4.538851671592040e+00   9.659673883800148e-01  5.99777590e-01  -2.33699772e+00  -1.62335886e+00
C     2.616460165452039e+00   6.195342748923499e+00   8.226488642843250e-01  4.51537683e+00   7.88033260e-01   1.28412195e+00
C     9.335880968405577e-01   6.177332991541920e+00   2.624631439422182e+00 -8.39499580e-01   2.33153219e+00   2.25909218e+00
C     2.696742264016962e+00   4.505809661811720e+00   2.696542943846697e+00 -2.98459230e+00  -2.09697187e+00  -2.19304223e+00
C     3.449317435460946e+00   3.510405300183119e+00   7.095652907436979e+00  3.09513585e+00   2.08812370e+00   1.15396898e+00
C     5.268859236154728e+00   5.255710786834513e+00   3.154120851255920e-02  1.03811534e+00   1.04683933e+00   1.54676790e-01
C     3.572467942899172e+00   5.366318127138618e+00   1.746788872283736e+00 -2.51831389e+00  -2.16071045e+00   1.19632653e+00
C     5.410953974212158e+00   3.429678001109505e+00   1.808035041577656e+00 -2.32621295e+00   5.07786953e+00   3.82131920e-01
C     4.362009826420430e+00   4.382342616314226e+00   9.804224368620109e-01  2.35603483e+00  -6.03481190e-01  -3.14728625e+00
C     6.179156657365081e+00   6.202602367692627e+00   8.983102038093430e-01  2.36887250e-01   1.12733185e+00  -8.45417740e-01
C     4.436036939585111e+00   6.145387598119187e+00   2.629134411899273e+00  1.48115326e+00   4.72077406e+00  -1.25672110e-01
C     6.243448359246313e+00   4.502766617172325e+00   2.702779873853486e+00 -2.37440026e+00  -1.17911741e+00  -1.10513878e+00
C     1.096836718688620e-02   5.603569551346000e-04   3.515751260498716e+00  2.39586850e-01  -2.15110051e+00   3.17950140e-01
C     1.734910200496132e+00   1.713888106860875e+00   3.536215982716339e+00 -1.06151488e+00   1.55101536e+00   5.74285190e-01
C     6.241500722532660e-02   1.666001435954757e+00   5.345668230511744e+00 -2.04947805e+00   3.77255451e+00   6.14246870e-01
C     1.819251279461301e+00   6.661402355118680e-02   5.374062469246203e+00  2.32205938e+00  -2.73811818e+00  -2.46969977e+00
C     9.411015573814451e-01   7.587908472671384e-01   4.417282788186765e+00 -1.51100471e+00   4.64409940e+00   1.39128847e+00
C     2.575511315023041e+00   2.697118797163144e+00   4.327928707421519e+00  1.46461975e+00  -1.96436434e+00   3.57242261e+00
C     9.338801108417872e-01   2.717439929243842e+00   6.335732247478618e+00 -5.41926150e-01  -2.67420088e+00  -4.17237723e+00
C     2.788032679103896e+00   9.471502563572556e-01   6.246217160941029e+00 -4.15104577e+00  -1.96327111e+00  -6.56793500e-01
C     3.651536065049052e+00   7.243240963410920e-02   3.427024782366590e+00 -3.69504070e+00  -2.43858903e+00   2.99662030e+00
C     5.390835645428807e+00   1.719589132886342e+00   3.567836165804206e+00 -3.64681390e-01   9.61215040e-01   1.10602575e+00
C     3.545776740056013e+00   1.816549083686535e+00   5.294594213987044e+00  2.35079810e-01   1.10905373e+00  -4.56048000e-01
C     5.341930977319279e+00   2.117001990997920e-02   5.416932299804030e+00 -9.39263990e-01  -1.46838303e+00  -3.22874932e+00
C     4.435981920394032e+00   9.297285787790285e-01   4.449613955705084e+00  1.64167949e+00  -1.34960170e+00  -3.59325150e-01
C     6.267347444768563e+00   2.603992987355726e+00   4.457886737950240e+00 -1.09978643e+00   2.48536225e+00  -3.02913140e-01
C     4.368824955523129e+00   2.780212347958503e+00   6.166702914187519e+00  1.32956656e+00  -3.48741576e+00   9.04125780e-01
C     6.188487670485676e+00   8.200927465943991e-01   6.259675110982118e+00  1.55672557e+00   3.25498908e+00   3.05290090e-01
C     7.058064279464682e+00   3.671555657842210e+00   3.529350383813038e+00  3.49102963e+00  -4.27591806e+00   3.47965051e+00
C     1.746428688509580e+00   5.306944956120841e+00   3.631435080816894e+00  4.00724967e+00   3.65961777e+00  -6.01999231e+00
C     8.477455057653660e-02   5.374384125369758e+00   5.302805010786954e+00 -2.38309137e+00  -4.01058160e-01   1.61079971e+00
C     1.810969967109001e+00   3.578860405192886e+00   5.368137314655528e+00 -1.95062212e+00  -1.25928121e+00  -1.65097573e+00
C     9.668633339670396e-01   4.511886510141106e+00   4.453776150401773e+00 -4.06722455e+00  -3.14288085e+00   2.43294321e+00
C     2.726907210826063e+00   6.279135981757345e+00   4.246425026429349e+00 -8.48967970e-01  -7.56194040e-01   6.73854800e+00
C     9.588136140236992e-01   6.239806856506540e+00   6.198195358920906e+00 -5.93698230e-01  -6.62445770e-01   5.32376970e-01
C     2.665841168961334e+00   4.400769993524730e+00   6.246275023501156e+00  1.14293620e-01   2.69210378e+00  -2.05898537e+00
C     3.419572525344461e+00   3.537618616667717e+00   3.455298959842998e+00  6.21608812e+00  -1.59846600e-02   2.97521334e+00
C     5.260965688256348e+00   5.260936614807832e+00   3.564183787177824e+00  2.28167873e+00   3.77935917e+00  -1.18399462e+00
C     3.574714346615544e+00   5.342298127347601e+00   5.218296101963727e+00 -1.80403527e+00   2.47005422e+00   3.63883586e+00
C     5.273852618708372e+00   3.643615931650074e+00   5.243915283591564e+00  1.31979220e+00  -3.80911602e+00   3.35769115e+00
C     4.365953508205781e+00   4.505542953795018e+00   4.410994748621339e+00  1.64697413e+00  -4.26594021e+00  -1.14000816e+00
C     6.236017143155140e+00   6.230008038093322e+00   4.489149580633001e+00 -6.99749500e-01  -2.09884040e-01  -1.70312595e+00
C     4.461349534945348e+00   6.232104525176639e+00   6.218498293439697e+00 -1.13473870e+00  -1.96980760e+00   2.92994700e-01
C     6.154063570095349e+00   4.383894740393303e+00   6.259128686535319e+00  2.21103554e+00   2.96129134e+00  -2.04283173e+00
