64
Lattice="7.10842262195238 0 0 0 7.10842262195238 0 0 0 7.10842262195238 " PBC="1 1 1" Properties=species:S:1:pos:R:3:force:R:3 Energy="-511.90515839"
C     7.096079057373048e+00   7.106439299004794e+00   7.078566107648380e+00  1.57362114e+00   8.48725400e-02   1.27037036e+00
C     1.773627574896260e+00   1.812504391215755e+00   2.980383894000500e-02  1.92240050e-01  -1.21656156e+00  -9.29168400e-01
C     7.101575858416642e+00   1.816995705879749e+00   1.737956657178386e+00  1.67373100e-02  -1.09559234e+00   2.13706104e+00
C     1.766535999237870e+00   7.075747831332230e+00   1.819530569386041e+00  6.07761730e-01   2.18618267e+00  -1.66843022e+00
C     8.968791361674846e-01   9.495956248227618e-01   9.035171233784930e-01 -5.63167650e-01  -2.39407869e+00  -6.40973850e-01
C     2.706937021570114e+00   2.667087133278168e+00   9.028251184364360e-01 -1.26333051e+00   4.50213570e-01  -1.08761999e+00
C     9.161959192162036e-01   2.671561885317458e+00   2.636365739146373e+00 -6.98313450e-01  -1.63478140e-01   5.09009730e-01
C     2.680169616436468e+00   8.826696126027831e-01   2.676460086092221e+00 -4.34532940e-01   4.02620270e-01   2.82872680e-01
C     3.475383523618903e+00   7.101694142569039e+00   1.910935927666740e-02  2.19746162e+00  -4.53697490e-01  -1.04053820e-01
C     5.351941911063477e+00   1.753786332426637e+00   7.089783127458515e+00 -1.55257197e+00  -3.35338750e-01   6.57609790e-01
C     3.584481887969234e+00   1.797839928603373e+00   1.758518480448998e+00 -1.80794057e+00  -1.42266897e+00   3.39152670e-01
C     5.343373276268877e+00   7.094435163557947e+00   1.802380860057256e+00 -4.72915850e-01   5.33218200e-01  -8.51994880e-01
C     4.396730987792047e+00   8.424643031798370e-01   8.970222287148252e-01  1.85674024e+00   1.48525589e+00  -5.78637860e-01
C     6.197886924463424e+00   2.664879541549301e+00   8.993030371966785e-01  3.15879910e-01  -4.59105040e-01  -1.18069817e+00
C     4.389269489820511e+00   2.696994897356877e+00   2.593156978998024e+00  2.69880783e+00  -5.91798060e-01   3.03968834e+00
C     6.196430195415907e+00   9.208958660840951e-01   2.677557626544749e+00  1.41080274e+00  -1.14306248e+00  -4.60366950e-01
C     7.061041073605258e+00   3.495742188171036e+00   2.240930230955000e-02  2.36632255e+00   2.85741418e+00  -1.47090490e+00
C     1.775461547932220e+00   5.359086586638839e+00   4.784011073795720e-02  2.03595240e-01  -8.61973220e-01  -1.81631523e+00
C     1.790085634704120e-02   5.292077192621528e+00   1.788805549958711e+00 -1.11619287e+00   1.56185502e+00  -5.95866410e-01
C     1.807039293737046e+00   3.574573742016121e+00   1.755353526361669e+00 -1.76588450e-01  -2.85629270e-01   7.02299140e-01
C     8.893462696328445e-01   4.484091653601966e+00   8.783540892301811e-01 -3.26588000e-03  -2.68228765e+00   5.78425470e-01
C     2.687851902014581e+00   6.197703527159828e+00   9.480199007805863e-01 -2.08640285e+00   1.29672169e+00  -1.47988815e+00
C     8.799477264973590e-01   6.203733246647243e+00   2.627419362773746e+00  1.81006610e-01   9.46035100e-02   1.91978114e+00
C     2.689878228966638e+00   4.444769992194912e+00   2.668104206386637e+00 -3.86711410e-01  -3.70397000e-03  -2.13620580e-01
C     3.568869730453154e+00   3.540952893381854e+00   7.103431156720462e+00 -3.84929700e-01   1.04259557e+00   4.86707980e-01
C     5.371718964476841e+00   5.371617953791411e+00   7.108032651935067e+00 -1.15624714e+00  -4.31779720e-01  -1.53624770e-01
C     3.542569348685642e+00   5.347236988299752e+00   1.789733483447525e+00  1.97996762e+00  -1.39774207e+00  -2.47504390e-01
C     5.358802107565587e+00   3.579385148950694e+00   1.733368312545628e+00 -2.19804628e+00  -6.86608800e-01   1.08895524e+00
C     4.453190771799016e+00   4.465074490566679e+00   8.516651610822602e-01  4.22701690e-01   3.13498800e-02   7.51792570e-01
C     6.255729154501530e+00   6.250432029049333e+00   9.000961949926181e-01 -8.31596830e-01  -1.12886863e+00   7.18852900e-02
C     4.461734313861768e+00   6.202937245482255e+00   2.662594112592744e+00 -8.43890050e-01   5.58827710e-01   5.06499070e-01
C     6.205816583148712e+00   4.403588198756656e+00   2.654499111997314e+00  1.10630322e+00   1.28381210e+00   5.18093170e-01
C     4.537455435221020e-02   2.716298885244880e-02   3.526607456776659e+00 -1.47859353e+00  -4.95988330e-01   8.86198850e-01
C     1.791935459522523e+00   1.809078486934046e+00   3.573746037286248e+00  1.34978876e+00   2.84938360e-01  -1.94452638e+00
C     6.287527758997159e-02   1.770232663337174e+00   5.305244479261685e+00 -2.57701400e+00   7.26259580e-01   1.06454792e+00
C     1.773766828895386e+00   2.237020598514000e-03   5.289178022455961e+00 -1.17643973e+00  -8.26617630e-01   1.25945631e+00
C     9.540017094995427e-01   9.697856065061216e-01   4.419019304748604e+00 -2.08672720e+00  -3.29984152e+00   8.45216000e-02
C     2.667353414789513e+00   2.695511653892988e+00   4.481862381184107e+00  1.24077758e+00  -9.59281310e-01  -1.82986788e+00
C     8.910901078699828e-01   2.658615883873461e+00   6.220125198124737e+00 -7.42034300e-02   1.36748450e-01   5.28412920e-01
C     2.579382704150345e+00   8.305048797112703e-01   6.239405088460058e+00  2.52806682e+00   2.08427334e+00  -4.82487460e-01
C     3.534876116136695e+00   7.085879323924063e+00   3.537752965855235e+00  1.10435502e+00   2.26682140e-01   1.14245264e+00
C     5.305084326500056e+00   1.707923713777338e+00   3.591491645683269e+00  1.17099340e+00   4.60910830e+00  -2.39649735e+00
C     3.546137847925109e+00   1.762077951991737e+00   5.306301004115697e+00 -1.57486850e-01  -9.11588200e-02   1.75080611e+00
C     5.324266333855900e+00   1.000041327872080e-02   5.308729809956497e+00  3.12750800e-01  -4.06103830e-01   1.35770885e+00
C     4.490909839326391e+00   9.019632932779872e-01   4.444355926577297e+00 -3.55937023e+00  -1.74910336e+00   3.26149820e-01
C     6.160501881714962e+00   2.730715832581633e+00   4.437837929540113e+00  1.74519136e+00  -4.04728788e+00   4.61967390e-01
C     4.405388193532493e+00   2.655739816081409e+00   6.233551515685166e+00  1.30261282e+00  -7.38346610e-01  -6.81398920e-01
C     6.236848188843643e+00   8.429634566162134e-01   6.214618587457927e+00 -6.32662400e-02   1.92640198e+00  -1.07498799e+00
C     7.104497349029236e+00   3.482606960516895e+00   3.539546918471845e+00 -6.79998120e-01   2.73043908e+00   2.08580200e-02
C     1.776276386417151e+00   5.306355383548738e+00   3.490864815074548e+00 -8.49454940e-01  -5.39031000e-03   2.80812388e+00
C     7.087493504532612e+00   5.295938416704487e+00   5.356970551393318e+00  1.19450894e+00   3.41379830e-01  -1.69211114e+00
C     1.792256475888042e+00   3.526858952768954e+00   5.324640734475295e+00 -8.94093460e-01   2.15467357e+00   1.52722450e+00
C     8.726429692445946e-01   4.398785393013453e+00   4.430841891081736e+00  2.78280800e-01   4.89686360e-01  -4.77667750e-01
C     2.617288794276853e+00   6.165381103001330e+00   4.471774463222935e+00  1.57929193e+00   1.89172628e+00  -2.11201557e+00
C     8.794063490306198e-01   6.188284582851423e+00   6.194647971696621e+00  9.92428900e-02   1.52966688e+00   7.58925680e-01
C     2.676127056492474e+00   4.466152198520097e+00   6.256252831995946e+00 -2.82333560e-01  -9.63025460e-01  -8.43622300e-01
C     3.590425097953363e+00   3.589290451534759e+00   3.579244260014365e+00 -1.38324067e+00  -7.27106180e-01  -1.36071920e+00
C     5.316364611271508e+00   5.348949904898493e+00   3.575879701419867e+00  1.21691807e+00  -1.02853445e+00  -1.26563623e+00
C     3.553860011754119e+00   5.355600900522896e+00   5.345222674581922e+00 -1.45244750e-01  -9.22240810e-01  -6.45445000e-03
C     5.294054400373281e+00   3.541219174893200e+00   5.373324401725569e+00  1.08438199e+00   1.79840725e+00  -1.41191444e+00
C     4.465545778986385e+00   4.482182757791590e+00   4.423418423171217e+00 -1.22017372e+00  -1.15699089e+00   2.06536030e+00
C     6.183056338014413e+00   6.200249337636955e+00   4.467918641541168e+00  2.11071710e+00   9.91425140e-01  -9.64805250e-01
C     4.442079383149015e+00   6.247367019384041e+00   6.215875711998274e+00 -4.71078140e-01  -7.66902700e-02   2.87393640e-01
C     6.256382916129892e+00   4.453736129982422e+00   6.231689535464083e+00 -2.35926213e+00  -1.55161217e+00   8.08701660e-01
