64
Lattice="7.10842262195238 0 0 0 7.10842262195238 0 0 0 7.10842262195238 " PBC="1 1 1" Properties=species:S:1:pos:R:3:force:R:3 Energy="-511.24561531"
C     9.186925394088000e-03   4.585956202757280e-02   9.853553267391601e-03 -6.50340080e-01  -7.60253360e-01  -3.54275630e-01
C     1.794072535698999e+00   1.790549174943170e+00   1.630153234176740e-02  1.95392530e-01  -1.22636985e+00   1.12298550e-01
C     9.894568865909000e-03   1.853347823737298e+00   1.737559722859285e+00 -1.17930912e+00  -1.64827821e+00   9.49801660e-01
C     1.700514604880512e+00   3.753247143360000e-04   1.791615367251944e+00  2.00809364e+00   4.43919520e-01   7.48789140e-01
C     8.649174644569524e-01   9.288299319914082e-01   9.208048071903329e-01  1.34624511e+00  -7.38032190e-01  -1.21521309e+00
C     2.673726826510605e+00   2.677624943306960e+00   8.878130539579366e-01  7.94032610e-01  -6.05626620e-01  -2.55275330e-01
C     8.411726317055568e-01   2.720033010731392e+00   2.633766188994239e+00  2.34766965e+00  -7.52416070e-01   2.81661900e-01
C     2.682994503585656e+00   9.041010802967260e-01   2.716048242263299e+00 -4.89873710e-01  -5.49552260e-01  -2.19023451e+00
C     3.520659768486278e+00   7.079878820053616e+00   6.892475849227020e-02  1.04417540e+00  -5.09730170e-01  -3.11976311e+00
C     5.310737441757064e+00   1.798385002449875e+00   7.092651233817232e+00  5.45817750e-01  -2.04833859e+00  -5.31968650e-01
C     3.590728627599238e+00   1.779096084417826e+00   1.767964081342227e+00 -1.35739564e+00  -1.12420816e+00  -5.88005640e-01
C     5.349254998397344e+00   4.166154088087939e-02   1.776045647018905e+00 -3.79269050e-01  -4.73671410e-01   2.91862990e-01
C     4.442158286640097e+00   8.202648415060293e-01   8.145322540841303e-01  3.70628960e-01   3.37771417e+00   3.84077952e+00
C     6.218725549710858e+00   2.653282718718580e+00   8.014224034987429e-01 -3.77977460e-01   7.91862490e-01   3.30320619e+00
C     4.437467865058516e+00   2.679302744297959e+00   2.602660229198702e+00  1.14592923e+00  -1.00030318e+00   2.90953711e+00
C     6.243628344507052e+00   9.799308894378380e-01   2.664095909039672e+00 -1.37901429e+00  -1.96058480e+00   1.19774860e-01
C     1.476589980316880e-02   3.529874274560132e+00   6.950615637836000e-03 -5.52304800e-01   1.62306680e-01  -1.26610783e+00
C     1.734851627093744e+00   5.352135117990289e+00   7.099209322357992e+00  6.90734050e-01  -8.58144410e-01  -1.86131120e-01
C     7.085310081440653e+00   5.328170279558805e+00   1.806880918081072e+00 -4.84722070e-01  -2.60151250e-01  -1.77974410e+00
C     1.794934360857448e+00   3.536675400070270e+00   1.746211739451218e+00 -4.58008130e-01   2.05488540e+00   6.97764750e-01
C     8.560948457221393e-01   4.411446915384197e+00   8.772898872797410e-01  1.23113788e+00   1.73299871e+00   6.16686990e-01
C     2.630203802998226e+00   6.236088440634019e+00   9.119968318061171e-01 -2.96848910e-01  -6.93399330e-01   3.25302780e-01
C     7.985520935290131e-01   6.215342082712191e+00   2.667429972501130e+00  3.28866855e+00  -1.24334625e+00  -3.05355500e-02
C     2.719025249656555e+00   4.455153478368624e+00   2.642732966539785e+00 -1.89886976e+00  -9.42122720e-01   6.18501860e-01
C     3.593057702270681e+00   3.583153181613103e+00   5.512297404905200e-03 -1.22423626e+00  -7.67055600e-01  -6.25011560e-01
C     5.427104381489024e+00   5.348325287802874e+00   7.100878095652263e+00 -2.85244040e+00  -6.01748350e-01   1.00998384e+00
C     3.594644302199465e+00   5.367066786208956e+00   1.774630004654133e+00 -9.93080550e-01  -8.67209800e-01   2.20673500e-01
C     5.351549241797948e+00   3.517841278917448e+00   1.760247106661729e+00 -8.65851440e-01   1.50488352e+00  -1.07495863e+00
C     4.469878149320596e+00   4.465755193116770e+00   8.862039914136733e-01  4.74449350e-01  -1.90319960e-01  -4.24592540e-01
C     6.224124752111879e+00   6.263945424786857e+00   9.204003379432549e-01  1.22077553e+00  -9.55441460e-01  -1.12011032e+00
C     4.471636488739880e+00   6.219692010850274e+00   2.687177810297526e+00 -1.58993150e-01   7.46132910e-01  -3.82424620e-01
C     6.174577553681729e+00   4.439722869966260e+00   2.616941192410735e+00  1.48118742e+00  -6.64150790e-01   2.59323022e+00
C     8.300220756469200e-03   1.197364031380660e-02   3.494894153352469e+00 -8.30733400e-01   1.21515186e+00   2.63609884e+00
C     1.817662262668827e+00   1.883916600035441e+00   3.502105434847781e+00 -1.87543033e+00  -3.79394697e+00   1.57352827e+00
C     2.566197433200960e-02   1.764041440487833e+00   5.352590057037969e+00 -9.06293210e-01   9.73379580e-01  -5.20363420e-01
C     1.735861165274236e+00   6.194279471068000e-03   5.295612779864264e+00  2.25305261e+00  -5.07509410e-01   8.93453720e-01
C     9.137780603462368e-01   8.986300828272429e-01   4.416770342000088e+00 -7.57442490e-01   9.29387370e-01  -5.22102260e-01
C     2.674905402981001e+00   2.630542661504522e+00   4.446159617732895e+00  4.75555800e-01   2.16757790e+00   6.39584310e-01
C     8.928080714487844e-01   2.632380046583339e+00   6.253790261147699e+00  1.25764442e+00   4.79847810e-01  -7.75474850e-01
C     2.700223471826655e+00   8.359051483756843e-01   6.243273705302540e+00 -2.42147703e+00   1.10670599e+00  -2.04425510e-01
C     3.564578588970139e+00   7.053149729317892e+00   3.587599286709235e+00 -6.64536570e-01   2.15279425e+00  -5.00539670e-01
C     5.292493675102834e+00   1.765073654536483e+00   3.625082496774078e+00  1.97797193e+00   2.11034637e+00  -2.97546552e+00
C     3.533974697064253e+00   1.728734331839650e+00   5.364131718509158e+00  7.12700210e-01   5.33972030e-01  -1.00575040e+00
C     5.369378658497659e+00   2.614691092314600e-03   5.362915893904233e+00 -1.54170624e+00   4.83058740e-01  -4.79932190e-01
C     4.419535234062364e+00   9.243344944422940e-01   4.435559111416594e+00  5.77048940e-01  -3.30725443e+00   1.61559138e+00
C     6.220128041493784e+00   2.720131675637357e+00   4.498235992931241e+00 -4.31128950e-01  -3.19081958e+00  -2.27660664e+00
C     4.463889658684378e+00   2.602910232422248e+00   6.202938098492969e+00 -1.80369240e+00   3.08132890e+00  -9.31869600e-02
C     6.196221989717367e+00   9.352479135223276e-01   6.239500056986261e+00  1.67185116e+00  -1.74069055e+00  -7.05284720e-01
C     7.071011276087845e+00   3.515517464478744e+00   3.553874086430907e+00  4.51530810e-01   1.37056908e+00  -1.06364370e-01
C     1.743214330885043e+00   5.246145053599006e+00   3.544567952789482e+00  7.51333740e-01   2.00171677e+00   5.78641720e-01
C     7.094547832056474e+00   5.309427146215519e+00   5.251191038480038e+00  1.26998882e+00  -8.54343410e-01   3.52980220e+00
C     1.804791255083471e+00   3.536285503089563e+00   5.370148642835857e+00 -1.30144778e+00  -1.14172486e+00  -6.58387810e-01
C     8.683736506190225e-01   4.326106321114429e+00   4.489207656445806e+00  5.06882660e-01   3.00458626e+00  -2.74172183e+00
C     2.644029258488769e+00   6.207999366482635e+00   4.470404528015608e+00 -1.10931380e-01  -6.79889230e-01  -1.39460183e+00
C     8.895446657081686e-01   6.208091989229374e+00   6.146365077313663e+00 -1.23732777e+00   7.56295800e-01   2.08196550e+00
C     2.633147329720942e+00   4.450191088537602e+00   6.216355032935541e+00  1.60153916e+00  -1.39233730e-01   9.60197820e-01
C     3.588510373236440e+00   3.538601711516063e+00   3.559391644068551e+00 -8.75878490e-01   1.00055208e+00  -6.66499450e-01
C     5.351497208144370e+00   5.313206978859478e+00   3.562062278446885e+00 -1.10584916e+00   1.26674906e+00  -1.07690810e-01
C     3.526566299009689e+00   5.318973828878406e+00   5.332155687784934e+00  4.82321670e-01   9.43174870e-01   1.05289049e+00
C     5.315206151637128e+00   3.548036720859590e+00   5.295738456776186e+00 -7.45700100e-02   7.79358530e-01   2.88599823e+00
C     4.412789269911758e+00   4.484053765709401e+00   4.459929201021645e+00  1.39047295e+00  -2.07071513e+00  -9.40657340e-01
C     6.255450433250600e+00   6.235625469068777e+00   4.470960193411813e+00 -1.38566123e+00  -2.44895100e-01  -2.34671276e+00
C     4.469975819047395e+00   6.204466267187818e+00   6.252980825063960e+00 -5.66076400e-01  -1.50259470e-01  -7.68221880e-01
C     6.232893489003233e+00   4.391257786711551e+00   6.251857623205773e+00 -5.11197900e-02   2.09483691e+00  -2.15167546e+00
