64
Lattice="7.10842262195238 0 0 0 7.10842262195238 0 0 0 7.10842262195238 " PBC="1 1 1" Properties=species:S:1:pos:R:3:force:R:3 Energy="-511.7916035"
C     4.379584477253440e-02   3.477006731924179e-02   1.685236401059120e-02 -1.22830936e+00  -1.21136073e+00  -5.65249550e-01
C     1.795147968957179e+00   1.739699002646774e+00   2.657419820683420e-02 -1.46468630e-01   1.40513635e+00  -7.78498030e-01
C     7.099493232757434e+00   1.747537957859431e+00   1.787736158859758e+00 -5.39721500e-01   1.00665298e+00   1.50732470e-01
C     1.747801893591312e+00   7.101197761417484e+00   1.774454639868097e+00  5.51503640e-01  -9.41645800e-02   1.37968473e+00
C     8.790406917710470e-01   8.838316264484746e-01   9.264394405485284e-01  1.01347093e+00   3.80875140e-01  -1.18813260e+00
C     2.691933131777627e+00   2.678216435153170e+00   9.079741754454592e-01 -1.05363962e+00  -1.29776487e+00  -1.17249763e+00
C     8.608331780721790e-01   2.675917215856731e+00   2.671397112081126e+00  1.04439361e+00  -4.08451520e-01  -8.28512810e-01
C     2.659245334696462e+00   8.641967414875106e-01   2.670943879054875e+00  9.70686900e-02   6.41380610e-01  -1.15157017e+00
C     3.495239907028706e+00   7.089967591025503e+00   7.096931712666318e+00  3.22916607e+00  -2.55068270e-01   1.33139770e-01
C     5.289165724884828e+00   1.772520793494326e+00   3.861366251410200e-03  1.67475245e+00  -1.15498922e+00  -1.66902656e+00
C     3.568149860494427e+00   1.752358037069601e+00   1.775136053260450e+00 -1.09139875e+00  -8.65992070e-01  -1.07900684e+00
C     5.371631815215520e+00   7.103716630972881e+00   1.752391162319010e+00 -1.06445011e+00  -4.64691000e-01   7.70109250e-01
C     4.492728671422170e+00   8.487424620378209e-01   8.480147017299854e-01 -2.42609453e+00   5.52094800e-01   1.20090631e+00
C     6.152397071496317e+00   2.628907937554600e+00   8.779644765863789e-01  1.63850989e+00   5.90626800e-01   1.23531808e+00
C     4.357725793360035e+00   2.640254614993323e+00   2.611740457169264e+00  2.93117745e+00   3.22756230e-01   3.13353925e+00
C     6.230197904061503e+00   8.621293278527098e-01   2.678468002229693e+00 -1.47208384e+00   1.62751310e+00  -5.28066420e-01
C     7.091248955286985e+00   3.528130151986089e+00   2.331150330848040e-02 -7.34508000e-02   7.41075270e-01  -6.78280250e-01
C     1.739014461548468e+00   5.415960507347649e+00   4.069429781497600e-02  7.93939080e-01  -3.73279853e+00  -2.11980292e+00
C     1.830525450989300e-02   5.295017733806744e+00   1.816546737907070e+00 -1.83168202e+00  -7.97562600e-02  -1.11273127e+00
C     1.771017219941744e+00   3.566724977180248e+00   1.723334063175236e+00 -2.65729340e-01  -2.06783320e-01   1.79127247e+00
C     8.613923265954683e-01   4.436477875040229e+00   8.487288138663907e-01  7.94818710e-01   6.31111380e-01   2.05019020e+00
C     2.644831372897209e+00   6.210509137257080e+00   9.033364272754926e-01  1.72842020e-01   8.06234730e-01   2.05857360e-01
C     8.401945127530448e-01   6.224853436514655e+00   2.682516817585592e+00  1.83487527e+00  -6.07048590e-01   1.40958420e-01
C     2.655945462747806e+00   4.427262018366077e+00   2.669927730041346e+00 -2.09389620e-01   2.33954410e-01  -7.78957720e-01
C     3.550422947248897e+00   3.560858822497319e+00   7.100255397830750e+00 -3.45045020e-01  -4.92792100e-02   2.52165200e-01
C     5.371763960792026e+00   5.404883807800035e+00   7.085645670072544e+00 -8.44689570e-01  -2.72794617e+00   1.11420335e+00
C     3.572381646648565e+00   5.321288899957287e+00   1.758638470622823e+00 -8.91129770e-01  -9.60537000e-02   4.90420920e-01
C     5.266706237111582e+00   3.497943879909128e+00   1.798279868879325e+00  1.18783895e+00   1.86098487e+00  -1.47191313e+00
C     4.440234960731804e+00   4.455984239720223e+00   8.619479209074474e-01  4.88886920e-01  -2.45674130e-01   2.23970570e-01
C     6.244711454861661e+00   6.210673270735375e+00   9.270806913530785e-01  4.56545250e-01   4.78936700e-01  -1.57952702e+00
C     4.449358123574990e+00   6.212572783427891e+00   2.622921508360941e+00  7.97734510e-01   2.97095490e-01   1.07007070e+00
C     6.183097566865609e+00   4.387894720885803e+00   2.678172362932926e+00  1.17531387e+00   4.20217340e-01   7.08356910e-01
C     7.086553344556892e+00   5.287912936482279e-02   3.543505172523565e+00  1.72416430e+00  -1.01422435e+00   1.31736017e+00
C     1.840524513667723e+00   1.844960311551055e+00   3.514276689310423e+00 -2.58261826e+00  -2.63663198e+00   7.08320390e-01
C     2.898878720239580e-02   1.860541263091833e+00   5.345492652473030e+00 -7.29732080e-01  -2.31467507e+00  -1.60804680e-01
C     1.719943203417044e+00   4.262352371404400e-03   5.295007853099301e+00  3.10677073e+00   2.47884960e-01   5.73157000e-01
C     9.013741472112415e-01   9.768928206942762e-01   4.438191004891650e+00 -9.39544800e-02  -1.20961469e+00  -9.28783370e-01
C     2.678030194480526e+00   2.642421830881708e+00   4.416346395675032e+00  2.14945600e-01   2.12124593e+00   1.93186120e+00
C     8.839889358410552e-01   2.683952434617927e+00   6.225755282092455e+00  1.52799733e+00  -1.93605980e-01   1.13019681e+00
C     2.697829923762048e+00   8.328223676538428e-01   6.203876339194584e+00 -2.90675715e+00   1.87436348e+00   1.66662050e-01
C     3.547066279003507e+00   7.085108557659376e+00   3.516160279136271e+00  3.70303780e-01   3.81322030e-01   7.42085410e-01
C     5.299109697287946e+00   1.755479629778948e+00   3.564695735774916e+00  6.23766570e-01   1.44541994e+00  -6.00357970e-01
C     3.531945811080052e+00   1.768975823133732e+00   5.344071607707066e+00  6.96297720e-01  -1.03997001e+00  -1.12092864e+00
C     5.403723286723094e+00   7.069505712176928e+00   5.292292435658461e+00 -2.66514878e+00   3.20469066e+00   1.69578333e+00
C     4.424295033848716e+00   9.099894843424554e-01   4.402369886203814e+00  8.29057940e-01  -1.91532851e+00   1.18558346e+00
C     6.200196664225341e+00   2.712611462094981e+00   4.532293725219733e+00 -8.71148700e-02  -2.18962307e+00  -2.84693704e+00
C     4.402320482666605e+00   2.614775895796456e+00   6.228640875170818e+00  6.71434220e-01   2.32025424e+00  -3.36692390e-01
C     6.291863470290002e+00   8.910049489669952e-01   6.181701188326136e+00 -1.88787197e+00   4.35288940e-01   1.45851507e+00
C     7.092908629800302e+00   3.483513781990528e+00   3.610143577964339e+00 -2.74318110e-01   2.76591069e+00  -1.29162512e+00
C     1.754180423376690e+00   5.288231962489466e+00   3.551392251757361e+00  8.65102640e-01   1.34322876e+00  -4.97978000e-03
C     2.170563955439620e-02   5.386232870698131e+00   5.280850007767048e+00  6.33262170e-01  -2.91366660e+00   3.13068498e+00
C     1.804212487313751e+00   3.591982340096727e+00   5.345258358863475e+00 -1.37154521e+00  -1.20917518e+00  -1.32963010e-01
C     8.803511294810440e-01   4.429831926395886e+00   4.457217408876342e+00  4.53026330e-01   3.89873390e-01  -6.78623030e-01
C     2.702977914507679e+00   6.197889838916698e+00   4.427230528053872e+00 -2.05317764e+00   2.16264110e-01  -1.32059940e-01
C     9.036948339439930e-01   6.229063755232481e+00   6.218942640937673e+00 -8.38130650e-01   1.21792568e+00  -3.03870750e-01
C     2.638845725630039e+00   4.458851421984001e+00   6.237329642307697e+00  1.55383036e+00   6.03916710e-01  -1.53737240e-01
C     3.538367204653829e+00   3.529850532428581e+00   3.557778600807620e+00  8.01087290e-01   1.41180022e+00  -3.47143410e-01
C     5.385610030708166e+00   5.353449820753858e+00   3.571981371370833e+00 -1.34966676e+00  -4.56320190e-01  -7.86571080e-01
C     3.597974456028482e+00   5.336661290378395e+00   5.334695740439738e+00 -1.67621151e+00   5.78080660e-01   2.98133140e-01
C     5.326721156523491e+00   3.563754296283124e+00   5.363150045345336e+00 -4.84780870e-01   5.55136370e-01   4.20072900e-01
C     4.481809139098683e+00   4.517581422923119e+00   4.469959682928049e+00 -4.73511020e-01  -3.12175084e+00  -8.49845140e-01
C     6.276477716034370e+00   6.252566261856761e+00   4.478145813501466e+00 -9.73921940e-01  -6.53215010e-01  -3.05629963e+00
C     4.442631778670815e+00   6.247514305900728e+00   6.197540673197603e+00  1.09567355e+00  -5.96457980e-01   5.98541100e-01
C     6.248147453103490e+00   4.423786141873350e+00   6.246589642286318e+00 -1.12071400e+00   1.85005616e+00  -9.73188870e-01
