64
Lattice="7.10842262195238 0 0 0 7.10842262195238 0 0 0 7.10842262195238 " PBC="1 1 1" Properties=species:S:1:pos:R:3:force:R:3 Energy="-500.46160503"
C     7.063480470995764e+00   1.064100299996734e-01   8.485679502625000e-02  3.26961201e+00  -2.41926786e+00  -2.34061410e+00
C     1.796473760860035e+00   1.729880138481768e+00   7.105860246898168e+00 -2.72194320e-01   2.23192734e+00   1.33571763e+00
C     7.021437776494000e+00   1.854198133251102e+00   1.724468922846519e+00  3.21907426e+00  -1.35795890e+00   2.56764553e+00
C     1.690852126013146e+00   7.076532743357929e+00   1.838289554511769e+00  2.22369160e+00   1.67901769e+00  -1.66479830e+00
C     9.627044802289824e-01   9.639584770633765e-01   9.197443016196551e-01 -5.38602909e+00  -1.34607400e+00   5.21648200e-01
C     2.657540095194150e+00   2.656297045330591e+00   8.910058730619357e-01  2.46334430e+00   6.16153030e-01  -6.58147120e-01
C     8.312528279393467e-01   2.824346553647749e+00   2.662555016268334e+00  1.80325435e+00  -5.08427241e+00  -2.46055793e+00
C     2.687989734329182e+00   8.462862176857062e-01   2.616823121511016e+00 -1.47776260e+00   7.05075810e-01   3.58572891e+00
C     3.538568088677071e+00   5.767134355832200e-03   1.679009422844000e-04 -1.43332996e+00  -3.60883735e+00   2.17151879e+00
C     5.269715303490853e+00   1.757917036811119e+00   7.092547237594301e+00  5.55967800e-02  -1.66977734e+00   6.57672570e-01
C     3.643884345688205e+00   1.674902318422616e+00   1.772841383354488e+00 -4.64366102e+00   2.70519524e+00   5.06850510e-01
C     5.309856566025993e+00   5.281231019219480e-02   1.821019641756479e+00  1.58104370e+00  -1.81227810e-01  -8.38424130e-01
C     4.398469352543768e+00   8.428207194900037e-01   9.322009592504907e-01  1.77906545e+00  -6.96298440e-01  -4.28876543e+00
C     6.035105041644591e+00   2.559123059925310e+00   9.152637206738168e-01  6.71368265e+00   3.39085920e+00  -3.74825733e+00
C     4.521732812817425e+00   2.560709162264510e+00   2.552619706238724e+00 -2.70920545e+00   4.36046494e+00   3.78405929e+00
C     6.201358038312996e+00   9.669716663277683e-01   2.672404517734833e+00  7.80382410e-01  -1.10376547e+00   6.27125130e-01
C     9.169275180722540e-02   3.525707175051836e+00   7.040900353290655e+00 -1.42474139e+00   8.22967410e-01   1.18053703e+00
C     1.677445214446469e+00   5.368656513843693e+00   4.138026059780599e-02  4.05446671e+00  -7.22485310e-01  -1.94582268e+00
C     7.075163945498222e+00   5.296019310553902e+00   1.750667369833660e+00 -1.22259840e-01   2.37976900e-02   1.57279925e+00
C     1.821541044555656e+00   3.676319011839872e+00   1.715239418000937e+00 -7.12194390e-01  -5.48236360e+00   2.39296375e+00
C     9.512575740313178e-01   4.414741384931663e+00   8.728343279815249e-01 -4.64247163e+00   1.81278558e+00  -1.24143339e+00
C     2.554146097827917e+00   6.208135208438904e+00   9.673038429168009e-01  3.46873928e+00  -3.39988910e-01  -1.67276719e+00
C     8.198234795455536e-01   6.143642835787109e+00   2.621905999105448e+00  4.82527590e-01   1.80625051e+00   2.26293810e+00
C     2.648752663151306e+00   4.358945385428949e+00   2.701269334046736e+00  2.43574981e+00   3.96275497e+00  -2.28352415e+00
C     3.584840721143092e+00   3.600446125657682e+00   7.001668186924388e+00  7.89363750e-01  -2.01811810e+00   4.32048502e+00
C     5.423994375508547e+00   5.339088034776636e+00   3.278816800855960e-02  2.84272636e+00   5.30299938e+00  -5.44757806e+00
C     3.599700309956392e+00   5.362091814469897e+00   1.811859301862989e+00 -2.37424770e-01  -5.53553470e-01  -1.58407554e+00
C     5.328218901169525e+00   3.555957565100829e+00   1.644601032067664e+00 -5.18986680e-01  -5.03524620e-01   4.91682994e+00
C     4.683307969812287e+00   4.542905533928000e+00   7.897893987968868e-01 -1.01827932e+01  -5.18271966e+00   4.21984461e+00
C     6.263087438176624e+00   6.330172607979064e+00   9.510014575643191e-01 -1.42358266e+00  -2.79864040e+00  -1.16833992e+00
C     4.525336214411955e+00   6.263218090984378e+00   2.634006595847247e+00 -4.57255327e+00  -2.01044864e+00   3.45952372e+00
C     6.094038485639093e+00   4.357155555697458e+00   2.760650182160941e+00  2.96015187e+00   2.29260973e+00  -3.73309545e+00
C     7.036304331561468e+00   3.606031710899800e-02   3.496382941386002e+00  3.23036301e+00  -1.21020609e+00   1.59953430e+00
C     1.820531222038259e+00   1.880455153640632e+00   3.536212286336577e+00 -9.40435800e-01  -1.55445103e+00  -4.40508940e-01
C     3.512172098625320e-02   1.894314445222846e+00   5.352336144181983e+00 -3.42013530e-01  -4.08299459e+00  -1.14378139e+00
C     1.806908854181969e+00   6.453509427174160e-02   5.239072173092105e+00 -2.10761092e+00  -4.32468730e+00   2.89129765e+00
C     9.317372057587620e-01   9.417762177723094e-01   4.397843455932077e+00 -1.54265388e+00   7.74545630e-01  -4.52259350e-01
C     2.711367203799576e+00   2.714917434392909e+00   4.523731772342396e+00  4.02592570e-01  -2.08119153e+00  -2.86937729e+00
C     9.973773043267826e-01   2.683166811749965e+00   6.179785255177367e+00 -3.05956664e+00  -1.99074431e+00   2.88567651e+00
C     2.541286037213396e+00   7.448985015197414e-01   6.349863720562952e+00  4.87938695e+00   4.11208368e+00  -5.10552928e+00
C     3.457219655634922e+00   7.017026644837159e+00   3.605951741145325e+00  4.35561489e+00   3.38625733e+00  -3.36070859e+00
C     5.394959170306444e+00   1.851195109031057e+00   3.614828668228955e+00 -2.99339247e+00  -2.78389135e+00  -2.03003583e+00
C     3.559908923982609e+00   1.756967280464862e+00   5.397315683489199e+00 -1.18686913e+00  -6.93121290e-01  -2.06165460e+00
C     5.302469137818159e+00   2.724516221793600e-02   5.332950267265398e+00  2.56445719e+00  -2.25396692e+00   9.99998700e-01
C     4.430509287987346e+00   8.606556807593576e-01   4.476730881978956e+00 -1.04175520e+00   1.10889107e+00  -3.99828170e-01
C     6.177401019146394e+00   2.740392315041560e+00   4.488723288528479e+00  9.17177110e-01  -2.86540619e+00   1.40331344e+00
C     4.418693525739930e+00   2.623188571798774e+00   6.202100370887202e+00 -5.35384850e-01  -5.48822500e-02   2.77258497e+00
C     6.256617707329030e+00   8.705709351350908e-01   6.245527359609985e+00 -2.19902949e+00   2.97089258e+00  -7.01999370e-01
C     7.047431429825459e+00   3.477991177372823e+00   3.556896943150063e+00 -2.55981350e-01   4.45697026e+00   1.35025992e+00
C     1.736780924077038e+00   5.259639114427004e+00   3.520943181296138e+00 -1.77318000e-02  -4.04450460e-01   1.04184914e+00
C     2.104327673466460e-02   5.251620316122060e+00   5.243228681050698e+00  1.22941512e+00   3.24171423e+00   5.81599930e-01
C     1.823576896794024e+00   3.548093446072097e+00   5.403970304409138e+00  9.04352100e-02   3.00760970e-01  -4.19705779e+00
C     8.711429499033222e-01   4.322312484877910e+00   4.420331164143126e+00  9.76187190e-01   2.94401838e+00   2.37065720e-01
C     2.646938522614456e+00   6.114283699766211e+00   4.398594887287238e+00 -8.50673580e-01   2.50629129e+00   1.57941429e+00
C     8.859515713264372e-01   6.193274197941079e+00   6.189289642725664e+00 -1.14513178e+00   1.23815991e+00  -2.26186990e-01
C     2.697219097006312e+00   4.382403606580306e+00   6.198081197653628e+00 -5.68395040e-01   4.76982997e+00   6.37619380e-01
C     3.576335706730940e+00   3.563849620230457e+00   3.504615561043355e+00  7.23030020e-01  -1.47425121e+00   2.41042636e+00
C     5.272426526962348e+00   5.358711830598313e+00   3.628648863486758e+00  4.00436869e+00   2.39226710e-01  -3.33113354e+00
C     3.598060823363315e+00   5.349252226112521e+00   5.313211741502633e+00 -3.58350122e+00  -1.74003745e+00   5.72993650e-01
C     5.280886189638183e+00   3.501980113356990e+00   5.500830168618842e+00  3.48318918e+00   4.22457456e+00  -7.53050328e+00
C     4.459753409730252e+00   4.546083638597175e+00   4.452971832382320e+00 -1.83949434e+00  -4.75060597e+00   9.84038270e-01
C     6.290078403201668e+00   6.208106988001102e+00   4.433984382553585e+00 -3.23439285e+00   1.18513504e+00  -4.43957820e-01
C     4.400978199223270e+00   6.169978119909684e+00   6.210603892530604e+00  2.27177952e+00   3.00388170e+00   1.44539757e+00
C     6.318161506278050e+00   4.475597443992196e+00   6.113431399894072e+00 -2.87943597e+00  -2.88652998e+00   5.89353863e+00
