64
Lattice="7.10842262195238 0 0 0 7.10842262195238 0 0 0 7.10842262195238 " PBC="1 1 1" Properties=species:S:1:pos:R:3:force:R:3 Energy="-510.95917578"
C     7.064204534923838e+00   7.963942607584859e-02   7.098967138399328e+00  1.63993251e+00  -2.28687081e+00   1.92463475e+00
C     1.802054085869414e+00   1.735117339931279e+00   2.729634286080000e-03 -1.25868738e+00   1.29331594e+00  -1.08589398e+00
C     7.097391627609832e+00   1.830158016624072e+00   1.836153118093328e+00  5.84642380e-01  -8.39836710e-01  -1.21847149e+00
C     1.788367884377997e+00   2.565735385730660e-02   1.717514255407790e+00 -5.60246140e-01  -7.09419090e-01   1.96012520e+00
C     8.468391107970897e-01   9.589030379802587e-01   9.257267500966472e-01  1.27788005e+00  -1.87001021e+00  -1.51068401e+00
C     2.680163645361467e+00   2.645891807383661e+00   8.079480776323554e-01  5.24975580e-01  -8.66838400e-02   1.46198795e+00
C     9.532848961625418e-01   2.631537343081738e+00   2.693094861286414e+00 -8.21229850e-01   1.62808630e+00  -5.86970050e-01
C     2.663129376816030e+00   9.007134193287125e-01   2.652564910202412e+00  5.17643680e-01   4.54100500e-02  -2.55804180e-01
C     3.557379320709055e+00   7.106321938947337e+00   7.072414052207676e+00  1.13215528e+00  -8.35752160e-01  -3.22450500e-02
C     5.365685619693890e+00   1.730937374178040e+00   1.099488871168142e-01 -1.83991772e+00   1.40259240e+00  -3.12898588e+00
C     3.555064747219757e+00   1.747298190764459e+00   1.753503275037909e+00 -3.54482440e-01   7.09218640e-01  -9.47049890e-01
C     5.329154867175901e+00   7.063636429788048e+00   1.835726399483449e+00  9.71405630e-01   2.93509250e-01  -1.21804810e+00
C     4.478447637125912e+00   8.280548907710612e-01   9.124475058002253e-01 -1.23729405e+00   5.63849670e-01   1.91112240e-01
C     6.155387229471421e+00   2.688703704297135e+00   9.385826167418219e-01  2.32784952e+00  -6.27915770e-01  -2.83436870e-01
C     4.341100827789058e+00   2.685681345167564e+00   2.608213471117899e+00  2.90667552e+00  -5.06507000e-01   1.47393938e+00
C     6.259686555542537e+00   9.166637245088258e-01   2.665482477955929e+00 -2.24203750e+00  -9.26773110e-01   1.02255852e+00
C     7.100551250380195e+00   3.484499364786791e+00   7.089094179138184e+00 -2.29945650e-01   2.13344842e+00   1.86181303e+00
C     1.688740640158101e+00   5.310795588654096e+00   1.662610291859660e-02  2.25319426e+00   6.56788730e-01  -5.68751940e-01
C     7.079259676443414e+00   5.295902874591386e+00   1.796997154017546e+00  2.29169725e+00   6.55287630e-01  -3.65596320e-01
C     1.828147399286005e+00   3.462432901700204e+00   1.750383743771122e+00 -9.90675730e-01   3.19004533e+00   1.69926580e-01
C     8.901002600201477e-01   4.397521515471617e+00   8.847622611378850e-01 -1.13617239e+00  -7.67856590e-01   9.93781420e-01
C     2.666934870865648e+00   6.208737434003270e+00   8.244247615074796e-01 -1.67609913e+00   1.36581114e+00   6.39268680e-01
C     9.743450198588158e-01   6.213104493439867e+00   2.673653894094524e+00 -3.47328289e+00   7.65645630e-01  -5.67823140e-01
C     2.688720053669161e+00   4.498628804365222e+00   2.631005490901309e+00 -1.82576602e+00  -2.57549847e+00   1.16382658e+00
C     3.517958852227583e+00   3.614829805576574e+00   7.029931417429959e+00  1.97310290e+00  -2.40502516e+00   3.09140036e+00
C     5.343773267209704e+00   5.359646374920165e+00   4.000193745178801e-03  7.10482980e-01  -1.21593125e+00   1.90949660e-01
C     3.487915530529511e+00   5.383403931748050e+00   1.740049163545035e+00  2.36348098e+00  -1.35680646e+00   2.61167560e-01
C     5.275621905098490e+00   3.587295472726457e+00   1.776982394951769e+00 -1.97629100e-02  -5.48246010e-01  -5.86358860e-01
C     4.440194371638644e+00   4.484153923384117e+00   8.812349907496148e-01 -1.27228905e+00  -4.26766100e-02  -9.61459440e-01
C     6.256491959332882e+00   6.193906705385807e+00   9.425856538560489e-01 -1.79293338e+00   1.80978616e+00  -1.84219237e+00
C     4.390654850304923e+00   6.187972167677274e+00   2.654095211424046e+00  1.15491693e+00   1.04858003e+00   1.48280781e+00
C     6.182035852863086e+00   4.440514606077675e+00   2.641021400541342e+00  1.35858522e+00  -1.03277806e+00   1.22237222e+00
C     7.104093732792872e+00   3.108456344345040e-02   3.581140431748250e+00  1.26666631e+00  -1.20744216e+00  -1.77921340e+00
C     1.815235376102132e+00   1.786959279351618e+00   3.564628561181157e+00 -3.21044310e-01  -1.71933250e+00   1.38894472e+00
C     7.082534242407543e+00   1.874665912090452e+00   5.320793371816447e+00  2.59845100e-02  -3.24832348e+00  -2.32204100e-01
C     1.713208257321498e+00   7.102946362297778e+00   5.377628480537752e+00  2.24134771e+00  -8.92558000e-02  -1.49506722e+00
C     8.740148948102546e-01   8.780061319429322e-01   4.465657736642650e+00 -1.19361860e-01   1.56603252e+00   2.06484250e-01
C     2.724754353951370e+00   2.634839205388728e+00   4.529550869267580e+00 -1.81001926e+00   1.61152976e+00  -4.04598054e+00
C     8.660187723734690e-01   2.648137500257772e+00   6.236071806925088e+00  1.61226423e+00   1.86621100e-01  -1.04924508e+00
C     2.689237902257028e+00   8.572443487440196e-01   6.190460826436536e+00 -8.27967050e-01   1.06791349e+00   1.07459205e+00
C     3.555693842621627e+00   4.920947727147400e-02   3.544649699649612e+00 -5.80361910e-01  -1.99598021e+00   8.85737350e-01
C     5.302001687946667e+00   1.800718413259116e+00   3.498542338009506e+00  2.68921900e-01  -2.40134230e-01   1.45804154e+00
C     3.632257169892897e+00   1.799195362628555e+00   5.317551149175238e+00 -1.16740476e+00  -2.11623970e+00   2.20409158e+00
C     5.400906858596823e+00   7.089515211009967e+00   5.265877323949863e+00 -2.00418693e+00   8.79809120e-01   2.35213630e+00
C     4.463358872767342e+00   8.709004816077540e-01   4.495738022138347e+00  4.95336260e-01   9.52371550e-01  -3.84048837e+00
C     6.165759484337393e+00   2.695675787371283e+00   4.396350971518782e+00  2.22185021e+00   1.36876110e-01   4.14141480e-01
C     4.482094257929972e+00   2.647604013140140e+00   6.237015521112118e+00 -8.97051590e-01   7.64863780e-01   5.31285850e-01
C     6.225538119781414e+00   9.415729879696035e-01   6.233797893613175e+00 -2.14487890e-01  -9.64549840e-01  -8.86237360e-01
C     8.885741527678601e-02   3.558778187196445e+00   3.514997341195639e+00 -3.11842073e+00   4.01455550e-01   1.17110163e+00
C     1.777436552072961e+00   5.345742442443897e+00   3.583099797359227e+00  1.38441088e+00  -3.14871000e-01  -1.18378243e+00
C     7.096588731274903e+00   5.337023322342431e+00   5.327782941610240e+00  6.16280080e-01  -9.24114020e-01   1.11261150e-01
C     1.809205087940908e+00   3.535318899781695e+00   5.336387331770619e+00 -9.06730230e-01   7.13459390e-01   8.84179840e-01
C     9.228678136031093e-01   4.445904780781968e+00   4.452837980784385e+00 -4.16899440e-01  -3.12740650e-01  -4.62613510e-01
C     2.649162890220707e+00   6.240317383419108e+00   4.434080417343182e+00  7.94810790e-01   7.79244600e-02   1.30593792e+00
C     8.410744643891745e-01   6.224837869069117e+00   6.258227196378651e+00 -2.08936100e-01   5.18254470e-01  -6.61635320e-01
C     2.624467590280791e+00   4.463994934423380e+00   6.240086288599731e+00  5.96570350e-01   5.14971640e-01  -1.51621671e+00
C     3.525578370433961e+00   3.562354576785019e+00   3.529498381171986e+00  4.10156420e-01   1.63605110e-01   1.31053530e+00
C     5.296883197154910e+00   5.233736164568176e+00   3.574429085615804e+00  4.55206220e-01   2.85184806e+00  -9.82841630e-01
C     3.608573043070676e+00   5.361480845545707e+00   5.381452172149277e+00 -3.22498025e+00  -1.29483909e+00  -2.72273100e+00
C     5.319888256364242e+00   3.548389227537315e+00   5.348625405405890e+00  9.68938500e-01  -4.19976230e-01  -4.75677290e-01
C     4.430950721032048e+00   4.398743524404221e+00   4.477443856767741e+00 -2.03832350e-01   9.32938200e-01  -3.81607380e-01
C     6.230175583614476e+00   6.192930221370498e+00   4.380348774853543e+00 -2.80822070e-01  -5.26879900e-02   1.44734576e+00
C     4.470800324987089e+00   6.216291696889997e+00   6.177413103464847e+00  1.32783867e+00   1.02761858e+00   1.63058168e+00
C     6.256786319113576e+00   4.397143347388234e+00   6.229493601548313e+00 -1.62609212e+00   1.59444122e+00  -6.34349090e-01
