64
Lattice="7.10842262195238 0 0 0 7.10842262195238 0 0 0 7.10842262195238 " PBC="1 1 1" Properties=species:S:1:pos:R:3:force:R:3 Energy="-512.13993705"
C     3.419947423553440e-02   7.088397980226781e+00   4.696300247087540e-02 -2.44486459e+00  -2.12567500e-02  -1.84746643e+00
C     1.731325422968866e+00   1.725197109659712e+00   3.191134407838260e-02  2.01538719e+00   1.44022607e+00   4.11779800e-02
C     7.098079083161411e+00   1.784089680224150e+00   1.787783927459764e+00  5.57950280e-01  -2.12138260e-01   4.91410780e-01
C     1.762973399989178e+00   7.064123783242874e+00   1.816614054669281e+00  1.53078574e+00   1.92361326e+00  -2.23243927e+00
C     8.786139020769422e-01   8.296311124028199e-01   9.404591692292759e-01 -2.51182060e-01   1.51323693e+00  -7.12031590e-01
C     2.667874177830654e+00   2.663104212999956e+00   9.042787908622260e-01 -3.72625160e-01   5.74135640e-01  -1.70722113e+00
C     9.416454227961013e-01   2.665327372174360e+00   2.647943369236019e+00 -1.91446838e+00   1.13950471e+00   4.37872080e-01
C     2.657484436245036e+00   8.607248457114501e-01   2.636328348843392e+00  9.92065000e-03   1.15093831e+00   1.39806139e+00
C     3.545989992734613e+00   6.674289925328740e-02   7.106400984606872e+00  6.37255230e-01  -1.65028784e+00   2.71351270e-01
C     5.345369676761704e+00   1.803659878539272e+00   5.968160547525800e-03  1.03035860e-01  -1.53258682e+00   1.52015694e+00
C     3.577831532102867e+00   1.800813026364188e+00   1.746585287059899e+00 -1.29191528e+00   1.41816950e-01   2.10684229e+00
C     5.295037424137401e+00   1.489591285288860e-02   1.769822933857357e+00  9.83658740e-01  -1.09376700e-01   7.07799030e-01
C     4.452432232021236e+00   9.205140016209489e-01   9.348982502136498e-01 -4.00719020e-01   1.87187280e-01  -2.28000275e+00
C     6.228875666369956e+00   2.698599908100247e+00   9.373338090559404e-01  4.29024900e-01  -8.14615240e-01  -2.44508936e+00
C     4.441916671355243e+00   2.721791065813771e+00   2.656330099495774e+00  4.07190040e-01  -2.52980666e+00   7.44963250e-01
C     6.210414381983554e+00   8.844011532687890e-01   2.677059752624444e+00 -1.21976320e-01   3.09261960e-01  -1.59248600e-01
C     9.378141962566000e-03   3.551768145145506e+00   7.091445929677785e+00  5.29355240e-01   1.00387594e+00   6.20877330e-01
C     1.805147173804055e+00   5.309620779647688e+00   3.264557305080240e-02 -5.21941740e-01   1.04488761e+00  -2.77396044e+00
C     1.584886798932580e-02   5.315038677200199e+00   1.766976721440310e+00 -8.10085770e-01   2.82383411e+00   4.61479300e-02
C     1.758572006871326e+00   3.640311936816298e+00   1.751354754301014e+00  1.18838657e+00  -4.13402682e+00   3.41416450e-01
C     8.962066793876325e-01   4.476538385894406e+00   8.813038002805764e-01 -4.42344390e-01  -8.98746830e-01  -2.08517160e-01
C     2.689706773813043e+00   6.257505691482721e+00   8.240466645083218e-01 -1.10769578e+00  -1.36082006e+00   2.97634036e+00
C     9.391424761073732e-01   6.259743280755044e+00   2.704580579471584e+00 -2.78853140e+00  -1.82865557e+00  -1.10126585e+00
C     2.629703014624647e+00   4.446574891782356e+00   2.625868304958062e+00  1.01526994e+00   1.25287401e+00   1.50999963e+00
C     3.601094769221757e+00   3.535185901194475e+00   7.065208457450460e+00 -1.97692734e+00  -1.60619160e-01   1.20407241e+00
C     5.284900813481282e+00   5.269314672791991e+00   3.096208532170780e-02  1.36890313e+00   2.83275641e+00  -9.98058560e-01
C     3.536239795932116e+00   5.333307323333599e+00   1.781622346732748e+00  4.95446200e-01   4.14039050e-01  -1.02767851e+00
C     5.356789286616508e+00   3.573990638108602e+00   1.776072801193314e+00 -8.52723360e-01   6.09221200e-02   9.55310260e-01
C     4.421839997928447e+00   4.420478663912490e+00   9.214058243228540e-01  7.31138880e-01   2.38870900e-02  -1.18940221e+00
C     6.164318464903867e+00   6.264601532194684e+00   8.577071070565816e-01  1.47467241e+00  -2.53545383e+00   1.67313600e+00
C     4.414586208065868e+00   6.242494764351841e+00   2.666711808563832e+00 -6.80166600e-02  -8.03626280e-01  -6.33404940e-01
C     6.234964243596664e+00   4.488704309040084e+00   2.639516973978045e+00 -3.21840800e-02  -9.11562670e-01   2.78706090e-01
C     1.250862020018780e-02   3.005412650045520e-02   3.557868166932633e+00 -1.33057339e+00  -1.57187468e+00  -9.73850600e-02
C     1.750581784425315e+00   1.750698149303605e+00   3.575046025614994e+00  1.56348109e+00   6.97549630e-01  -1.15472869e+00
C     7.092789990226774e+00   1.799213275853557e+00   5.348403053946337e+00  9.33098610e-01  -1.24854687e+00  -2.20700300e-02
C     1.800154857513802e+00   1.868512861470580e-02   5.348671823405598e+00 -1.03096842e+00  -1.64400105e+00  -4.99415460e-01
C     8.592881624157219e-01   8.690350893438136e-01   4.453083647870132e+00  7.55852980e-01   1.10378300e+00   9.19661300e-01
C     2.689925073471704e+00   2.650734775714667e+00   4.451827945014309e+00 -7.56591060e-01  -2.00646400e-02  -1.26067552e+00
C     9.301633299064678e-01   2.642687401550791e+00   6.245920952970454e+00 -2.02854073e+00   2.64680970e-01  -7.29461030e-01
C     2.659807966346835e+00   9.101219853400923e-01   6.219639763944017e+00 -1.93668110e-01  -1.77508800e-01   2.16047790e-01
C     3.493724462410348e+00   7.083229517224005e+00   3.548127566500673e+00  2.37511768e+00   7.80830350e-01   9.32155900e-02
C     5.310416212138866e+00   1.722792614624271e+00   3.579961215519819e+00  7.23254240e-01   2.06083399e+00  -5.59125350e-01
C     3.554859740311396e+00   1.775280212071184e+00   5.323370530437328e+00  1.28026120e-01  -5.51354960e-01   9.60565200e-01
C     5.330802812791895e+00   7.083548116725834e+00   5.372209445637621e+00 -1.23294926e+00  -7.42676890e-01  -7.84111320e-01
C     4.402746277181543e+00   8.354413237997294e-01   4.474163675149743e+00  7.38169700e-01   1.03432285e+00  -7.54104550e-01
C     6.288737683611310e+00   2.682102894136429e+00   4.430877646447515e+00 -2.19367938e+00  -5.11938010e-01  -3.01601110e-01
C     4.480199507880611e+00   2.602821377139498e+00   6.233931745211110e+00 -6.66713380e-01   2.54693213e+00  -1.56110233e+00
C     6.175294935692540e+00   8.767909470960432e-01   6.248035353278773e+00  2.63822851e+00   6.64580250e-01  -3.71817220e-01
C     3.852224819920880e-02   3.619922421709994e+00   3.515782537558244e+00 -6.34777640e-01  -2.11327525e+00   1.05541319e+00
C     1.777786073213186e+00   5.365323658814080e+00   3.519845356506705e+00  5.19081570e-01  -1.50282335e+00   2.21761616e+00
C     1.362848109974260e-02   5.354190305138183e+00   5.292227606844167e+00 -9.27617590e-01  -7.28164110e-01   1.26427570e+00
C     1.788685559784885e+00   3.524289471244503e+00   5.287890402782574e+00  5.81050000e-03   8.49431490e-01   1.99848544e+00
C     9.001537021316137e-01   4.455139545860288e+00   4.463564732686418e+00  1.68544900e-01  -3.92743000e-03  -2.12673424e+00
C     2.687370022045171e+00   6.198700270179604e+00   4.420039079057669e+00 -1.25173564e+00   2.33238080e-01   9.79750240e-01
C     8.826174367807523e-01   6.179847382791066e+00   6.235227823907414e+00  9.16660040e-01   1.90838498e+00  -2.97084240e-01
C     2.658257406120735e+00   4.453464232817208e+00   6.168792150679764e+00  6.08763270e-01  -1.94441497e+00   1.70310997e+00
C     3.543647127723287e+00   3.554346156777101e+00   3.540854868233925e+00  4.25687900e-02   2.74129720e-01  -1.21380900e-01
C     5.318498488657807e+00   5.359325074217741e+00   3.504351909648379e+00 -2.39319630e-01  -1.18606906e+00   1.12400081e+00
C     3.543483918339932e+00   5.289581851945004e+00   5.326332325806177e+00  8.75079120e-01   1.85307384e+00  -3.50114490e-01
C     5.354098890823290e+00   3.515340464755506e+00   5.298587228225377e+00  5.13284500e-01   1.23622993e+00   7.14728080e-01
C     4.463689698756077e+00   4.421409014264996e+00   4.438171101308313e+00 -8.26944680e-01   1.88086950e-01  -5.88548090e-01
C     6.163609897337105e+00   6.181885225387767e+00   4.399605207394218e+00  2.57911883e+00   2.35889555e+00   1.53691659e+00
C     4.414960253264132e+00   6.201070218281112e+00   6.276862281698111e+00  3.11756430e-01  -4.58043500e-02  -1.66677152e+00
C     6.243166510289431e+00   4.485258074669681e+00   6.197717033162806e+00 -1.17120405e+00  -2.40006848e+00   4.68198500e-01
