64
Lattice="7.10842262195238 0 0 0 7.10842262195238 0 0 0 7.10842262195238 " PBC="1 1 1" Properties=species:S:1:pos:R:3:force:R:3 Energy="-510.97703956"
C     7.055179468312807e+00   7.064309028736351e+00   7.089405385880488e+00  1.76344137e+00   1.39131461e+00  -3.79843410e-01
C     1.806053355519652e+00   1.839629278922960e+00   2.660469333987400e-03 -1.64446486e+00  -3.27253665e+00  -1.56533139e+00
C     2.806867297846300e-02   1.768534603341709e+00   1.746229581591994e+00 -4.44605700e-02   5.29203530e-01   6.34127060e-01
C     1.780869493693064e+00   6.501981761019940e-02   1.758750712615993e+00  2.54678920e-01  -2.12083093e+00  -5.25741000e-03
C     8.758500051938337e-01   8.919126234513429e-01   8.260651011112707e-01  4.11250350e-01   1.55764410e-01   1.37370498e+00
C     2.673324560874539e+00   2.640283048683802e+00   8.971380249193051e-01 -3.27129130e-01   2.18792206e+00  -3.92198200e-02
C     9.276902385927435e-01   2.618232010874300e+00   2.663478755787803e+00 -7.38453340e-01   7.68438300e-01  -6.13102400e-02
C     2.647065692295128e+00   9.025065900188337e-01   2.676638223163078e+00  9.08273800e-02   6.57034200e-02   1.54872000e-02
C     3.574430862721459e+00   3.372207257237520e-02   6.521835585397600e-03 -7.34671400e-02  -1.15824279e+00   1.38995310e+00
C     5.391460973366689e+00   1.833466916269456e+00   1.451028092575360e-02 -7.58519910e-01  -1.48249424e+00   4.02358690e-01
C     3.542526342728791e+00   1.853524539123631e+00   1.797264857213415e+00  8.33681830e-01  -2.58413716e+00   1.07647118e+00
C     5.355521428358005e+00   7.074955810883909e+00   1.778739170518076e+00 -2.01163940e+00   1.70555606e+00   7.40593030e-01
C     4.433703173354738e+00   9.132554491152144e-01   9.735043777997745e-01  1.46726384e+00   3.24523290e-01  -2.80072834e+00
C     6.354330866590038e+00   2.742452051579932e+00   8.875545206272472e-01 -4.37090870e+00  -2.28523212e+00  -5.72340000e-03
C     4.456118588907741e+00   2.696034194039784e+00   2.698643127309776e+00  4.46454640e-01  -2.26176200e-02  -1.05501366e+00
C     6.208009744779661e+00   9.066510136589725e-01   2.652031565253234e+00  5.88698670e-01  -1.30073640e+00  -2.04449820e-01
C     3.129475950032380e-02   3.552591371569128e+00   7.062125321307487e+00  3.59930090e-01   1.79631295e+00   7.09889300e-02
C     1.819257463788981e+00   5.349486306469399e+00   7.105015979543591e+00 -5.89749730e-01  -2.04913627e+00   7.56954910e-01
C     1.276765112046060e-02   5.394059670508108e+00   1.695034295377397e+00  1.58753780e-01  -1.71604515e+00   2.55668602e+00
C     1.780602217002552e+00   3.549220486478498e+00   1.774737128583016e+00  9.57358100e-02   1.49633490e-01   8.28627900e-01
C     8.838660312139553e-01   4.441314161453972e+00   9.041255332705388e-01  1.65405875e+00   6.00561600e-01  -1.97694267e+00
C     2.743803789225351e+00   6.194988465140119e+00   9.139554865748321e-01 -3.19396206e+00   2.15895218e+00  -1.22009653e+00
C     8.949914945407436e-01   6.263638767435030e+00   2.690926792387314e+00 -5.75568250e-01   8.96992690e-01  -2.69684547e+00
C     2.630744327454251e+00   4.483009111921166e+00   2.681990794311712e+00  1.40969571e+00  -1.51002009e+00  -9.80523000e-02
C     3.546885582900507e+00   3.508846494186779e+00   3.293438826185300e-02  1.11239725e+00   1.85570051e+00  -5.46229680e-01
C     5.272949280361822e+00   5.337154970329354e+00   7.089155311572716e+00  1.23858716e+00  -1.17314226e+00   9.07508550e-01
C     3.528012578675954e+00   5.336847033461455e+00   1.818041141594472e+00  1.32071922e+00  -1.42878160e-01  -5.11210000e-04
C     5.400964223567366e+00   3.615908295456480e+00   1.827240506728145e+00 -1.13256624e+00  -1.32427339e+00  -2.00946828e+00
C     4.422403838010665e+00   4.445150648226212e+00   9.607183158647281e-01  7.74987740e-01  -3.14570080e-01  -1.78970854e+00
C     6.176635655282898e+00   6.204104164139554e+00   8.408518285927162e-01  5.33518380e-01   7.74932820e-01   9.49933400e-01
C     4.401501947801912e+00   6.244281466377378e+00   2.704274490793567e+00  1.08556414e+00  -9.00814250e-01  -2.22837210e-01
C     6.288509716497887e+00   4.489627479885742e+00   2.615025401430418e+00 -1.58135513e+00   1.12258830e-01   1.62677162e+00
C     7.059170492192806e+00   7.076083135627215e+00   3.581639514100401e+00  6.82647910e-01   1.28775221e+00  -4.85477230e-01
C     1.711328648212318e+00   1.665237067270429e+00   3.568395172159043e+00  1.80498665e+00   2.77413063e+00   2.75414460e-01
C     7.072501627974353e+00   1.701607311605658e+00   5.303896864501386e+00  1.16853274e+00   2.22329660e+00   2.52633250e-01
C     1.743040316699305e+00   7.047147448341790e+00   5.366522352120491e+00  4.13806480e-01   2.02021057e+00   8.43767640e-01
C     8.387984896347029e-01   8.406313253230437e-01   4.513209671927592e+00  1.03388195e+00  -1.26459811e+00  -2.58734424e+00
C     2.648741645096245e+00   2.584760083693923e+00   4.414448660088170e+00 -2.37557480e-01   1.64252950e+00   4.10248530e-01
C     8.867942037438120e-01   2.652325072023213e+00   6.138952556373980e+00 -3.33095220e-01  -5.17141000e-03   2.08525384e+00
C     2.669957443247897e+00   8.671154598152826e-01   6.250535385514228e+00 -5.52247600e-02   1.30909729e+00  -9.64685840e-01
C     3.525610571588430e+00   4.630739265263280e-02   3.597408981009061e+00  5.90280010e-01  -1.28525994e+00  -5.54180120e-01
C     5.332726138700189e+00   1.782580419933472e+00   3.542203051668034e+00  1.39526950e-01  -9.22268500e-01  -6.85904470e-01
C     3.571445538473737e+00   1.813446115044452e+00   5.306852759879460e+00 -4.98204110e-01  -2.44015197e+00   1.79666044e+00
C     5.248140956502249e+00   2.335415384420040e-02   5.360840874257230e+00  2.55349102e+00  -2.00218581e+00  -1.03288374e+00
C     4.451888650943484e+00   8.779574392479852e-01   4.462540408986875e+00 -1.08524723e+00   1.90413740e+00  -5.69717050e-01
C     6.262315676732770e+00   2.632638082324445e+00   4.352142767150061e+00 -9.72894110e-01   6.77342210e-01   2.33079414e+00
C     4.470636191508794e+00   2.687673764943723e+00   6.236213477787904e+00 -3.20728000e-02  -1.37359472e+00  -3.43268600e-01
C     6.229507747309327e+00   8.377522009092652e-01   6.175510320897926e+00 -2.00036068e+00   1.69344038e+00   2.11180191e+00
C     5.209130288584820e-02   3.570189764533688e+00   3.505885267491739e+00 -6.08261080e-01   4.71916870e-01   3.35873190e-01
C     1.808220997913395e+00   5.428527416613321e+00   3.507668628558645e+00 -1.60742212e+00  -2.45661204e+00   2.24080334e+00
C     7.095580685863160e+00   5.367367188148878e+00   5.356092092525938e+00 -2.23081360e-01  -9.81209990e-01  -1.51478600e+00
C     1.761957748565232e+00   3.492238020156280e+00   5.289719399922701e+00  6.92256830e-01   2.60416358e+00  -6.96517220e-01
C     8.727394305395481e-01   4.551709812932454e+00   4.391240513244585e+00  1.01408408e+00  -3.46482835e+00   1.03976176e+00
C     2.640371406376969e+00   6.221480561065691e+00   4.501372300075412e+00  1.16822489e+00   2.11135640e-01  -1.80718214e+00
C     8.737198241872984e-01   6.185252200845957e+00   6.252498092083836e+00  4.89874580e-01   6.78004110e-01  -1.74389910e-01
C     2.685689093348219e+00   4.388519835571006e+00   6.203781655005285e+00 -1.14387638e+00   6.21381710e-01   9.53718420e-01
C     3.573820035965722e+00   3.519644330315012e+00   3.591473803542492e+00 -2.30542727e+00   7.25457070e-01  -1.38519656e+00
C     5.305265306939962e+00   5.330193194468004e+00   3.546867029917468e+00  7.23284130e-01  -7.79118900e-01   7.71272090e-01
C     3.546885369647828e+00   5.308245157702266e+00   5.353249860825557e+00  1.02717380e-01  -9.50829630e-01  -5.73158100e-01
C     5.329745790348301e+00   3.478417753814250e+00   5.266756493659505e+00  1.61353604e+00   2.36379746e+00   2.13809922e+00
C     4.436319570468481e+00   4.343368698941743e+00   4.466289888666247e+00  1.71193920e-01   3.29036059e+00  -1.01417517e+00
C     6.174819026798130e+00   6.210678602052340e+00   4.447763633297098e+00 -4.94102000e-01   4.26854080e-01   5.15446510e-01
C     4.419742871087093e+00   6.196867150154358e+00   6.231484670724176e+00 -4.86239200e-01   1.44666223e+00  -2.30995680e-01
C     6.224557015291402e+00   4.485489880331319e+00   6.200778986206370e+00 -8.46559390e-01  -2.55423438e+00  -1.07796500e-01
