64
Lattice="9.86 0 0 4.93 8.53901048131456 0 0 0 30 " PBC="1 1 1" Properties=species:S:1:pos:R:3:force:R:3 Energy="-512.75743021"
C     4.936185424500000e+00   8.477435419258406e+00  -4.749027000000012e-01  1.24363374e+00   2.05828210e-01   7.12847000e-03
C     1.263107559900000e+00   6.792828093595543e-01  -4.756160999999999e-01 -1.98719060e-01   8.97379800e-02  -1.24970350e-01
C     9.833895058400000e+00   4.987943425745280e-02   3.665799300000000e+00  6.98041010e-01  -9.82459890e-01   1.50697700e-02
C     1.235944591000000e+00   7.349903744399215e-01   3.754530600000000e+00  3.41325940e-01   3.61554010e-01  -1.84347210e-01
C     7.448517122000000e+00   8.484791862177030e+00  -5.369747999999994e-01 -1.85439438e+00   2.64047711e+00   3.89416630e-01
C     3.711466197000000e+00   7.228105006714591e-01  -4.090161000000023e-01  5.63688680e-01  -3.01446150e+00   1.24816125e+00
C     2.507565767900000e+00   2.131465100965200e-02   3.552015900000000e+00 -2.63335350e+00   9.17807870e-01   4.23871510e-01
C     3.676858730900000e+00   8.041545661357208e-01   3.550926900000000e+00  1.07082220e-01  -6.43157950e-01   9.93972200e-02
C     9.862021447899998e+00   8.494632815584916e+00  -2.040632999999978e-01  6.82666620e-01  -1.03032800e-02  -2.98034360e-01
C     6.193140640199999e+00   6.199366011334496e-01  -1.924767000000003e-01 -1.90895190e-01   1.78956873e+00  -1.32958266e+00
C     4.878205518600000e+00   9.474749404440319e-02   3.446052000000000e+00  2.60098586e+00  -2.13004636e+00   2.96469710e-01
C     6.180847093599999e+00   7.389878268060288e-01   3.483551700000000e+00 -2.89526633e+00   1.69018590e+00   6.88424350e-01
C     1.236586526300000e+01   8.429867580527993e+00  -2.642099999999985e-01 -7.59013760e-01   2.34839482e+00   7.27603100e-01
C     8.655011569199999e+00   6.476383465920368e-01  -4.865135999999985e-01 -4.22068230e-01  -4.17024480e-01   1.09869996e+00
C     7.380759842900000e+00   6.392789968925360e-02   3.563718600000000e+00 -6.17054810e-01  -2.64800071e+00   5.69233250e-01
C     8.567597788499999e+00   7.314078325930375e-01   3.732483300000000e+00  2.93820388e+00   1.40949078e+00  -5.36245890e-01
C     1.255025071400000e+00   2.123008064985808e+00  -2.493372000000029e-01 -1.81808000e-01  -5.34969290e-01   8.60970960e-01
C     2.481213734700000e+00   2.784066064277898e+00   1.176738000000000e-01 -1.15269273e+00   1.12704411e+00  -1.37113043e+00
C     1.110319336720000e+01   2.172952054162490e+00   3.950444400000000e+00 -1.34923479e+00  -1.03235832e+00  -5.42446950e-01
C     2.448927411200000e+00   2.907055566973958e+00   3.897006000000000e+00 -9.18949600e-02   3.36860480e-01  -5.64291890e-01
C     3.701820109700000e+00   2.087022027729839e+00  -1.121037000000022e-01 -8.84080940e-01   1.11960262e+00  -1.14664330e-01
C     4.896178474500000e+00   2.810539387688833e+00  -2.037701999999975e-01  3.25999940e+00  -4.66784340e-01   5.60688800e-02
C     3.656990387200000e+00   2.204244453527917e+00   3.705079200000000e+00  1.65426256e+00   7.62854230e-01   5.98198300e-02
C     4.945164778600000e+00   2.912376395184256e+00   3.632032200000000e+00 -1.11896956e+00  -1.36348032e+00  -2.93010380e-01
C     6.164177432500000e+00   2.086525057319903e+00  -3.694674000000013e-01 -6.62365800e-02  -7.12425610e-01   1.07975290e-01
C     7.404327658600000e+00   2.805724837409894e+00  -5.459288999999998e-01 -1.76753030e-01  -3.49788410e-01   1.52037267e+00
C     6.166004539799999e+00   2.177348790658642e+00   3.602966100000000e+00 -9.95955600e-02  -8.73863310e-01  -8.31861700e-01
C     7.394242308299999e+00   2.862665435603573e+00   3.587609100000000e+00 -2.14604820e-01   1.55951563e+00   3.13599100e-02
C     8.665585581100000e+00   2.066217753376577e+00  -4.473026999999981e-01 -1.13480590e+00   2.01411908e+00  -6.41471180e-01
C     9.855964055499999e+00   2.865099224370583e+00  -2.595609000000003e-01  1.04524522e+00  -2.20540822e+00   1.61562970e-01
C     8.627838099400000e+00   2.167108980071236e+00   3.748338900000000e+00 -1.39394201e+00  -8.54102410e-01   1.26672010e-01
C     9.820943603299998e+00   2.856907239276490e+00   3.926321700000000e+00  2.05211532e+00   2.79946360e-01  -2.27192260e-01
C     1.231712910710000e+01   4.264899212356983e+00   3.089418000000000e-01  2.46658609e+00  -3.53284808e+00  -5.61470140e-01
C     3.701190006400000e+00   4.908164646292107e+00   1.560225000000000e-01  1.85859333e+00   1.71562035e+00   2.24450160e-01
C     1.227112643900000e+01   4.335484636957074e+00   3.797104200000000e+00  1.14959923e+00  -8.17427600e-02   1.57814140e-01
C     3.674400830100000e+00   5.037566091957599e+00   3.650865600000000e+00  2.52548870e-01  -1.03040392e+00  -2.23138050e-01
C     4.973541020499999e+00   4.221114240659316e+00  -1.358880000000013e-01 -2.09637675e+00   8.87983550e-01   2.93620270e-01
C     6.167957805800000e+00   4.983825231770986e+00  -3.637287000000029e-01  4.57831760e-01  -1.82754297e+00  -7.03521060e-01
C     4.949999777500000e+00   4.298755876569555e+00   3.526037100000000e+00 -1.50255653e+00   2.13309325e+00   3.59678330e-01
C     6.168801476699999e+00   5.054307846684897e+00   3.376085400000000e+00 -3.83298210e-01  -2.76266398e+00   5.89230800e-01
C     7.403368822899999e+00   4.245656210679884e+00  -4.637963999999997e-01  8.19623890e-01  -4.48018650e-01   2.71113210e-01
C     8.667131924899998e+00   4.953937755799832e+00  -2.749823999999990e-01 -2.03341461e+00   6.77920880e-01  -2.34704600e-02
C     7.367265939899999e+00   4.302266946898721e+00   3.442748100000000e+00  1.92939993e+00  -5.57671760e-01   5.79127640e-01
C     8.653298788600001e+00   4.976148832129676e+00   3.524608500000000e+00 -2.12098775e+00   1.45183540e-01   1.09711380e-01
C     9.875668131599999e+00   4.260026938367200e+00  -2.832899999999938e-02  3.72217700e-01  -4.92491000e-02  -9.92580400e-02
C     1.114259096920000e+01   4.956833590423915e+00   2.886942000000000e-01 -3.89324474e+00  -9.92607060e-01  -1.04132462e+00
C     9.840761660999998e+00   4.279790819683580e+00   3.846433200000000e+00 -1.32305976e+00  -1.27018860e-01  -1.20250710e+00
C     1.101075966330000e+01   5.013510333193762e+00   3.745574100000000e+00  2.85842147e+00   4.68093890e-01   5.65263190e-01
C     3.738935910500000e+00   6.363673053259922e+00   1.738746000000000e-01  2.18601730e-01  -1.90851130e-01  -2.46379433e+00
C     4.942871835599999e+00   7.043172070364831e+00  -3.512309999999985e-01 -1.48915372e+00   7.94552250e-01   8.36788970e-01
C     1.354612254600000e+01   6.455264443640814e+00   3.601191300000000e+00  3.66121240e-01  -3.87054800e-02  -2.12819400e-02
C     4.941620305800000e+00   7.154786159469749e+00   3.482644200000000e+00 -5.80031390e-01   3.79071500e-01   9.48312920e-01
C     6.156204389999999e+00   6.381024749505807e+00  -5.792496000000007e-01 -7.99823070e-01  -7.69054540e-01   1.70967309e+00
C     7.364793199799999e+00   7.090825213809937e+00  -5.588255999999987e-01  1.65782334e+00  -3.33954170e-01   1.16237770e-01
C     6.185239871499999e+00   6.426589165597401e+00   3.429078300000000e+00 -1.15532100e+00   2.56630911e+00  -3.99093680e-01
C     7.405555869500000e+00   7.149850355241994e+00   3.425397300000000e+00  5.41695200e-01  -7.07798720e-01  -2.86203610e-01
C     8.554898749400000e+00   6.393952128251688e+00  -2.804339999999996e-01  3.32603152e+00  -1.06697024e+00   7.29630000e-04
C     9.862469831399999e+00   7.064839126336992e+00  -8.740859999999984e-02 -2.09824354e+00   4.68802300e-02  -2.69568960e-01
C     8.621293869499999e+00   6.389797814263063e+00   3.389172300000000e+00  9.71143530e-01   1.48547067e+00   7.95898310e-01
C     9.836625933299999e+00   7.160743912471749e+00   3.485479800000000e+00 -1.01843720e-01   3.85181850e-01  -3.69887790e-01
C     1.105742901530000e+01   6.322562499644591e+00   1.787262000000000e-01  1.95205325e+00   3.75795036e+00  -9.53056100e-02
C     1.235258837860000e+01   7.098147073736119e+00   1.302153000000000e-01 -4.42572700e-01  -2.38796530e+00  -2.76033300e-01
C     1.107784710330000e+01   6.432725981649167e+00   3.609291300000000e+00 -1.03092801e+00   1.05776589e+00   2.25437610e-01
C     1.230592405520000e+01   7.158077948009789e+00   3.670382400000000e+00  1.68389470e-01   1.54341900e-02  -1.13306816e+00
