64
Lattice="9.86 0 0 4.93 8.53901048131456 0 0 0 30 " PBC="1 1 1" Properties=species:S:1:pos:R:3:force:R:3 Energy="-514.15556639"
C     4.968682801299999e+00   8.458743183757267e+00  -2.791589999999999e-01 -1.07842014e+00  -2.43848580e-01   1.27680680e-01
C     1.280454356500000e+00   6.327236839371448e-01  -2.637728999999993e-01 -1.80857031e+00  -1.09588631e+00  -3.01014700e-02
C     9.876635299000000e+00   9.525607750859200e-02   3.792732000000000e+00 -3.76282293e+00  -1.40961667e+00  -9.91127600e-02
C     1.156604769900000e+00   8.103388590857560e-01   3.764334600000000e+00  3.60201208e+00   2.06324910e-01  -5.76586630e-01
C     7.379560817600000e+00   8.416896140488035e+00  -2.512025999999992e-01  2.79779899e+00   3.09647708e+00  -1.43191190e-01
C     3.718378944400000e+00   6.426162129683295e-01  -3.104391000000000e-01 -1.46734210e+00  -1.93097941e+00  -1.34271810e-01
C     2.418752656000000e+00   1.219174299302960e-01   3.688887900000000e+00 -1.30808180e-01  -2.98831348e+00   2.55190620e-01
C     3.684023746400000e+00   7.100328961693968e-01   3.756563400000000e+00  3.44682150e-01   2.67342216e+00  -3.07115460e-01
C     9.855621173999999e+00   8.435114460907535e+00  -3.786036000000017e-01  8.87336300e-02   1.82352797e+00  -1.35880400e-01
C     6.134659649100000e+00   6.276578305797800e-01  -3.980925000000006e-01  1.37001432e+00   1.08811802e+00   9.45373900e-01
C     4.930253697800000e+00   1.355875318077280e-02   3.793190400000000e+00  3.04880680e-01   1.65169245e+00   6.08862700e-02
C     6.163264840200000e+00   7.900849239579296e-01   3.781824000000000e+00 -9.07119950e-01   2.67112480e-01  -6.25072970e-01
C     1.228926760650000e+01   8.433948629806700e+00  -3.219653999999998e-01  1.85656822e+00   7.48610760e-01  -7.20650460e-01
C     8.641475859800000e+00   6.029861529900208e-01  -2.326416000000009e-01 -7.18281040e-01   1.58625417e+00  -3.32500700e-01
C     7.392839723300000e+00   1.042084614859288e-01   3.703770600000000e+00  5.55993310e-01  -1.36872098e+00   9.15453590e-01
C     8.641157381799999e+00   8.115670249630944e-01   3.758998500000000e+00 -1.03128546e+00   2.26987180e-01  -5.57003440e-01
C     1.280060942500000e+00   2.028713907007788e+00  -3.543866999999992e-01  7.41581500e-02   1.61807722e+00   5.32733380e-01
C     2.482439382000000e+00   2.774529099643101e+00  -4.020119999999991e-01  5.21669580e-01   4.61829520e-01  -5.05928130e-01
C     1.101253959050000e+01   2.208000849628173e+00   3.723717000000000e+00  2.32854545e+00   5.76352340e-01   1.21163960e-01
C     2.451455958900000e+00   2.859326682505894e+00   3.743190900000000e+00 -6.49965160e-01   2.01892797e+00   3.02543730e-01
C     3.688020300200000e+00   2.038831182794806e+00  -3.673809000000006e-01  1.43600720e+00   1.37118927e+00  -1.28846960e-01
C     4.931137597500000e+00   2.791469215583849e+00  -3.917250000000010e-01 -4.61618550e-01   1.10315150e-01   5.65051480e-01
C     3.693226725300000e+00   2.182573555001039e+00   3.748882800000000e+00 -3.42486700e-01  -1.35860809e+00  -1.18602700e-02
C     4.912804850200000e+00   2.914911115055139e+00   3.742399500000000e+00 -1.84338140e-01  -9.02320980e-01   4.17053210e-01
C     6.170601173200000e+00   2.105551936641754e+00  -3.222671999999989e-01 -1.53348060e-01  -1.53840669e+00  -3.76124470e-01
C     7.412634955100000e+00   2.815771068629719e+00  -2.823725999999986e-01  2.57166950e-01  -7.68005110e-01   3.81105450e-01
C     6.146758657900000e+00   2.233315429316972e+00   3.734350500000000e+00  5.91807710e-01  -1.35508778e+00  -7.35468500e-02
C     7.400878877099999e+00   2.939740593558569e+00   3.686265600000000e+00 -1.46382022e+00  -1.43323629e+00   4.72787180e-01
C     8.648006778699999e+00   2.081881201860460e+00  -2.132225999999982e-01  1.15344369e+00  -6.96239400e-01  -5.24599740e-01
C     9.958218072899999e+00   2.781902449802476e+00  -3.000347999999988e-01 -3.46096676e+00  -9.46708800e-02  -1.11060880e-01
C     8.603947516599998e+00   2.249682577654512e+00   3.698881200000000e+00  8.42791310e-01  -1.92924035e+00   1.20519500e-02
C     9.827853096899998e+00   2.937306975571769e+00   3.694961400000000e+00 -2.32544520e-01   1.56453455e+00   5.99412600e-01
C     2.486978235800000e+00   4.222478006023077e+00  -5.522804999999984e-01 -1.34371386e+00  -1.28466038e+00   5.66510520e-01
C     3.680081915600000e+00   4.958410233318943e+00  -5.433957000000014e-01  1.65687356e+00  -1.35081495e+00   6.79754900e-01
C     1.234573488980000e+01   4.329758888869814e+00   3.826497000000000e+00 -1.87602168e+00  -6.94869730e-01  -1.29630680e-01
C     3.685269015100000e+00   5.042810752194415e+00   3.836754000000000e+00  9.24996880e-01  -9.92775100e-01  -3.57884470e-01
C     4.896702632099999e+00   4.227071225150373e+00  -3.562319999999985e-01  8.57866590e-01  -3.14246700e-01  -8.06093950e-01
C     6.151560428600000e+00   4.936452680210252e+00  -2.941950000000020e-01  5.06121970e-01  -1.20449569e+00   1.23802850e-01
C     4.931456962900000e+00   4.306817044023094e+00   3.804086100000000e+00 -1.64786590e+00   6.20390510e-01  -2.28279000e-01
C     6.140846306099999e+00   4.967513757781775e+00   3.763509900000000e+00  5.78883320e-01   3.39638806e+00   6.62056400e-02
C     7.412203629400000e+00   4.242049247263028e+00  -2.814978000000004e-01 -8.00792640e-01  -1.13796905e+00  -1.42351410e-01
C     8.645723843599999e+00   4.896478839670018e+00  -3.602999999999987e-01  7.59291000e-01   1.87203810e+00  -3.07742000e-03
C     7.387795298000000e+00   4.310809116812599e+00   3.759489900000000e+00 -5.73416400e-02   2.25472744e+00  -5.64374590e-01
C     8.581944433599999e+00   5.100204259503953e+00   3.765863100000000e+00  1.28600129e+00  -1.90396964e+00   6.79274700e-02
C     9.898375070699998e+00   4.236087053975576e+00  -3.984297000000012e-01 -9.14551210e-01  -2.87524536e+00   1.57743410e-01
C     1.108775383970000e+01   4.904501325406082e+00  -5.205641999999990e-01  2.27370979e+00   1.86764341e+00  -1.53352920e-01
C     9.834546015600001e+00   4.372262325874643e+00   3.789624600000000e+00  1.90154490e-01   2.78448840e-01  -8.27436800e-02
C     1.109224916160000e+01   5.094679178162974e+00   3.873100800000000e+00 -2.69438370e-01  -4.23831223e+00  -6.54230110e-01
C     3.754176364600000e+00   6.364978241011790e+00  -5.152014000000023e-01 -2.55680336e+00  -1.62798145e+00   2.61823000e-02
C     4.931039194699999e+00   7.014818029895676e+00  -3.625542000000017e-01  3.23891926e+00   2.35382983e+00   6.57445180e-01
C     1.352165520250000e+01   6.440758116467074e+00   3.778269300000000e+00  1.20348220e-01   2.47076982e+00   4.64754070e-01
C     4.875622691599999e+00   7.214218526311597e+00   3.805905600000000e+00  1.82951952e+00  -2.05096084e+00  -5.82995060e-01
C     6.190494807799999e+00   6.322059637317424e+00  -2.498585999999996e-01 -3.81463460e-01   1.13181307e+00  -5.19381360e-01
C     7.436690298499999e+00   7.058136600840926e+00  -2.348537999999998e-01  1.26498600e-02  -2.93520162e+00  -6.55232090e-01
C     6.126727920000000e+00   6.449059144724997e+00   3.734610000000000e+00 -1.12637090e-01  -1.44468200e-02  -3.80924600e-02
C     7.369612965000000e+00   7.174005935038342e+00   3.636871500000000e+00 -1.25274988e+00   1.72091200e+00   1.06820886e+00
C     8.709407611600000e+00   6.339205628800845e+00  -4.011852000000005e-01 -2.97052197e+00  -8.73549070e-01   9.71263130e-01
C     9.897022278700000e+00   7.036901106458423e+00  -4.404512999999994e-01  1.21115442e+00   6.48312800e-02   3.66262500e-02
C     8.606404332799999e+00   6.504139348705398e+00   3.752491200000000e+00 -3.45579620e-01  -5.52132860e-01  -4.94212800e-02
C     9.863960860599999e+00   7.155245899793992e+00   3.844048200000000e+00 -1.60817256e+00   7.70666720e-01  -6.33367850e-01
C     1.115723499190000e+01   6.351951724354236e+00  -5.067486000000017e-01 -2.34021567e+00  -2.16759337e+00  -2.81388110e-01
C     1.235799294040000e+01   7.004664548704223e+00  -5.016420000000004e-01  3.85817240e-01   2.90550656e+00   5.52018280e-01
C     1.104760372250000e+01   6.446426482403908e+00   3.837472200000000e+00  2.72351998e+00   2.54082559e+00   1.01768490e-01
C     1.230291409300000e+01   7.186876443974427e+00   3.767125800000000e+00 -3.82425890e-01   1.99232300e-02   4.22424500e-02
