64
Lattice="9.86 0 0 4.93 8.53901048131456 0 0 0 30 " PBC="1 1 1" Properties=species:S:1:pos:R:3:force:R:3 Energy="-504.39986591"
C     4.933049303600000e+00   8.250658855243605e+00  -4.802706000000008e-01  3.57470618e+00   1.50589210e+00   4.92883280e-01
C     1.335837187700000e+00   5.394954506373432e-01  -3.481059000000002e-01 -2.58625520e+00  -2.86967924e+00  -8.77830950e-01
C     9.838924003499999e+00   3.061869705558664e-01   3.954007800000000e+00  9.88182250e-01  -3.99145020e+00   1.14945028e+00
C     1.273740386700000e+00   9.394401585328760e-01   3.807593700000000e+00 -3.54438676e+00   2.45441779e+00   4.69866500e-01
C     7.448366017500000e+00   8.277328319725264e+00  -3.799958999999973e-01 -1.97439798e+00  -4.32857680e-01  -4.29742020e-01
C     3.687818663199999e+00   3.752749942781840e-01  -7.410239999999995e-01  3.24850278e+00   6.90826040e-01   2.49437205e+00
C     2.429992168600000e+00   3.090607745329104e-01   4.251533100000000e+00  5.27389070e-01  -1.73070256e+00  -7.54464630e-01
C     3.673840634200000e+00   9.845070918739056e-01   4.199550900000000e+00 -1.49620930e+00   7.91035840e-01   7.53562000e-01
C     9.892823052600001e+00   8.217155193724277e+00  -5.710322999999988e-01 -1.27350780e-01  -5.93456720e-01  -1.24485728e+00
C     6.180441946199999e+00   3.572300157714288e-01  -4.973192999999974e-01  7.41678640e-01   1.57803897e+00  -1.65329240e+00
C     4.867513581100000e+00   2.985110832551848e-01   4.368331200000000e+00  2.00005999e+00  -2.71245969e+00  -1.07251442e+00
C     6.088557444299999e+00   9.818182428638584e-01   4.144892100000000e+00 -1.49616518e+00   3.12278868e+00   1.78058383e+00
C     1.239047695690000e+01   8.158242596450346e+00  -7.126100999999991e-01 -1.25387488e+00   2.32333422e+00   1.71096259e+00
C     8.664029771699999e+00   3.672808580569128e-01  -5.519196000000015e-01 -3.59443360e-01   2.78596288e+00   7.31078640e-01
C     7.303551310100000e+00   3.302611735823400e-01   4.079821800000000e+00  9.56464880e-01  -2.84807013e+00  -3.10541720e-01
C     8.587518045099999e+00   9.472752129889048e-01   3.961594800000000e+00  1.13170710e-01   3.27007300e-02  -9.73605630e-01
C     1.304120575000000e+00   1.919876447940651e+00  -6.238166999999990e-01  1.17794026e+00  -4.07084820e-01  -7.95276740e-01
C     2.568135205600000e+00   2.606164405327683e+00  -8.575787999999989e-01 -2.28231187e+00  -8.67775010e-01  -1.33472686e+00
C     1.103910563500000e+01   2.402078297691072e+00   3.538084800000000e+00 -9.17141530e-01  -8.97185880e-01   7.42893040e-01
C     2.395371440800000e+00   3.090667689182673e+00   3.578396100000000e+00  1.43191459e+00   2.03338666e+00   9.43999540e-01
C     3.740126406900000e+00   1.774084371658799e+00  -7.928388000000020e-01  1.02006416e+00   4.13301870e+00  -1.01974506e+00
C     5.037664643099999e+00   2.610745157499679e+00  -8.214965999999997e-01 -2.10334459e+00  -4.00332055e+00   1.05155830e-01
C     3.596236715400000e+00   2.392302326152939e+00   4.067943300000000e+00  8.83203270e-01   2.52085482e+00  -1.12268728e+00
C     4.810679160699999e+00   3.196036772973044e+00   4.285373100000000e+00  5.27532980e-01  -6.53918830e-01  -9.88494850e-01
C     6.163044370600000e+00   1.856571981406542e+00  -5.688356999999975e-01  4.35284412e+00  -1.41275523e+00   1.83235814e+00
C     7.507155823799999e+00   2.564884779304848e+00  -2.867291999999999e-01 -2.47241465e+00   1.47395462e+00  -2.51050933e+00
C     6.043664322000000e+00   2.464392409789710e+00   4.311516900000000e+00  1.27960131e+00  -2.02493559e+00  -1.73635265e+00
C     7.333934308500000e+00   3.067042211156924e+00   4.102503900000000e+00 -3.72097500e-01   9.97670440e-01  -2.66245040e-01
C     8.765728917600001e+00   1.929913713199472e+00  -3.934928999999983e-01 -3.95726850e+00  -4.41305015e+00  -8.21834100e-01
C     9.896109045499998e+00   2.566791454954927e+00  -7.757049000000009e-01  2.55940840e+00   2.70493187e+00   1.52064905e+00
C     8.593379420700000e+00   2.314932999286908e+00   3.783702000000000e+00 -2.89017579e+00   3.47922478e+00   1.68733785e+00
C     9.722938703599999e+00   3.123564056276664e+00   3.677394300000000e+00  3.49885075e+00  -5.99791220e-01  -5.68720500e-01
C     2.499460108400000e+00   4.023012015396774e+00  -1.356228299999998e+00 -2.13341193e+00  -3.31909435e+00   1.76764523e+00
C     3.711945245099999e+00   4.569129297881148e+00  -1.229360700000001e+00  5.16567433e+00   6.56114294e+00   1.53043114e+00
C     1.226758650180000e+01   4.594765200534308e+00   3.496343100000000e+00  2.15312458e+00  -4.77118950e-01   2.88293493e+00
C     3.663256170700000e+00   5.362878994356884e+00   4.091230800000000e+00 -1.38364211e+00  -2.55017293e+00  -1.61816966e+00
C     5.030334768399999e+00   3.990122479511168e+00  -9.363245999999990e-01 -3.87433495e+00  -9.68231130e-01   2.74638070e-01
C     6.132137411799999e+00   4.676533057088693e+00  -4.711652999999991e-01  3.25894571e+00  -2.31659400e-01  -1.65570621e+00
C     4.901788518700000e+00   4.642998228181114e+00   4.232288700000000e+00 -1.24266942e+00  -4.34009950e-01   1.45465818e+00
C     6.159783816499999e+00   5.321876544614229e+00   4.576887000000000e+00 -1.28446660e-01  -5.24134634e+00  -2.40718534e+00
C     7.435826365300001e+00   4.024836374985826e+00  -4.578057000000015e-01  5.30313350e-01  -1.62657716e+00   1.43686948e+00
C     8.677560698999999e+00   4.780905723746153e+00  -5.735444999999970e-01  2.54975950e-01  -4.26279686e+00  -9.89542770e-01
C     7.353575231299999e+00   4.501316916934438e+00   4.219794900000000e+00  8.94113830e-01   1.11425343e+00   2.75544312e+00
C     8.639419211700000e+00   5.209892887135736e+00   4.363440000000000e+00 -2.52261425e+00   5.58574470e-01  -1.44508605e+00
C     9.928635558600000e+00   4.026674226211437e+00  -8.545020000000001e-01 -1.46300392e+00   1.76703520e-01  -1.02416228e+00
C     1.107066941770000e+01   4.745687685092754e+00  -1.341385500000001e+00  1.00038368e+00  -3.93601810e-01   1.18197914e+00
C     9.794979610399999e+00   4.555612129681413e+00   3.910028400000000e+00  8.77390850e-01  -8.69285730e-01  -1.43717646e+00
C     1.102846758240000e+01   5.292134914942075e+00   3.604653300000000e+00 -4.73235680e-01  -1.06011808e+00   2.87379701e+00
C     3.786614039099999e+00   6.130520837070229e+00  -9.436032000000019e-01 -8.54897450e-01  -2.85905596e+00  -8.01824120e-01
C     4.971126898100000e+00   6.863126778223716e+00  -5.984558999999976e-01  8.59252800e-01  -3.10059065e+00  -7.13349570e-01
C     1.350212653580000e+01   6.766982729015309e+00   4.300981200000000e+00 -2.07789286e+00  -1.57077773e+00  -2.34132134e+00
C     4.882367621800000e+00   7.351135240490642e+00   4.284820499999999e+00  2.44334524e+00   3.93586927e+00   1.09272076e+00
C     6.215668225900000e+00   6.037569950830819e+00  -5.151837000000015e-01 -2.69155520e-01   5.76629371e+00   1.72899352e+00
C     7.450291281100000e+00   6.852589297730977e+00  -2.911445999999991e-01 -2.24046900e-02  -2.15426379e+00  -2.23960874e+00
C     6.171792310499999e+00   6.669779500946962e+00   4.644894600000001e+00 -2.74425285e+00   3.50829339e+00  -1.90233661e+00
C     7.335698607599999e+00   7.437533973208539e+00   4.537383300000000e+00  2.24159848e+00  -1.10991361e+00  -1.33255700e-02
C     8.720444057500000e+00   6.132529041554916e+00  -6.322404000000006e-01 -2.88218781e+00   1.69660254e+00   1.62374610e+00
C     9.937428607999999e+00   6.762450905373363e+00  -7.671861000000000e-01 -6.78167440e-01   4.28856660e+00  -5.71536760e-01
C     8.583489544899999e+00   6.644697182343219e+00   4.500130800000000e+00  9.38420040e-01   1.27057707e+00  -4.10432630e-01
C     9.854323499400000e+00   7.346915773852054e+00   4.339405500000000e+00 -2.72615084e+00   1.26678332e+00   6.94824400e-01
C     1.108842086870000e+01   6.217810188581192e+00  -1.281046200000002e+00  1.99504180e+00  -4.34594785e+00   2.07342861e+00
C     1.239043416450000e+01   6.749614637869303e+00  -9.270212999999998e-01 -4.41757220e-01   2.55447228e+00  -1.34069054e+00
C     1.104444507150000e+01   6.633548991820952e+00   4.124835300000000e+00  9.70809200e-02   1.17677800e+00  -2.08371581e+00
C     1.221602728000000e+01   7.428030566884928e+00   4.039611600000000e+00  2.13622505e+00   4.71378750e-01   1.70869191e+00
