64
Lattice="9.86 0 0 4.93 8.53901048131456 0 0 0 30 " PBC="1 1 1" Properties=species:S:1:pos:R:3:force:R:3 Energy="-509.67766017"
C     4.956153896500000e+00   7.739386542044758e+00  -6.030465000000014e-01  1.79991877e+00  -1.47128516e+00   1.13982660e-01
C     6.240031447800000e+00   8.378449075021626e+00  -5.890394999999984e-01 -2.20318230e-01   1.82261068e+00   5.71076630e-01
C     9.749415367199999e+00   9.286566691482081e-01   3.584209800000000e+00  3.31980595e+00  -9.30122550e-01   1.19518633e+00
C     1.224400552300000e+00   1.501409516242636e+00   3.713687700000000e+00 -2.25320434e+00   3.52523603e+00   3.41196050e-01
C     7.501776503599999e+00   7.717782418579834e+00  -5.470775999999979e-01 -1.73629043e+00  -1.76081882e+00   6.95166300e-02
C     8.703174119600000e+00   8.441622211574552e+00  -3.743739000000019e-01  6.89518200e-01  -2.86855068e+00  -1.32452843e+00
C     2.445705754800000e+00   7.993955194249024e-01   3.566637000000000e+00 -3.96199120e-01   3.10870890e+00   1.47233557e+00
C     3.608044114700000e+00   1.581217328331441e+00   3.872582100000000e+00  7.54330420e-01   7.57311000e-02  -1.39926661e+00
C     9.955444799999999e+00   7.681826865591278e+00  -5.777180999999985e-01  3.21261700e-01   6.11696520e-01   1.85160508e+00
C     1.118526485200000e+01   8.388860007379051e+00  -4.754514000000007e-01 -1.16614110e-01  -1.62102100e-02  -4.56850400e-01
C     4.826901818700000e+00   8.557621253341160e-01   3.794015700000000e+00  1.06223331e+00   3.63535330e-01  -1.28929590e-01
C     6.102565644899999e+00   1.535441571730467e+00   3.718345800000000e+00 -3.05794480e-01   6.20596690e-01   5.31949800e-01
C     1.245799148280000e+01   7.718490473328835e+00  -4.196925000000000e-01 -2.50183227e+00  -7.99938510e-01  -2.60096000e-02
C     1.362132471670000e+01   8.502972013219683e+00  -5.487225000000002e-01  8.51242170e-01  -3.56722906e+00   6.13082210e-01
C     7.350619499100000e+00   7.829112158635768e-01   3.726876300000000e+00 -3.05651904e+00   7.94943950e-01   5.36486240e-01
C     8.514089491200000e+00   1.541513064352061e+00   3.746655300000000e+00  1.39544569e+00   1.79140174e+00   5.89979090e-01
C     1.286000458600000e+00   1.285849454833944e+00  -3.886797000000008e-01 -3.23502220e-01  -5.66953900e-02   1.46620686e+00
C     2.493914302100000e+00   1.973855717299866e+00  -5.802900000000122e-02  9.72211900e-01   5.89734310e-01  -1.45243256e+00
C     1.104246759920000e+01   2.952491470957829e+00   4.060489499999999e+00  1.08393796e+00  -2.84767200e-02  -1.94466734e+00
C     2.408327825900000e+00   3.752137268779900e+00   3.999029700000000e+00 -9.83942150e-01  -2.21889011e+00   4.84467720e-01
C     3.773623587700000e+00   1.278104145378060e+00  -1.998566999999980e-01 -2.09615127e+00   7.75597030e-01  -5.58162810e-01
C     4.949402162899999e+00   1.955687606261989e+00  -4.591878000000023e-01  2.28626210e+00   2.48925726e+00   1.47236314e+00
C     3.618199027300000e+00   3.023506066224644e+00   3.925604700000000e+00  1.01108612e+00   7.70603400e-02  -7.74230570e-01
C     4.865037932300000e+00   3.770060993337840e+00   3.715215300000000e+00 -1.99620110e-01  -4.05613200e+00   1.52610929e+00
C     6.185708073599999e+00   1.261224314851301e+00  -5.056809000000015e-01  9.55724770e-01   9.28560000e-02  -7.85007500e-01
C     7.432341890600000e+00   1.979709123593802e+00  -5.786000999999992e-01 -5.82688680e-01  -1.41629836e+00   1.49250218e+00
C     6.108593703800000e+00   3.023590687818501e+00   3.705905400000000e+00 -2.02191046e+00  -3.21820323e+00  -5.12992810e-01
C     7.310366936500000e+00   3.665783622037337e+00   3.712130700000000e+00  1.88051416e+00   2.13946650e-01   1.48490282e+00
C     8.677875134399999e+00   1.328015771705022e+00  -4.539471000000006e-01  2.28479340e-01   1.11565040e+00  -6.26015430e-01
C     9.897095735699999e+00   2.030697006801663e+00  -2.925095999999989e-01  1.32402427e+00  -2.09008620e-01  -1.31825982e+00
C     8.578030999599999e+00   2.955084939220815e+00   3.989671800000000e+00 -2.35421968e+00   7.38910370e-01  -2.65631227e+00
C     9.799353506399999e+00   3.695632160120701e+00   3.978279000000001e+00  3.44704200e-01  -3.95282398e+00   1.14194229e+00
C     2.502453555100000e+00   3.425547271973227e+00   4.171800000000000e-03  2.84466611e+00  -1.63404964e+00  -3.68048800e-02
C     3.812363133300000e+00   4.154911633968295e+00  -1.539201000000006e-01 -1.53854335e+00  -1.77574152e+00   7.69898920e-01
C     1.224075911800000e+01   5.158225640254086e+00   3.986286000000000e+00  1.76808210e+00  -6.18961200e-02   2.14927430e-01
C     3.662107234200000e+00   5.852624632915862e+00   3.934933500000000e+00 -1.18634000e+00   1.22197218e+00  -1.05538830e-01
C     5.063500751799999e+00   3.432001995385163e+00  -3.634938000000005e-01 -3.65808031e+00  -1.81985107e+00  -2.95728620e-01
C     6.252405254799999e+00   4.083402971555107e+00  -5.490288000000021e-01  7.94448990e-01   2.40651412e+00   8.12453660e-01
C     4.872495000999999e+00   5.123916408486075e+00   3.850331400000000e+00 -3.16742330e-01   3.05233052e+00  -1.54617947e+00
C     6.062141025299999e+00   5.870506601712552e+00   3.565972800000000e+00  2.83107610e-01   2.27328540e-01   1.68319952e+00
C     7.466067576900000e+00   3.330083525729761e+00  -4.492322999999985e-01  4.59433760e-01   3.33424822e+00  -1.05720996e+00
C     8.718667137600001e+00   4.057700720790517e+00  -3.675905999999998e-01 -3.32134613e+00   4.04613688e+00   4.73507600e-02
C     7.239734481399999e+00   5.066436059439955e+00   3.661570200000000e+00  2.19720217e+00   2.43461610e+00  -9.36858210e-01
C     8.494385464400001e+00   5.753759798798211e+00   3.656739000000000e+00  2.59024900e+00   9.95874760e-01   1.19045030e+00
C     9.944309014600000e+00   3.486338451552757e+00  -2.774084999999999e-01 -5.21919130e-01  -4.68024270e+00   1.19983883e+00
C     1.114079866770000e+01   4.083257722986843e+00   1.679550000000000e-02  1.20087301e+00   2.49203984e+00  -5.60532740e-01
C     9.790576528799999e+00   5.049678934493794e+00   3.945330300000000e+00 -1.79836939e+00   3.52234011e+00  -1.17940195e+00
C     1.100748185420000e+01   5.802276236202846e+00   3.955057800000001e+00 -7.92710680e-01   1.73411916e+00  -7.44710270e-01
C     3.749625530900000e+00   5.552845506604396e+00  -1.395024000000014e-01  2.67579874e+00   1.10790526e+00  -2.20989503e+00
C     4.986225811900000e+00   6.281076229568140e+00  -5.259000000000000e-01 -1.19107274e+00   3.10650010e-01   9.76190120e-01
C     1.351480777760000e+01   7.309873887950234e+00   3.847877100000000e+00  1.67136812e+00  -2.41178950e+00   2.85344670e-01
C     4.915224691399999e+00   8.098879480983491e+00   3.696862800000000e+00 -2.20324263e+00  -3.73220000e+00  -5.63521500e-01
C     6.224497609400000e+00   5.581160779965971e+00  -5.901090000000018e-01 -2.50899283e+00  -2.97749080e+00   6.04233600e-02
C     7.417569737199999e+00   6.210821777014254e+00  -6.038967000000000e-01  2.41860859e+00   4.37059853e+00   5.99987370e-01
C     6.129635141000000e+00   7.347669256136810e+00   3.593437800000000e+00 -5.92720740e-01  -2.18871684e+00  -9.87630480e-01
C     7.393199958399999e+00   7.973457982712622e+00   3.425729700000000e+00 -4.77353010e-01  -1.91192667e+00   1.12379243e+00
C     8.590012378599999e+00   5.544644897109718e+00  -3.709334999999996e-01  5.46998952e+00  -1.73998084e+00  -1.09481822e+00
C     1.002328371990000e+01   6.284242153093705e+00  -4.431513000000002e-01 -4.39491643e+00  -2.76034086e+00   1.68957496e+00
C     8.602243609999999e+00   7.216487170615923e+00   3.601503300000000e+00 -2.69538377e+00  -1.42408488e+00  -5.77842730e-01
C     9.740948437299998e+00   7.968142021738298e+00   3.748452000000000e+00  3.45989809e+00  -3.17251540e-01  -2.80481460e-01
C     1.116675620230000e+01   5.488100338222102e+00  -3.821789999999936e-02  4.62066240e-01   4.33070647e+00  -2.40260229e+00
C     1.241745781160000e+01   6.278478235629600e+00  -2.164007999999988e-01 -1.03905642e+00  -3.40350450e-01   1.08819501e+00
C     1.102748133590000e+01   7.251838588613019e+00   3.782067900000000e+00 -2.67415045e+00  -1.95430508e+00   1.26841755e+00
C     1.224154200200000e+01   7.873516208593235e+00   3.877944900000000e+00  1.50874289e+00   3.95158288e+00  -1.45063269e+00
