64
Lattice="9.86 0 0 4.93 8.53901048131456 0 0 0 30 " PBC="1 1 1" Properties=species:S:1:pos:R:3:force:R:3 Energy="-508.28429471"
C     4.968408594700000e+00   8.225543832229723e+00  -4.498779000000006e-01  2.13314852e+00   1.17273630e-01   3.96218000e-02
C     1.334366864500000e+00   4.118666181573944e-01  -5.394620999999979e-01 -2.25155662e+00  -8.01654150e-01   6.76955140e-01
C     9.768362737599999e+00   3.361610320932864e-01   4.067180400000000e+00  1.19522407e+00  -6.53285890e-01  -1.03779560e-01
C     1.194336327700000e+00   9.981152859253577e-01   3.929697300000000e+00 -2.21412381e+00  -3.16190830e-01  -1.20807590e-01
C     7.483544722700000e+00   8.268134879482078e+00  -4.817043000000005e-01 -1.58494477e+00  -3.02601514e+00   5.06890840e-01
C     3.756778467899999e+00   4.082836493599864e-01  -4.651631999999992e-01  8.19934640e-01   7.59198000e-03  -2.30743340e+00
C     2.381524549800000e+00   2.837132342636592e-01   4.232805900000000e+00  5.51855290e-01   2.40031513e+00  -5.81886560e-01
C     3.573417027200000e+00   1.144423801561040e+00   4.144443300000000e+00  2.01123727e+00  -8.17807448e+00   1.79167217e+00
C     9.886844786699999e+00   8.239777338018627e+00  -7.154321999999986e-01  1.93076922e+00   9.29443000e-01   1.32786787e+00
C     6.217783787499999e+00   4.095969491718104e-01  -6.185970000000012e-01  1.74427310e-01  -1.52811200e-01   3.82819230e-01
C     4.840492152500000e+00   3.732815622816280e-01   4.381564500000000e+00  2.17074950e-01  -1.33464772e+00  -1.10647043e+00
C     6.107439196400000e+00   9.786483060033681e-01   4.252028700000000e+00  6.32952420e-01   1.41294991e+00  -9.78427390e-01
C     1.243103118620000e+01   8.203206890885406e+00  -5.976117000000016e-01 -2.75954225e+00   2.76321310e-01  -9.84091770e-01
C     8.679995231600000e+00   3.705915178101136e-01  -3.620981999999984e-01  9.28209260e-01   1.06896356e+00  -1.23479661e+00
C     7.377429677199999e+00   3.358023936531264e-01   4.054035900000000e+00 -2.28658598e+00  -4.08108990e-01   5.43509590e-01
C     8.555914329400000e+00   1.091561007822085e+00   3.865044900000000e+00  8.78893090e-01  -2.19803983e+00   1.13393891e+00
C     1.287620653800000e+00   1.789793674628960e+00  -7.343268000000016e-01 -1.90223230e-01   9.86211270e-01   4.76866370e-01
C     2.539082814200000e+00   2.432444043639210e+00  -1.024540500000001e+00 -2.05859247e+00   2.12703296e+00   1.04100318e+00
C     1.102871699110000e+01   2.387460792600884e+00   3.522388500000000e+00  9.33526860e-01   1.58294048e+00   1.19457265e+00
C     2.415738848400000e+00   3.161849905225211e+00   3.590303100000000e+00  2.31869120e-01   9.53450000e-03   9.48541750e-01
C     3.758470493199999e+00   1.783205828043640e+00  -7.915011000000014e-01  2.56889740e-01   1.94090027e+00   9.81960100e-02
C     4.940234433500000e+00   2.607303423935610e+00  -7.681667999999995e-01  2.34777192e+00  -2.87679307e+00   1.33883001e+00
C     3.696423731700000e+00   2.426054558267340e+00   3.917155200000000e+00 -2.67736367e+00   4.79325129e+00  -1.10200532e+00
C     4.930522974400000e+00   3.078665256051985e+00   4.131120900000000e+00 -6.79633210e-01   2.37631263e+00   2.81284600e-01
C     6.175180551600000e+00   1.848487246284078e+00  -4.817777999999997e-01  9.45571870e-01  -3.27430600e-02  -1.37787544e+00
C     7.462053373700000e+00   2.534760089622561e+00  -4.783434000000000e-01 -2.89991920e-01  -6.14184230e-01   7.88621320e-01
C     6.143749287299999e+00   2.386834712352491e+00   4.163244600000000e+00  1.13504017e+00   2.25151647e+00   8.29862500e-01
C     7.409467578000000e+00   3.224782924803440e+00   4.162878300000000e+00 -2.74596323e+00  -2.32375617e+00   1.19594170e-01
C     8.737358640999998e+00   1.810342120228242e+00  -4.256550000000026e-01 -3.64917458e+00  -1.14207600e-02   6.23603820e-01
C     9.889398723899999e+00   2.541268864970836e+00  -5.359490999999998e-01  3.72674528e+00  -1.14502050e-01  -2.73061254e+00
C     8.587116743099999e+00   2.503665112179431e+00   3.834568500000000e+00 -9.70824230e-01   1.16138430e-01   3.58651700e-02
C     9.775141734100000e+00   3.158390837469868e+00   3.567753600000000e+00  2.04916977e+00   9.40658370e-01   3.20763790e-01
C     2.502122308400000e+00   3.877561926484646e+00  -1.147462500000003e+00  1.20905172e+00   2.11253281e+00   4.30572990e-01
C     3.780077549300000e+00   4.600258260585989e+00  -1.094556900000001e+00 -1.49407745e+00   2.95251568e+00   4.41361670e-01
C     1.224400286080000e+01   4.615473325629567e+00   3.706940400000000e+00  2.21951286e+00  -1.95721766e+00   1.61885630e-01
C     3.729292140300000e+00   5.271325773352840e+00   3.995395200000000e+00 -4.71590909e+00   1.28022780e+00  -5.64453820e-01
C     5.033175927400000e+00   4.018602128824483e+00  -8.004512999999989e-01 -2.32317831e+00  -2.52892936e+00  -7.73402400e-01
C     6.240781547299999e+00   4.655920141960287e+00  -5.738588999999976e-01  1.02670888e+00   6.91000260e-01   5.80089170e-01
C     4.862501299400000e+00   4.547097711551595e+00   4.324538400000000e+00  2.63385660e-01  -2.26485223e+00  -1.44264237e+00
C     6.044149680500000e+00   5.234968545311305e+00   4.527769800000000e+00  1.74260913e+00   1.81658883e+00   5.12119260e-01
C     7.477117235200000e+00   3.950367237639222e+00  -4.615806000000013e-01  9.82349920e-01  -3.69155070e-01  -1.19881677e+00
C     8.762417584500000e+00   4.638735383369287e+00  -6.671574000000007e-01 -3.94702889e+00   1.72210264e+00   5.88212390e-01
C     7.316774309600000e+00   4.602373971212618e+00   4.474306500000001e+00  1.78901728e+00  -1.34969046e+00  -2.22985789e+00
C     8.560973840499999e+00   5.273581438361235e+00   4.208024999999999e+00  7.95428400e-01   2.29030284e+00   5.48154780e-01
C     9.932377034200000e+00   3.940663506129750e+00  -9.157940999999994e-01  6.03725400e-02   1.68419430e-01   2.14734634e+00
C     1.112643368300000e+01   4.731606088300292e+00  -1.025726400000000e+00  1.07895233e+00  -3.71249731e+00  -4.44931640e-01
C     9.787007948299999e+00   4.629019526464933e+00   3.693354300000000e+00 -2.52014482e+00  -2.34553931e+00   1.59705004e+00
C     1.099473647310000e+01   5.271268561982623e+00   3.792145200000000e+00  2.03634110e+00   3.72319395e+00  -4.86818420e-01
C     3.723867907799999e+00   6.096621392415154e+00  -1.032598200000002e+00  3.04258314e+00  -1.24059885e+00   1.70401302e+00
C     4.983210130900000e+00   6.839823989404006e+00  -5.820794999999990e-01 -7.48078590e-01  -3.33520737e+00  -1.12570365e+00
C     1.350660046150000e+01   6.725457606441174e+00   3.987870900000000e+00 -3.57830610e-01  -1.10545816e+00   2.03135730e+00
C     4.830994655400000e+00   7.403702242906570e+00   4.374275700000000e+00  5.36793640e-01   1.66356631e+00  -2.11540472e+00
C     6.234613969400000e+00   6.048920430511358e+00  -4.432317000000019e-01 -2.72598391e+00   1.83719656e+00  -9.73328910e-01
C     7.411949389299999e+00   6.760327851197721e+00  -4.306325999999991e-01  1.91733928e+00   2.61822555e+00  -1.53408890e-01
C     6.060991990200000e+00   6.652466401028447e+00   4.538031600000000e+00  8.24362980e-01   2.55236682e+00  -1.52677160e-01
C     7.351336863399999e+00   7.445793416485424e+00   4.517450699999999e+00 -7.22885580e-01  -1.92435282e+00   7.53492000e-03
C     8.618328425200000e+00   6.087931412229867e+00  -6.173766000000001e-01  3.80266874e+00  -3.16060180e-01  -6.28080460e-01
C     9.907440995600000e+00   6.860766339556730e+00  -8.083643999999985e-01 -2.69491051e+00  -2.14716940e+00   9.48209020e-01
C     8.628204299800000e+00   6.737369269890459e+00   4.483059000000000e+00 -1.63500463e+00  -1.73425108e+00  -1.16208850e+00
C     9.839009489700000e+00   7.436689379681963e+00   4.333380600000000e+00 -1.48629901e+00   1.77492500e+00  -3.17508310e-01
C     1.109375902340000e+01   6.127055792007551e+00  -9.032931000000026e-01  2.36871231e+00   1.42699770e-01  -1.70215937e+00
C     1.240285229220000e+01   6.797735633698609e+00  -1.009974900000000e+00 -2.04211855e+00   1.61127300e+00   1.99131150e+00
C     1.102436897760000e+01   6.768547417295664e+00   3.975501300000000e+00 -8.98583180e-01  -2.22476963e+00   1.06331022e+00
C     1.221458249420000e+01   7.460938205472751e+00   4.036087500000000e+00  3.87414328e+00  -6.57181220e-01  -1.17212574e+00
