64
Lattice="9.86 0 0 4.93 8.53901048131456 0 0 0 30 " PBC="1 1 1" Properties=species:S:1:pos:R:3:force:R:3 Energy="-512.60934775"
C     4.961575959799999e+00   8.279197936069862e+00  -5.351163000000021e-01 -1.28031110e-01  -3.90818430e-01  -2.69126790e-01
C     1.256483168200000e+00   4.438439315534224e-01  -5.406419999999983e-01  1.02782656e+00  -1.80944910e-01   2.88029340e-01
C     9.761640781200001e+00   2.847929067487504e-01   4.051677000000000e+00  2.37132745e+00  -4.32041160e-01  -3.84370010e-01
C     1.189329764800000e+00   1.002276089561947e+00   3.993463500000000e+00 -4.43178030e-01  -1.28977343e+00   3.31764530e-01
C     7.450795225700000e+00   8.300633841028329e+00  -4.894338000000005e-01  8.37908030e-01  -3.71154520e-01  -2.97749220e-01
C     3.785374242700000e+00   4.857726077628424e-01  -5.436353999999994e-01 -1.73757688e+00  -1.86145400e-02  -1.39539897e+00
C     2.420067191200000e+00   2.674665713639920e-01   4.157911500000000e+00 -1.52989055e+00  -2.00012096e+00   2.91925390e-01
C     3.649119001299999e+00   8.897021302889719e-01   4.191171000000000e+00  2.55263990e-01   3.78799221e+00  -9.12962970e-01
C     9.927143198299998e+00   8.294554236346778e+00  -7.092930000000024e-01 -4.61719500e-01  -1.59657743e+00   4.13302500e-01
C     6.214126762800000e+00   4.521771518808544e-01  -6.844919999999988e-01 -5.00591210e-01   8.37611840e-01   1.09580770e-01
C     4.896525842300000e+00   2.517448014385304e-01   4.216119300000000e+00 -4.05749000e-02   1.74831640e-01  -6.05270400e-02
C     6.133636279700000e+00   9.946318819901464e-01   4.180158300000000e+00 -5.94804460e-01  -2.30807436e+00  -1.46898800e-02
C     1.237405596500000e+01   8.299629397225566e+00  -7.034577000000013e-01  3.57642800e-02   1.70323631e+00   3.22880000e-02
C     8.678632924700000e+00   4.658606600047400e-01  -5.724122999999999e-01 -4.83761540e-01   2.86686160e-01  -2.75644020e-01
C     7.321193808099999e+00   1.916590295147528e-01   4.191284400000000e+00  1.84980391e+00   3.43342392e+00  -1.43345148e+00
C     8.556257210899998e+00   9.893523825905720e-01   3.969252600000000e+00 -7.99124160e-01  -1.80536764e+00   1.32895542e+00
C     1.241517364400000e+00   1.847459149422287e+00  -6.805598999999987e-01  1.34110151e+00   9.32696360e-01  -9.31125080e-01
C     2.462126450900000e+00   2.587895277795828e+00  -9.648921000000001e-01  1.85709131e+00  -2.29227640e-01   1.49939234e+00
C     1.110210852070000e+01   2.411170209099652e+00   3.890777100000000e+00 -2.82094060e+00  -7.00881600e-01   2.32968300e-02
C     2.449032124400000e+00   3.071455769503721e+00   3.954297600000000e+00 -3.61020070e-01   2.43762507e+00   2.49343150e-01
C     3.712611682500000e+00   1.908377389477759e+00  -7.923074999999997e-01  1.47191177e+00  -5.89959840e-01   8.51802010e-01
C     5.016967960800000e+00   2.615331545418592e+00  -7.020723000000011e-01 -3.57106398e+00  -1.83687399e+00  -9.60864210e-01
C     3.629860104200000e+00   2.364098828438547e+00   4.036537200000000e+00  2.30603745e+00  -9.59919570e-01   7.58578280e-01
C     4.869053417300000e+00   3.104507290418133e+00   4.118419500000000e+00  7.03064660e-01  -3.47710950e-01   2.07609600e-02
C     6.176140077499999e+00   1.876090366171622e+00  -6.100040999999976e-01  2.41592812e+00  -1.89557860e-01   1.59096800e-01
C     7.433359343999999e+00   2.598249767293981e+00  -5.588525999999980e-01 -1.08177848e+00  -5.43530780e-01  -1.67583060e-01
C     6.147584482199999e+00   2.409308619424908e+00   4.126205100000000e+00 -2.61844886e+00  -1.05449072e+00   5.04210270e-01
C     7.328197513999999e+00   3.088613886382024e+00   4.151387100000000e+00  2.44112036e+00   2.00693524e+00  -4.60324240e-01
C     8.652910846899999e+00   1.906636285240887e+00  -5.889066000000014e-01  2.82733000e-02  -1.94230594e+00   5.51618150e-01
C     9.890050371299999e+00   2.552714383838019e+00  -6.690143999999982e-01 -2.88110680e-01   3.37163530e-01  -4.35042830e-01
C     8.588036631800000e+00   2.380797546553026e+00   3.975439500000000e+00 -1.59732680e-01   1.98023084e+00   1.68338200e-02
C     9.840878304800000e+00   3.128536322079168e+00   3.878809800000000e+00 -5.02597540e-01  -8.12781130e-01   4.83952100e-01
C     2.590305317000000e+00   4.041616128309760e+00  -1.056351899999999e+00 -3.49282746e+00  -1.92550593e+00  -3.06509000e-02
C     3.781132372100000e+00   4.745027619582650e+00  -9.741867000000006e-01  5.69712960e-01   6.96519160e-01  -2.14007230e-01
C     1.227556501660000e+01   4.530056237556449e+00   4.043073900000000e+00 -4.66531520e-01  -8.59297090e-01  -7.40648280e-01
C     3.621857432400000e+00   5.210330340642628e+00   4.075739100000000e+00  2.15013950e+00   1.94601560e-01   9.71020150e-01
C     5.001960449200000e+00   3.983058156141064e+00  -8.216529000000001e-01 -8.03046160e-01   2.74895466e+00   4.86510480e-01
C     6.183054402500000e+00   4.709080093263946e+00  -6.212640000000000e-01  2.52645540e-01   1.38990584e+00   9.86014800e-02
C     4.885664411400001e+00   4.527672828951272e+00   4.185507000000000e+00 -3.03095390e-01  -3.60833070e-01  -4.13545460e-01
C     6.125031704200000e+00   5.267180169154904e+00   4.289530800000001e+00 -1.20542033e+00  -5.63641770e-01  -4.88900280e-01
C     7.398252271700000e+00   4.004440436113717e+00  -5.429546999999992e-01  9.96288500e-01   8.97501560e-01  -2.53305600e-01
C     8.613892657699999e+00   4.736590906448201e+00  -6.331550999999997e-01  3.17842825e+00  -1.91877014e+00  -5.89049420e-01
C     7.329990653599999e+00   4.540009820512566e+00   4.248444600000000e+00  1.27510081e+00  -9.63979560e-01  -5.77203690e-01
C     8.610254416299998e+00   5.216495250038872e+00   4.150375800000000e+00 -2.35831144e+00   5.54451100e-01   5.40015590e-01
C     9.880201562399998e+00   3.927547415252261e+00  -8.464214999999982e-01  4.18617590e-01   3.92712666e+00   4.26721180e-01
C     1.116273933690000e+01   4.673415549752550e+00  -1.048380600000002e+00 -9.77764280e-01   1.42040966e+00   7.01131040e-01
C     9.810248461300000e+00   4.548617057686302e+00   3.977557800000000e+00  1.26279548e+00  -7.27309060e-01   1.66383690e-01
C     1.104938537520000e+01   5.288204579198341e+00   4.037306700000000e+00 -6.58445800e-02  -3.21425343e+00  -3.32098910e-01
C     3.760264175100000e+00   6.215241141888178e+00  -9.369044999999971e-01 -2.17461508e+00  -2.29241033e+00   5.32926790e-01
C     4.944617351400000e+00   6.829150653254530e+00  -6.434066999999999e-01  1.48448224e+00   2.80635316e+00   2.09262260e-01
C     1.354555934280000e+01   6.614192165134154e+00   4.163592899999999e+00 -3.70516120e-01   1.23278714e+00  -5.70059820e-01
C     4.870782959900001e+00   7.387591264883430e+00   4.177928400000000e+00  9.74611600e-02   3.71193680e-01  -2.35839890e-01
C     6.166410574600000e+00   6.153365849538107e+00  -5.414813999999986e-01  3.03518073e+00  -8.20248500e-01  -3.45519020e-01
C     7.502672629699999e+00   6.876953827113771e+00  -5.061917999999999e-01 -2.29721981e+00  -4.31617450e-01   2.00731750e-01
C     6.100433074800000e+00   6.703509019293486e+00   4.239525900000000e+00 -6.67219310e-01  -1.69039455e+00   5.31756930e-01
C     7.303925299900000e+00   7.347906896798468e+00   4.299029100000000e+00  2.35776536e+00   1.78835829e+00  -6.32378530e-01
C     8.755660427899999e+00   6.151251334372945e+00  -6.150834000000032e-01 -4.77632457e+00  -1.50297258e+00   5.21523300e-02
C     9.916773682799999e+00   6.796891467122556e+00  -8.133206999999985e-01  2.03515014e+00   3.85003214e+00   3.41385720e-01
C     8.560932625700000e+00   6.623694802946821e+00   4.273646700000000e+00  3.81510820e-01   1.69463193e+00  -5.57536800e-01
C     9.785689764899999e+00   7.389475995276575e+00   4.179895500000000e+00  1.64163971e+00  -1.88711810e+00   3.04141560e-01
C     1.113746480450000e+01   6.137783607043889e+00  -9.868835999999988e-01  9.16951960e-01  -4.77375530e-01   6.02889700e-02
C     1.235063107000000e+01   6.956666600015933e+00  -9.168473999999982e-01  9.25567400e-01  -4.63736931e+00  -4.10026460e-01
C     1.106621447250000e+01   6.645008514665321e+00   4.101703500000000e+00 -3.94826810e-01   2.71967015e+00   3.17909600e-01
C     1.235603928000000e+01   7.340423734964320e+00   4.123810800000000e+00 -3.40381220e+00  -3.87435180e-01   5.23661750e-01
