64
Lattice="9.86 0 0 4.93 8.53901048131456 0 0 0 30 " PBC="1 1 1" Properties=species:S:1:pos:R:3:force:R:3 Energy="-512.01959856"
C     5.026249277400000e+00   8.014009401921722e+00   9.430619999999999e-02 -3.95316040e-01   1.35501687e+00  -3.18091230e-01
C     1.331661872100000e+00   2.152328465270984e-01   8.049120000000000e-02  6.03109000e-03  -7.48481690e-01  -6.61727060e-01
C     9.747229553099999e+00   4.987758129217864e-01   3.613233300000000e+00  3.37961630e-01  -1.39828994e+00   3.75660000e-04
C     1.116099347600000e+00   1.178803394775406e+00   3.506274900000000e+00  4.82207270e-01   2.19890500e+00  -6.54483440e-01
C     7.519758382800000e+00   7.988346259825131e+00   6.593280000000000e-02 -1.01709418e+00   4.63195311e+00  -4.97283290e-01
C     3.816261333600000e+00   2.374333344839456e-01  -8.278560000000112e-02 -1.74252512e+00  -1.10660384e+00   3.80259060e-01
C     2.346117092600000e+00   4.894786237012672e-01   3.591348900000000e+00 -7.91654100e-02   8.79457900e-02   1.18985361e+00
C     3.565357463200000e+00   1.233290137527448e+00   3.678823200000000e+00  1.49186880e-01  -6.40070370e-01  -1.66656016e+00
C     9.915751447300000e+00   8.049815778397193e+00  -9.219179999999838e-02  3.62803061e+00  -6.56122700e-01  -1.15878598e+00
C     6.300113357800000e+00   2.157582518419328e-01  -6.314460000000111e-02 -4.24933503e+00   1.57767990e+00  -1.83551320e-01
C     4.801519910899999e+00   5.711840600890423e-01   3.669432000000000e+00  1.57164024e+00  -4.24681984e+00  -4.58788900e-02
C     6.090639531200000e+00   1.139584573541814e+00   3.571763700000000e+00 -1.10507110e-01   2.56476794e+00  -1.05235890e-01
C     1.241343093830000e+01   8.082497987108345e+00  -7.368930000000162e-02  4.06745710e-01  -1.02434546e+00   2.51090830e-01
C     8.690858831700000e+00   2.548335323093560e-01   1.299813000000000e-01  2.43920844e+00  -2.92927585e+00  -7.76360960e-01
C     7.368103842699999e+00   5.008782880821719e-01   3.530091000000000e+00 -3.96729333e+00  -1.82283696e+00   1.41275460e-01
C     8.510639920899999e+00   1.205780263634346e+00   3.542594100000000e+00  2.74937335e+00   1.88464884e+00  -3.66844560e-01
C     1.275454005400000e+00   1.640757884436070e+00  -1.911234000000022e-01  2.66012939e+00  -1.24424243e+00   5.02009640e-01
C     2.538314769500000e+00   2.336904385592577e+00  -3.760496999999994e-01 -2.53926130e-01   2.11653600e-01  -1.03487460e-01
C     1.102833955030000e+01   2.647308004913572e+00   3.270557700000000e+00 -1.08330603e+00  -1.97080550e+00   6.09652330e-01
C     2.416939796400000e+00   3.360975189333362e+00   3.228801300000000e+00 -2.09985050e+00  -1.12969868e+00   3.78442000e-02
C     3.791856305300000e+00   1.653576049237913e+00  -2.462027999999989e-01 -1.64861949e+00  -2.72567690e-01  -1.32985180e-01
C     4.962241805600000e+00   2.393688549114263e+00  -2.652575999999982e-01  4.17471992e+00  -1.75564533e+00   7.39518230e-01
C     3.610516361800000e+00   2.591281251621463e+00   3.387166500000000e+00  5.21419490e-01   2.31937917e+00   7.72701120e-01
C     4.876745252600000e+00   3.274257951524560e+00   3.495250500000000e+00 -4.47144500e-01   1.20862351e+00   6.89393300e-02
C     6.264513482700001e+00   1.646546394250358e+00  -5.735759999999956e-02 -9.26820440e-01   2.15625060e-01   2.23158480e-01
C     7.513049688100001e+00   2.311944516399117e+00   9.808140000000000e-02 -1.52223449e+00   3.30869872e+00  -4.22800680e-01
C     6.095484784500000e+00   2.559654720775953e+00   3.551224800000000e+00  4.29816450e-01   2.00030769e+00   4.28283000e-01
C     7.314121082199999e+00   3.382401445209987e+00   3.601151400000000e+00 -6.67849820e-01  -6.52559490e-01  -5.10365320e-01
C     8.745336120499999e+00   1.643202859306809e+00   1.390014000000000e-01 -7.87955570e-01   2.05914970e-01  -6.83306190e-01
C     9.941317046899998e+00   2.334082584189356e+00  -1.474487999999994e-01  3.20520280e-01   1.67732476e+00   6.80898550e-01
C     8.511014847399998e+00   2.653985084158408e+00   3.444421500000000e+00  7.75306980e-01  -1.06015111e+00   5.88659990e-01
C     9.752051487499999e+00   3.309344318636356e+00   3.312072600000000e+00  1.21597445e+00   1.74654407e+00   5.07911310e-01
C     2.586466227400000e+00   3.764988564942405e+00  -5.908341000000021e-01 -7.45482590e-01  -1.50669087e+00   8.23055800e-01
C     3.822854025400000e+00   4.427972538048260e+00  -5.180922000000017e-01 -1.21905067e+00   4.43248620e+00   6.37406490e-01
C     1.216196228710000e+01   4.760372050635000e+00   3.206806500000000e+00  3.33871592e+00   1.14989545e+00   9.66977660e-01
C     3.608610325200000e+00   5.457025085893181e+00   3.499709100000000e+00 -1.30742174e+00  -8.84982110e-01  -7.43527950e-01
C     5.039627917000001e+00   3.789854505020584e+00  -3.228317999999994e-01  2.51089780e-01  -1.36895040e-01   7.31362370e-01
C     6.242589427600000e+00   4.498271649626956e+00   1.423800000000000e-02  1.50568922e+00  -6.61636290e-01  -6.80102210e-01
C     4.875817919599999e+00   4.738168488634381e+00   3.603414900000000e+00 -2.42355431e+00  -6.68583500e-02  -6.60260000e-03
C     6.005383512900000e+00   5.545305218790137e+00   3.840760800000000e+00  3.76338060e+00  -6.63132612e+00  -1.21611122e+00
C     7.502372688499999e+00   3.810040298844780e+00   7.867049999999999e-02  2.63781550e-01  -2.51004256e+00  -1.71295150e-01
C     8.780016106900000e+00   4.474548656101524e+00  -4.711529999999797e-02 -1.69199367e+00   5.41528570e-01  -1.84267610e-01
C     7.341419872600000e+00   4.813794234950501e+00   3.701137800000000e+00 -2.66567847e+00  -6.77339330e-01   6.66609500e-01
C     8.561732419600000e+00   5.513819240057129e+00   3.680676300000000e+00 -3.62331770e-01  -2.84432435e+00  -7.95259650e-01
C     1.000104488430000e+01   3.784899573409354e+00  -2.388113999999995e-01 -5.64230090e-01  -1.44668196e+00  -1.99087770e-01
C     1.121584090920000e+01   4.474285569188635e+00  -4.984116000000007e-01 -5.59049410e-01   3.53643900e-01  -1.86620100e-02
C     9.778085683599999e+00   4.761158578890314e+00   3.415012500000000e+00 -2.47305093e+00  -4.26851920e-01  -9.81176700e-02
C     1.092560722430000e+01   5.482386373969304e+00   3.266448900000000e+00  3.31157039e+00   1.04357015e+00   2.24043300e-01
C     3.751286447899999e+00   5.927653758569742e+00  -3.222996000000009e-01  8.65946120e-01  -6.78163690e-01  -2.05933700e-01
C     5.059852699700000e+00   6.593247424058495e+00  -9.281730000000010e-02 -2.84849654e+00   6.57779410e-01   8.04107560e-01
C     1.344960418920000e+01   6.874324921957293e+00   3.614887200000000e+00  1.20250144e+00   1.28039040e-01  -4.03104110e-01
C     4.847608410299999e+00   7.564107298603055e+00   3.749373600000000e+00 -2.01449753e+00   2.23186372e+00  -4.56767650e-01
C     6.285798757700000e+00   5.906427827878978e+00   8.299350000000000e-02 -1.95397480e+00  -4.16262240e-01  -8.49222260e-01
C     7.474002756999999e+00   6.630588943838060e+00   8.817930000000000e-02  2.66797764e+00  -2.54322554e+00  -2.83479440e-01
C     6.053475564299999e+00   6.858954105362559e+00   3.832463700000000e+00  4.29373600e-02   5.38114163e+00   4.65033500e-02
C     7.268082967400000e+00   7.642145742330300e+00   3.790214100000000e+00  1.22336075e+00  -2.36020135e+00  -4.20230900e-01
C     8.726963292300001e+00   5.881605095193828e+00  -1.178327999999986e-01  1.43719820e-01   1.38629617e+00   3.16108330e-01
C     9.952479996599999e+00   6.611104629724796e+00  -3.155996999999999e-01 -2.05539100e+00   4.27397930e-01   1.25223780e+00
C     8.509534910699999e+00   6.873851775386596e+00   3.712897200000000e+00  1.54557891e+00   4.14337982e+00   2.63700420e-01
C     9.784704701599999e+00   7.623551876229890e+00   3.627729600000000e+00 -1.51645527e+00   7.36555410e-01  -3.80601050e-01
C     1.115618071140000e+01   5.902518241930710e+00  -4.829787000000003e-01  3.36334240e-01   8.72618470e-01   6.36576490e-01
C     1.231734380860000e+01   6.687917298497635e+00  -3.226920000000000e-01  4.47584688e+00  -2.35456305e+00  -7.42842400e-02
C     1.102135541650000e+01   6.935022172421543e+00   3.393371400000000e+00 -1.71159125e+00  -3.29642070e-01   6.11971090e-01
C     1.225520539840000e+01   7.637462607422648e+00   3.464580300000000e+00  3.39165270e-01  -1.53785804e+00   3.68524060e-01
