64
Lattice="9.86 0 0 4.93 8.53901048131456 0 0 0 30 " PBC="1 1 1" Properties=species:S:1:pos:R:3:force:R:3 Energy="-513.23727573"
C     4.994413062900000e+00   8.359329974386592e+00  -8.090952000000016e-01 -1.61693666e+00   7.48100200e-02   1.41076010e-01
C     1.289321454500000e+00   5.353243147980727e-01  -7.958798999999992e-01 -1.12905476e+00   1.35665562e+00  -8.23166300e-01
C     9.839336989600000e+00   1.453172219090592e-01   4.044760500000001e+00 -1.69904956e+00   2.51069221e+00   6.73015670e-01
C     1.168033841000000e+00   8.832479192176640e-01   4.100978400000000e+00  1.32915004e+00  -1.69129928e+00   6.06621000e-03
C     7.419179776600000e+00   8.389895618570065e+00  -8.860458000000015e-01  1.91790718e+00  -1.09214989e+00   8.03656220e-01
C     3.738440494800000e+00   5.430270999817663e-01  -7.566056999999979e-01 -1.44902899e+00   1.13028639e+00   5.47163880e-01
C     2.390385041600000e+00   1.375402327242944e-01   4.048935900000000e+00  2.72311104e+00   2.32558887e+00  -1.16637250e-01
C     3.674762494900000e+00   9.113842149195784e-01   4.014112799999999e+00 -6.31969310e-01  -2.09386605e+00  -4.66843800e-02
C     9.876908568899999e+00   8.382682631027505e+00  -6.198569999999997e-01  5.80721610e-01  -5.65616520e-01  -5.09065120e-01
C     6.202313102399999e+00   5.421602196378369e-01  -6.772872000000021e-01 -7.25461190e-01  -7.59390100e-02   3.51103550e-01
C     4.933885973900000e+00   1.513402129511272e-01   3.919645200000000e+00 -2.77789340e+00   1.85070564e+00   7.91153840e-01
C     6.119531056700000e+00   9.018504097186584e-01   3.975792900000000e+00  1.22053261e+00  -1.82588475e+00   1.74851720e-01
C     1.234100312510000e+01   8.404071656818438e+00  -6.522170999999979e-01  1.44803310e+00  -3.27253044e+00   5.79103740e-01
C     8.663784208399999e+00   5.218527449143008e-01  -8.188053000000011e-01  3.45160580e-01   1.39978411e+00   7.46643840e-01
C     7.356974367699999e+00   1.723661600164504e-01   3.995533800000000e+00  4.10015680e-01  -3.77369220e-01   9.43777730e-01
C     8.588497389600001e+00   8.641753561897456e-01   4.146744000000000e+00 -2.70845220e-01   7.27666240e-01  -1.25998311e+00
C     1.298747466600000e+00   1.979694436495776e+00  -7.162955999999987e-01 -1.23569422e+00   4.98537240e-01   1.54921753e+00
C     2.501914015900000e+00   2.693539232333550e+00  -4.143527999999996e-01 -2.97110070e-01  -1.25672472e+00  -1.10148983e+00
C     1.103031071220000e+01   2.276147191274757e+00   4.184383500000000e+00  1.66992653e+00   7.44526820e-01  -2.12604160e-01
C     2.410514428800000e+00   3.017325445049115e+00   4.168308600000000e+00  6.10885210e-01  -7.51600100e-02  -6.86292900e-01
C     3.700770512700000e+00   1.979365769982401e+00  -5.645196000000006e-01  2.08184843e+00  -1.38528093e+00  -4.06697160e-01
C     4.972699666700001e+00   2.626912749162301e+00  -6.111333000000023e-01 -1.32838231e+00   2.63255609e+00   7.78820430e-01
C     3.679209650700000e+00   2.326249408315633e+00   4.063881299999999e+00 -1.09126904e+00  -8.50196450e-01  -1.23365480e-01
C     4.917956108599999e+00   2.999532708911939e+00   3.967026600000001e+00 -1.02995907e+00   1.03495905e+00   8.63872840e-01
C     6.203296341600000e+00   1.947197182751621e+00  -7.182639000000002e-01 -3.03298420e-01   8.28840010e-01  -6.74085210e-01
C     7.406227187599999e+00   2.683163736869616e+00  -8.679750000000013e-01  1.67166614e+00   1.32640950e-01   1.10750670e+00
C     6.123396373900000e+00   2.284284270531463e+00   4.072122600000000e+00  7.77675440e-01   1.76836068e+00  -1.18952218e+00
C     7.372762939199999e+00   3.032248561324383e+00   4.043000100000000e+00 -1.14701752e+00  -2.79150630e+00   5.85350770e-01
C     8.658423572900000e+00   1.971759902567655e+00  -8.031435000000009e-01  9.71306210e-01   6.91641370e-01  -3.47050550e-01
C     9.934623290099999e+00   2.739672090352797e+00  -6.599672999999981e-01 -1.23869831e+00  -1.83389984e+00  -4.87038280e-01
C     8.567406553800000e+00   2.327840994479000e+00   4.114740599999999e+00  1.38664646e+00  -2.66451008e+00   1.88854910e-01
C     9.826677143999998e+00   2.963169845123488e+00   4.144219800000000e+00 -1.17336691e+00   2.46076709e+00   2.29009950e-01
C     2.493345922400000e+00   4.067532195896770e+00  -2.271356999999981e-01 -9.01157000e-02   2.72067870e+00  -4.41488780e-01
C     3.734391190000000e+00   4.846722367163477e+00  -3.689640000000018e-01 -4.19446480e-01  -2.75950694e+00   1.11829141e+00
C     1.229092137500000e+01   4.446903524282419e+00   4.063190400000000e+00 -1.14749831e+00  -1.07393185e+00   6.48466980e-01
C     3.669285314200000e+00   5.120186056367782e+00   4.022347500000000e+00 -5.30469570e-01   1.99352430e+00  -5.17133380e-01
C     4.931024453999999e+00   4.097737237667674e+00  -5.055155999999990e-01  2.54892856e+00  -2.98876000e-02  -1.28451374e+00
C     6.210494437400000e+00   4.853253685499419e+00  -7.441089000000005e-01 -7.45390880e-01  -2.40165599e+00   4.82689470e-01
C     4.870696241199999e+00   4.436490713342688e+00   3.964051500000000e+00  2.48328229e+00  -1.33778316e+00  -8.20045700e-02
C     6.145446834199999e+00   5.104908912718014e+00   3.931336800000000e+00 -1.37556961e+00   1.71794080e+00   6.00018230e-01
C     7.472841051800000e+00   4.123076409706655e+00  -8.194659000000009e-01 -1.94140750e+00  -2.86431670e-01   6.52505000e-03
C     8.679868974300000e+00   4.849458522291584e+00  -7.193519999999971e-01  1.03325710e-01  -1.17382789e+00   7.25149960e-01
C     7.386188463100000e+00   4.388621959882961e+00   4.017195300000000e+00 -1.92697880e+00   2.86177936e+00  -8.59871450e-01
C     8.557859855300000e+00   5.132867597001945e+00   3.957099000000000e+00  2.80511104e+00  -4.09928460e-01   9.95206380e-01
C     9.929548101599998e+00   4.174801465689255e+00  -4.925993999999996e-01 -2.73306166e+00  -2.75724237e+00  -8.70932030e-01
C     1.109340564100000e+01   4.801443239412019e+00  -2.390909999999984e-01  3.35239774e+00   2.08128030e+00  -1.85015350e-01
C     9.816978404300000e+00   4.412741761225398e+00   4.121199000000000e+00 -3.05152940e-01   1.10820500e-02  -9.55807180e-01
C     1.103581150760000e+01   5.130950332978871e+00   4.062962700000000e+00  4.06432700e-01   1.60497838e+00  -4.91005000e-01
C     3.755175133300000e+00   6.241958510218631e+00  -3.471119999999992e-01 -4.90092740e-01   5.23272980e-01  -1.46436469e+00
C     4.935588401500000e+00   6.937090491540009e+00  -7.290087000000014e-01  1.43058322e+00   4.08170920e-01   7.49320590e-01
C     1.353208866010000e+01   6.563761537750216e+00   3.980513400000000e+00 -4.46419070e-01   8.61120900e-02   4.68685670e-01
C     4.897692181699999e+00   7.318830370652600e+00   3.974872800000000e+00 -3.05239700e-02  -3.45752008e+00   6.84019800e-02
C     6.193307323499999e+00   6.244710974856755e+00  -8.217692999999997e-01 -1.96009340e-01   5.68363500e-01   1.57674220e-01
C     7.440088103799999e+00   6.962151377227446e+00  -8.743091999999990e-01 -1.26866498e+00   4.92442200e-02   2.87522650e-01
C     6.107390586599999e+00   6.558308952608213e+00   3.979072200000000e+00  2.42484553e+00  -2.68294220e-01  -3.97608950e-01
C     7.423424408000000e+00   7.279955415371038e+00   3.991240200000000e+00 -3.76715530e+00  -8.75096920e-01  -1.43310410e-01
C     8.631074052799999e+00   6.237283658151145e+00  -6.697116000000030e-01  1.21930118e+00   1.47578113e+00  -5.36857090e-01
C     9.860502219099999e+00   6.964331301212885e+00  -5.439879000000012e-01  1.54078485e+00  -3.64323090e-01   4.24034400e-01
C     8.612958225499998e+00   6.549132334215671e+00   3.940714800000000e+00 -2.63608460e-01   3.45584680e-01   2.82799920e-01
C     9.824699228000000e+00   7.285930844124733e+00   3.981123900000000e+00  1.11808690e-01  -9.25199000e-02  -1.05526477e+00
C     1.114603615180000e+01   6.261185714726342e+00  -3.225849000000025e-01 -2.62548853e+00  -1.38149421e+00  -2.34937200e-02
C     1.236034543780000e+01   6.899371205936810e+00  -3.572631000000008e-01  6.21758230e-01   4.04694455e+00  -9.02314820e-01
C     1.103494816600000e+01   6.611662568669558e+00   3.924605700000000e+00  1.12089087e+00  -3.09870775e+00   1.44314549e+00
C     1.228486708850000e+01   7.265957671661489e+00   4.037711400000000e+00  2.38322030e-01   1.01407511e+00  -1.30338324e+00
