64
Lattice="9.86 0 0 4.93 8.53901048131456 0 0 0 30 " PBC="1 1 1" Properties=species:S:1:pos:R:3:force:R:3 Energy="-508.76416687"
C     4.951179329299999e+00   8.358170547543617e+00  -5.462883000000005e-01  1.90390490e+00   4.99654552e+00   1.59947990e-01
C     1.328465654500000e+00   5.960009862470663e-01  -5.700419999999973e-01 -2.95324516e+00  -5.20499740e-01   1.27280544e+00
C     9.848200685900000e+00   1.761554313070552e-01   4.065229800000000e+00 -1.18125541e+00  -2.89940825e+00  -1.65880580e-01
C     1.215130131000000e+00   7.752775966647713e-01   4.014165299999999e+00 -8.86078440e-01   5.35893070e+00  -8.71576750e-01
C     7.467495847199999e+00   8.404040147869766e+00  -5.385804000000007e-01 -2.13393195e+00  -4.43179920e-01   1.37246170e-01
C     3.727917212600000e+00   5.632857315653568e-01  -5.523576000000006e-01  1.85158336e+00  -2.07208888e+00  -5.90209820e-01
C     2.409152614900000e+00   1.676466489241544e-01   4.015309800000000e+00  2.93736337e+00  -2.61110218e+00   9.74720700e-02
C     3.655475743300000e+00   8.617573645921239e-01   3.954240900000000e+00  1.17174030e-01   8.83188100e-01   6.01525300e-01
C     9.887620522200001e+00   8.383052284791184e+00  -6.169559999999983e-01  7.61904140e-01   4.66206570e-01   6.30042510e-01
C     6.225576194799999e+00   6.213294845229472e-01  -5.913407999999976e-01 -2.05583599e+00  -4.39836659e+00   8.67139660e-01
C     4.843542787200000e+00   9.788558039580321e-02   4.102745400000000e+00  1.57496673e+00   2.71285210e-01  -6.85474520e-01
C     6.071475142200000e+00   8.048821752187215e-01   4.084127100000001e+00  2.37673296e+00   1.26777117e+00  -1.05380502e+00
C     1.235884573180000e+01   8.352534886016922e+00  -4.758984000000019e-01 -8.00246640e-01  -3.31327460e-01  -2.05837368e+00
C     8.631115908499998e+00   5.086930196932584e-01  -5.168976000000001e-01  1.16521284e+00   2.12912487e+00  -3.63483680e-01
C     7.366015790500000e+00   1.265468544620280e-01   3.956830200000000e+00 -4.74517330e-01   2.92310929e+00  -2.02278240e-01
C     8.675700905799999e+00   8.966591182973424e-01   3.859442700000000e+00 -4.25675943e+00  -1.70446564e+00   1.43022914e+00
C     1.250269692000000e+00   2.028511617849517e+00  -4.482533999999987e-01  2.32179751e+00  -8.81776660e-01  -3.22262094e+00
C     2.565982816900000e+00   2.736977007865100e+00  -7.420013999999995e-01 -3.78372756e+00  -3.54969584e+00   2.52485378e+00
C     1.105286516640000e+01   2.263549076772984e+00   3.815477400000000e+00 -2.78936310e-01  -6.82820670e-01   5.22633510e-01
C     2.376369002300000e+00   3.027119433899361e+00   3.677425800000000e+00  3.36054039e+00  -3.13948224e+00   1.61460410e+00
C     3.737293135900000e+00   1.909084931886132e+00  -6.526482000000016e-01  3.67136250e-01   6.76965168e+00  -2.90239700e-02
C     4.938007996200000e+00   2.766311326737358e+00  -5.905898999999977e-01  5.51270420e-01  -1.97226394e+00   5.78266400e-02
C     3.744351071800000e+00   2.333078823507432e+00   3.921361200000000e+00 -5.11055814e+00  -3.22673699e+00  -5.64956290e-01
C     4.924695960899999e+00   2.933141646259625e+00   4.184938500000000e+00  3.74719640e-01   3.02222587e+00  -1.69208826e+00
C     6.127733689300000e+00   1.990639996299354e+00  -4.969481999999985e-01  2.48766086e+00   2.28967787e+00  -7.11756570e-01
C     7.414553711099999e+00   2.669903934445748e+00  -5.225468999999983e-01 -1.02224771e+00   2.80405146e+00  -2.01225900e-01
C     6.125958149800000e+00   2.230957381572920e+00   4.000115700000000e+00  1.39444291e+00   1.14964031e+00   1.67639488e+00
C     7.399530275599999e+00   3.047873584261106e+00   3.984521100000000e+00 -2.73197159e+00  -2.36823595e+00  -4.14147130e-01
C     8.631085539699999e+00   2.003073649459282e+00  -6.234947999999996e-01  8.39694950e-01  -2.04216042e+00   1.25266427e+00
C     9.884892210899999e+00   2.703496401674068e+00  -6.185040000000015e-01  1.54326930e-01   1.28457296e+00   2.54224570e-01
C     8.566480551900000e+00   2.290678793919516e+00   3.921909000000000e+00  1.61311127e+00   3.47930880e-01  -1.14633200e-01
C     9.806151680599999e+00   2.986022115750274e+00   3.926989500000000e+00  8.25649500e-01  -1.78059995e+00  -1.29668726e+00
C     2.449418439200000e+00   4.106037326634443e+00  -6.541782000000005e-01  2.45231841e+00   1.55183210e+00  -8.24965480e-01
C     3.670791084099999e+00   4.810105638593455e+00  -5.651888999999990e-01  3.27516193e+00   2.70765644e+00  -1.84638514e+00
C     1.228655300060000e+01   4.387731255699792e+00   3.739982400000000e+00  1.68298446e+00   3.22029105e+00   5.60883760e-01
C     3.739108214000000e+00   5.172772186167186e+00   3.876546900000000e+00 -3.39141571e+00  -1.96267786e+00   3.32453330e-01
C     4.989887421500001e+00   4.220880442552374e+00  -6.038259000000004e-01 -3.10148412e+00  -3.69266407e+00   2.32725580e-01
C     6.197576161200001e+00   4.894677962359786e+00  -6.382659000000004e-01  1.88497904e+00  -4.97663520e-01   1.65371762e+00
C     4.895778996599999e+00   4.403214360282337e+00   4.149888900000001e+00 -1.03143951e+00  -4.19094520e-01  -6.62783010e-01
C     6.063645266899999e+00   5.100000433323795e+00   4.163334900000000e+00  4.44145985e+00   2.11715759e+00  -6.54814840e-01
C     7.446540438500000e+00   4.163991505372098e+00  -5.187570000000008e-01 -1.03254254e+00  -2.47563269e+00  -6.37597830e-01
C     8.695361351399999e+00   4.832151399680405e+00  -5.369738999999996e-01 -9.27511090e-01  -1.65227143e+00  -6.66294550e-01
C     7.367403979900000e+00   4.467671849401561e+00   4.007257800000000e+00 -1.64117151e+00  -1.55427618e+00   1.10553971e+00
C     8.580053285600000e+00   5.145679784496451e+00   4.044588300000000e+00  1.31752617e+00  -5.69046560e-01  -7.21582330e-01
C     9.951890615100000e+00   4.175938605714876e+00  -7.020318000000003e-01 -3.21033567e+00  -2.99597971e+00   6.70782760e-01
C     1.111753163130000e+01   4.860045358264897e+00  -7.688367000000014e-01  1.02278483e+00   3.81782110e-01   1.29318071e+00
C     9.792146142200000e+00   4.347222702323301e+00   3.836308800000000e+00  1.55345106e+00   4.20106655e+00   1.78430905e+00
C     1.109617260350000e+01   5.093890942105565e+00   3.908695800000000e+00 -2.54809959e+00  -4.31351640e-01  -8.77288390e-01
C     3.773677028899999e+00   6.260079315138449e+00  -7.663353000000015e-01 -1.16510843e+00  -1.63092262e+00   2.08631905e+00
C     4.996410550999999e+00   7.035702314777136e+00  -5.372115000000015e-01 -1.38969199e+00  -5.13336522e+00  -9.87516600e-01
C     1.350547321700000e+01   6.601584657720853e+00   3.899939100000000e+00 -5.56988910e-01  -1.51476192e+00   7.19036610e-01
C     4.847120734700000e+00   7.242932059121959e+00   4.162384500000000e+00  2.84308970e+00   2.12938032e+00  -1.52275650e+00
C     6.214608571699999e+00   6.290663488974665e+00  -4.788621000000006e-01 -1.87045363e+00   4.44329400e-01  -8.65944060e-01
C     7.384056731099999e+00   6.985576871627755e+00  -4.887167999999988e-01  3.43985009e+00  -7.13373530e-01   1.85527000e-03
C     6.166256462800000e+00   6.540278831979693e+00   4.107722700000000e+00 -2.98732176e+00  -1.22680470e-01   9.55327720e-01
C     7.395439706700000e+00   7.256057372130767e+00   4.111086000000000e+00 -5.10748110e-01   6.60557490e-01   6.89864200e-02
C     8.612218725500000e+00   6.178104814530449e+00  -5.308944000000011e-01  1.45023647e+00   5.50543567e+00   6.26455300e-02
C     9.859835190100000e+00   6.960126692452534e+00  -5.840217000000010e-01  7.09632270e-01   1.06421000e-02   3.29080000e-03
C     8.631998575699999e+00   6.561638227404260e+00   4.157506200000000e+00 -9.32545880e-01  -1.32771732e+00  -9.97246020e-01
C     9.872406443599999e+00   7.196184648518465e+00   4.062424200000000e+00 -3.02371492e+00   2.27531572e+00   1.06378058e+00
C     1.115006775790000e+01   6.292714388511751e+00  -6.262362000000010e-01 -3.88506167e+00  -3.39353434e+00  -1.10088574e+00
C     1.235478957430000e+01   6.836725694841442e+00  -7.361381999999992e-01  2.70676947e+00   7.07821863e+00   1.50933239e+00
C     1.104445650910000e+01   6.510657602355306e+00   4.027658700000000e+00  1.64751064e+00  -6.41265300e-02  -9.20030410e-01
C     1.220219483390000e+01   7.317612024637314e+00   3.899668800000000e+00  3.54114929e+00  -3.44985800e+00   3.67446520e-01
