72
Lattice="7.395 0 0 3.6975 6.40425786098592 0 0 0 13.6 " PBC="1 1 1" Properties=species:S:1:pos:R:3:force:R:3 Energy="-582.07008279"
C     3.675002967975000e+00   6.351523471631138e+00   1.341099617600000e+01  2.29629120e-01   7.09101910e-01  -3.02017110e-01
C     1.186165468950000e+00   6.936657905269092e-01   1.336676680000000e+01  1.00619439e+00  -1.65039970e+00   1.11883110e-01
C     1.256963387175000e+00   7.569413311630171e-01   3.466976600000000e+00  1.66775230e-01   2.34357540e-01   1.37887000e-01
C     2.499531223650000e+00   1.480112754459940e+00   3.446110800000000e+00 -2.41223700e-02  -7.69420160e-01   2.28490900e-01
C     6.106432157624999e+00   6.358511029297027e+00   1.339341464000000e+01  1.78668968e+00   4.46736170e-01   4.22750160e-01
C     3.677283364125000e+00   6.873994163386351e-01   1.341455135200000e+01  1.96235400e-01  -1.01992839e+00  -7.30195590e-01
C     3.741163185900000e+00   7.624823591060677e-01   3.527090232000000e+00 -2.88722690e-01   5.97551490e-01  -1.48108750e-01
C     4.957105620674999e+00   1.506438032776677e+00   3.597222439999999e+00  5.11011530e-01  -5.54124280e-01  -8.78267660e-01
C     8.650097961449999e+00   6.382969082192103e+00   1.338800360800000e+01 -1.55632972e+00  -8.30336390e-01   2.46154010e-01
C     6.172999063575000e+00   7.002877291115707e-01   1.342031652800000e+01 -9.06399650e-01  -2.10860640e-01   1.09787020e-01
C     6.194034769649999e+00   7.867374610695600e-01   3.582041440000000e+00 -1.28304570e-01   1.07852550e-01  -4.03053680e-01
C     7.433319078224999e+00   1.484928051902295e+00   3.486356872000000e+00 -4.54942970e-01   4.92985120e-01   2.84447380e-01
C     1.217983750575000e+00   2.096009144132303e+00   1.333119790400000e+01 -2.90353780e-01   3.70889900e-02   7.38956280e-01
C     2.435780925300000e+00   2.804772011925484e+00   1.329391649600000e+01  1.17272334e+00  -5.46642810e-01  -1.17379820e-01
C     2.501304211875000e+00   2.891742666217806e+00   3.470132208000000e+00 -1.68609990e-01   2.85523320e-01   3.24412210e-01
C     3.741201270149999e+00   3.605039108150080e+00   3.589350760000000e+00 -9.50910190e-01   4.28653910e-01  -9.10209930e-01
C     3.686785902150000e+00   2.100872985849238e+00   1.330023342400000e+01  2.42563700e-01   6.50575000e-03   1.52086144e+00
C     4.930045910624999e+00   2.820424722603688e+00   1.349991624000000e+01 -8.82035100e-01  -1.87674830e-01  -9.90153570e-01
C     4.982974809675000e+00   2.931597131391529e+00   3.513841928000000e+00 -9.44410780e-01  -7.62835940e-01   9.59468040e-01
C     6.190539707774999e+00   3.649940704900691e+00   3.535960559999999e+00  4.34523010e-01  -3.25121850e-01  -1.28170230e-01
C     6.167669154300000e+00   2.147332034068822e+00   1.350872074400000e+01 -7.38900610e-01  -2.33786514e+00   6.79906500e-02
C     7.396209637124999e+00   2.795492562499237e+00   1.351944189600000e+01  5.79631920e-01   6.21863010e-01  -3.80777220e-01
C     7.414683086625000e+00   2.931622107997183e+00   3.494100576000000e+00  2.60964400e-02  -1.27375492e+00  -2.02446240e-01
C     8.641879971900000e+00   3.603042388634489e+00   3.468287096000000e+00  1.30536707e+00   4.26846880e-01   4.51089460e-01
C     2.469276947550000e+00   4.207661200428286e+00   1.329330082400000e+01 -3.28177710e-01   6.91153050e-01   4.24245870e-01
C     3.696277495575000e+00   4.929569704075217e+00   1.336038500000000e+01 -5.31453730e-01   4.38977960e-01   2.31966980e-01
C     3.714332499000000e+00   5.028176510643687e+00   3.601312776000000e+00 -5.02464200e-02   4.01130600e-01  -3.53786420e-01
C     4.944277514175000e+00   5.725772658261857e+00   3.562252624000000e+00 -8.79001300e-02   1.55253210e+00  -2.12112730e-01
C     4.918775412975000e+00   4.239019713082355e+00   1.346782445600000e+01  3.52435370e-01  -4.48114730e-01   7.96635100e-02
C     6.148846549875000e+00   4.931307435402949e+00   1.350054483200000e+01  7.93198300e-01   2.70701270e-01   1.68021240e-01
C     6.181330233599999e+00   5.067462405804599e+00   3.559065464000000e+00  3.99934280e-01  -1.02345783e+00  -4.34038440e-01
C     7.423976161274999e+00   5.740478627500617e+00   3.504349264000000e+00  4.16958550e-01   5.55661370e-01   6.38085040e-01
C     7.421736252750000e+00   4.189703661388846e+00   1.355730375200000e+01 -1.18692815e+00   2.29257758e+00  -1.13365983e+00
C     8.633553349800000e+00   4.908794611790269e+00   1.334288030400000e+01  6.11230500e-02   1.63005502e+00   1.06883525e+00
C     8.656279700775000e+00   5.016940560441210e+00   3.557229056000000e+00  2.66415800e-02   1.19625060e+00  -7.41493810e-01
C     9.884911290000000e+00   5.778443900648219e+00   3.550110952000000e+00 -1.77126380e-01  -1.55803000e+00   5.46564950e-01
C     7.396824272549999e+00   2.603804735171640e-02   7.016985824000000e+00  5.63410860e-01   9.02508450e-01  -5.14705980e-01
C     1.259956772250000e+00   7.334468629055568e-01   6.867090295999999e+00 -1.05730390e+00   7.13647360e-01   4.23282100e-02
C     1.215866081400000e+00   6.576208340986285e-01   1.018243097600000e+01 -1.48476908e+00   7.46187900e-02   4.98998280e-01
C     2.422419861150000e+00   1.369735882583468e+00   1.020392319200000e+01  9.88260090e-01   2.60163290e-01   1.98337700e-01
C     2.473340647950000e+00   2.915320645997761e-02   6.755618984000000e+00  6.29811000e-01  -2.96258700e-01   3.71547610e-01
C     3.694656770400000e+00   7.709644143861661e-01   6.709357632000000e+00  1.89223000e-01  -6.11926300e-01   2.03024350e-01
C     3.676903667850000e+00   6.581584075033969e-01   1.037233280800000e+01 -9.34291530e-01   2.76963600e-01  -1.60198560e+00
C     4.898708156100000e+00   1.356398631334547e+00   1.022059937600000e+01 -1.39190320e-01   4.90291400e-01   9.50047790e-01
C     4.922555404200000e+00   2.833627932735600e-02   6.815479112000000e+00  3.50351700e-02   7.18019890e-01   6.48665480e-01
C     6.147164889900000e+00   7.272877600364376e-01   6.983214167999999e+00  7.07332570e-01   4.17614170e-01  -9.77161620e-01
C     6.116548924350000e+00   6.558992415007032e-01   1.029829876000000e+01  9.31384100e-02  -9.03954410e-01  -6.40376330e-01
C     7.328064897000000e+00   1.355548530146210e+00   1.020527897600000e+01  1.66302025e+00  -4.38097300e-01  -2.06504300e-01
C     8.646467127375001e+00   2.178300143163745e+00   6.823776335999999e+00  5.45773450e-01  -6.14435960e-01  -2.81880020e-01
C     2.486437673625000e+00   2.926021968754084e+00   6.691041832000000e+00 -5.27943200e-01  -1.18952715e+00   1.33685606e+00
C     2.415080619450000e+00   2.812738524447852e+00   1.012596037600000e+01  6.27593090e-01  -1.34981581e+00   2.69410050e-01
C     3.659297984625000e+00   3.499598702274676e+00   1.009754249600000e+01  1.15648610e-01   3.24485500e-02   6.26207740e-01
C     3.704266203150000e+00   2.196751130271298e+00   6.686464343999999e+00  5.15101950e-01  -2.25305000e-03   1.97178810e-01
C     4.958439087075000e+00   2.906480016320081e+00   6.753655416000000e+00 -3.99259850e-01  -1.90963583e+00   2.52973670e-01
C     4.905661009050000e+00   2.777266877183199e+00   1.016561865600000e+01 -9.45319050e-01   4.65347710e-01  -2.32491690e-01
C     6.117805039049999e+00   3.493288651047796e+00   1.021919014400000e+01  5.45759520e-01   3.03838300e-01  -2.72810600e-01
C     6.180333387599999e+00   2.146765129163055e+00   6.860130903999999e+00 -5.58971490e-01   5.31940810e-01   2.43923200e-01
C     7.406719411125000e+00   2.852118626241885e+00   6.878969623999999e+00  3.63092340e-01   1.16684342e+00  -3.03802420e-01
C     7.341873987225000e+00   2.750404922057793e+00   1.017920097600000e+01  3.29800830e-01   1.80084721e+00   5.39369950e-01
C     8.586733830000000e+00   3.491141815727967e+00   1.020851387200000e+01 -6.87999740e-01   1.91873090e-01  -3.20037310e-01
C     9.888960422249999e+00   4.325189066631233e+00   6.905029672000000e+00 -4.74910310e-01  -4.77118000e-02  -7.73077180e-01
C     3.710776391400000e+00   5.031322410189676e+00   6.957304944000000e+00  1.02470365e+00  -9.73189630e-01  -5.39697980e-01
C     3.639619815674999e+00   4.918055232698408e+00   1.016898112000000e+01  1.49596708e+00   3.35492100e-01   3.04521110e-01
C     4.898261091375000e+00   5.648905040956578e+00   1.022657875200000e+01 -1.77870450e-01  -8.30547360e-01  -3.47983320e-01
C     4.959898749150000e+00   4.291053091385861e+00   6.814379959999999e+00 -2.01341670e-01   1.53285763e+00   4.03721970e-01
C     6.210266277000000e+00   4.986895945329699e+00   6.808306064000001e+00 -1.26320424e+00   1.44542563e+00  -9.30840100e-02
C     6.130117935900000e+00   4.934009455836661e+00   1.026178983200000e+01  3.41144290e-01  -1.99128250e-01   1.50407740e-01
C     7.387954228875000e+00   5.647215725818267e+00   1.036153957600000e+01 -1.32268546e+00  -6.04544260e-01  -3.08440350e-01
C     7.425103639949999e+00   4.309055204060007e+00   6.827072432000000e+00  1.71713360e-01  -1.56341546e+00   9.64971600e-02
C     8.648096024025000e+00   5.022834142779454e+00   6.866519776000000e+00 -2.22398670e-01  -1.36463640e-01  -3.83392400e-02
C     8.603448267825000e+00   4.917942005419443e+00   1.031328011200000e+01 -5.11095810e-01  -3.15214510e-01  -3.16668650e-01
C     9.822141272849999e+00   5.623868427406429e+00   1.028703578400000e+01 -2.21552800e-02   4.21798690e-01  -2.36784020e-01
