72
Lattice="7.395 0 0 3.6975 6.40425786098592 0 0 0 13.6 " PBC="1 1 1" Properties=species:S:1:pos:R:3:force:R:3 Energy="-582.24158669"
C     3.720199359225000e+00   6.338316482987089e+00   1.339326694400000e+01 -1.44937115e+00   8.19195520e-01   4.98868790e-01
C     1.216320134400000e+00   6.673368617831916e-01   1.343989046400000e+01  2.70811300e-01   3.29159570e-01  -2.95300590e-01
C     1.275345249600000e+00   7.952261767778328e-01   3.604225896000000e+00  8.29469100e-02   1.39530880e-01  -4.82355320e-01
C     2.515661900175000e+00   1.511188327001753e+00   3.591667384000000e+00 -9.34794230e-01   8.13720740e-01  -1.79477700e-01
C     6.113419988924999e+00   6.369695040968259e+00   1.341168936800000e+01  2.45733504e+00  -1.31349194e+00   7.00218300e-02
C     3.690013006200000e+00   6.831850944538620e-01   1.343819862400000e+01  1.01123750e-01  -1.23599734e+00  -7.46480100e-02
C     3.719579991000000e+00   7.859962322648436e-01   3.529253040000000e+00  5.96765110e-01   6.55376800e-01  -8.01453300e-02
C     4.939778765924999e+00   1.496961268165764e+00   3.478693544000000e+00  1.44947102e+00   4.26279640e-01   5.97876240e-01
C     8.647093114124999e+00   6.330295662358068e+00   1.343455056000000e+01 -1.51218541e+00   8.28026600e-01   1.00048680e-01
C     6.176886689024999e+00   6.605435452581967e-01   1.340133283200000e+01 -6.39445540e-01  -9.60092970e-01  -2.09765350e-01
C     6.211747976174999e+00   8.036153062763826e-01   3.519436151999999e+00 -6.44082680e-01  -6.96008730e-01  -6.75058000e-02
C     7.445756691749999e+00   1.517447144165753e+00   3.580936984000000e+00 -4.38021830e-01  -7.41290800e-01  -1.72329710e-01
C     1.221450896325000e+00   2.101039176340705e+00   1.343917823200000e+01 -2.09087930e-01  -9.81350420e-01  -5.18807400e-02
C     2.435686713000000e+00   2.793535613424956e+00   1.351648022400000e+01  1.09427907e+00   4.65767130e-01  -4.29996910e-01
C     2.508753971850000e+00   2.964401597385228e+00   3.570416703999999e+00 -4.45279200e-02  -1.32198445e+00  -2.31072080e-01
C     3.771959663400000e+00   3.650309269940533e+00   3.495169672000000e+00 -1.91430320e+00  -1.09591470e-01   4.07218130e-01
C     3.697266318000000e+00   2.107003141472830e+00   1.345125231200000e+01 -9.74597440e-01  -1.15787938e+00   1.75746430e-01
C     4.918819709025000e+00   2.788700975123864e+00   1.334948732000000e+01  2.15508610e-01  -1.49652080e-01   2.56528500e-02
C     4.960692898200000e+00   2.935914305657533e+00   3.529328248000000e+00  7.78745550e-01  -1.06074194e+00  -4.50497230e-01
C     6.201095478674999e+00   3.640374024509422e+00   3.544528832000000e+00  1.55428000e-03  -6.60246380e-01  -5.49485000e-02
C     6.136938566249999e+00   2.069033449387304e+00   1.329037981600000e+01  1.12633264e+00   3.14063430e-01   5.40205110e-01
C     7.397301915600000e+00   2.792626977319780e+00   1.328682722400000e+01 -1.23701814e+00  -1.08389755e+00   4.76302110e-01
C     7.428893947199999e+00   2.923472881998069e+00   3.580018304000000e+00 -1.24976690e-01   2.35159160e-01  -8.75189500e-02
C     8.635031203575000e+00   3.638329785400511e+00   3.574445568000000e+00  1.51793785e+00   8.15301080e-01  -6.94316900e-02
C     9.826674925500001e+00   4.215589415488651e+00   1.350371159200000e+01  9.76988240e-01   5.41972000e-03  -1.42795290e-01
C     3.687758714400000e+00   4.941361671945098e+00   1.344082097600000e+01 -1.39976900e-02  -1.44405011e+00  -1.89729570e-01
C     3.762416637749999e+00   5.059300819587815e+00   3.499145360000000e+00 -9.87176570e-01   3.23420030e-01  -5.29662000e-03
C     4.954898102250000e+00   5.774366181583600e+00   3.511813896000000e+00  1.96280661e+00   7.80653500e-02   3.34874190e-01
C     4.921880166750000e+00   4.196869257423243e+00   1.333113289600000e+01 -6.93795700e-01   8.86994740e-01   5.71432810e-01
C     6.138535701375000e+00   4.895464085012101e+00   1.331862361600000e+01  2.07559350e-01   1.70457402e+00   7.29499200e-02
C     6.217240279649999e+00   5.037496114766715e+00   3.529204352000000e+00 -8.61211940e-01   1.70882210e+00  -9.97693000e-03
C     7.440687752025000e+00   5.786595304095006e+00   3.538350216000000e+00 -7.93756000e-01  -9.42326160e-01  -4.08034800e-02
C     7.372595257574999e+00   4.177717900676120e+00   1.328718748800000e+01  2.25410980e-01   1.77043740e+00   9.08267600e-01
C     8.600059065375000e+00   4.893933723553875e+00   1.346136364000000e+01  3.27706400e-02   1.10978608e+00  -5.90078090e-01
C     8.650003860075000e+00   5.076328140173090e+00   3.548483032000000e+00  1.18969913e+00  -4.68813100e-01  -1.40362350e-01
C     9.920247742874999e+00   5.763333758695913e+00   3.523261288000000e+00 -8.86815970e-01   7.26930590e-01  -9.78303300e-02
C     7.401029402324999e+00   5.790697935722700e-02   6.661727032000000e+00  1.53584305e+00  -7.55950880e-01   9.56901470e-01
C     1.251611921475000e+00   7.857066957669930e-01   6.816729768000000e+00  3.90637460e-01  -1.60797200e+00   3.28469000e-03
C     1.173421887300000e+00   6.432381517966405e-01   1.024374576000000e+01  8.98481910e-01  -9.22729490e-01  -4.97963740e-01
C     2.434903915275000e+00   1.329549997065490e+00   1.018657992800000e+01 -1.45412410e+00   7.73371180e-01   4.30494700e-01
C     2.512537734525000e+00   4.678214302862100e-02   6.931784136000000e+00 -1.89873860e+00   2.47620170e-01  -3.17250020e-01
C     3.731675696700000e+00   7.339638146000160e-01   6.993778240000000e+00  4.87037320e-01   1.20859396e+00  -4.39242270e-01
C     3.639069220950000e+00   6.170761180127544e-01   1.008222767200000e+01  5.53875300e-01   1.02521242e+00   4.76459370e-01
C     4.883530806000000e+00   1.328748504194311e+00   1.016010304000000e+01 -4.69338280e-01   7.90206560e-01   1.47245170e-01
C     4.977094009875000e+00   3.650074746017700e-02   6.869461455999999e+00 -1.97555170e-01   8.61470840e-01  -1.96285620e-01
C     6.203977310175000e+00   7.657615312581234e-01   6.737032408000000e+00 -1.15492724e+00   3.23149260e-01   5.00498260e-01
C     6.100276226849999e+00   6.471064516292376e-01   1.016365876000000e+01  1.16338253e+00  -6.13755110e-01   5.80120800e-02
C     7.351297324800000e+00   1.360040604694372e+00   1.024585988000000e+01 -8.52931600e-01  -7.03233180e-01  -1.13244890e-01
C     1.260058749300000e+00   2.180486492754570e+00   6.863273864000000e+00 -9.25959060e-01   1.20687424e+00   1.40332600e-02
C     2.488801929075000e+00   2.886344261097297e+00   6.956624807999999e+00 -1.47219740e-01   3.11613210e-01  -6.22177580e-01
C     2.414357462400000e+00   2.771135824963506e+00   1.028321513600000e+01  3.13192250e-01  -6.19265720e-01  -5.01671390e-01
C     3.634533497700000e+00   3.497219712607421e+00   1.030364192800000e+01  9.51991960e-01  -1.62968415e+00  -2.73804240e-01
C     3.710525516025000e+00   2.185100312244650e+00   7.008534784000000e+00  1.14478667e+00  -5.04506800e-01  -3.70939900e-01
C     4.966944520275000e+00   2.908436901351782e+00   6.944994495999999e+00 -1.36926608e+00  -4.12852180e-01  -3.67220130e-01
C     4.904124771750000e+00   2.753389626433446e+00   1.028646839200000e+01 -1.73021207e+00   2.57892340e-01  -5.68400330e-01
C     6.119704888499999e+00   3.447295960885577e+00   1.023010292000000e+01 -3.24743290e-01   1.78575250e+00   3.41523100e-02
C     6.181606917524999e+00   2.194942631894212e+00   6.822200776000000e+00  4.38275170e-01   2.41316500e-01   1.42952040e-01
C     7.401401555700000e+00   2.936184437254068e+00   6.812139495999999e+00  8.87206880e-01  -1.72337932e+00   2.04796770e-01
C     7.334839197675000e+00   2.761878406184298e+00   1.025063456800000e+01  1.37537072e+00   4.17740970e-01  -4.25173970e-01
C     8.587643008275000e+00   3.478288406160368e+00   1.022249807200000e+01 -4.33605900e-01   3.94936630e-01  -4.40881800e-02
C     9.880451365500001e+00   4.312266555121325e+00   6.797364320000000e+00  6.47636000e-02  -6.04388090e-01   5.01213780e-01
C     3.704785923749999e+00   5.003533566824193e+00   6.740450224000000e+00 -1.26358700e-02   1.90123576e+00   2.15998260e-01
C     3.619201813949999e+00   4.887802735376761e+00   1.026114328800000e+01  1.05985036e+00   1.01196804e+00  -3.05797760e-01
C     4.862500091549999e+00   5.600293457627669e+00   1.022561138400000e+01  3.79326000e-01   6.29882630e-01  -1.62365000e-02
C     4.929698641425000e+00   4.336490980689669e+00   6.870459832000000e+00  6.23431680e-01  -1.08022874e+00   9.16230000e-03
C     6.154891296824999e+00   5.031745283336172e+00   6.902966687999999e+00  1.29929047e+00   4.90717610e-01  -2.83081880e-01
C     6.109597772250000e+00   4.904709591871690e+00   1.017339323200000e+01 -2.36023450e-01  -4.84350640e-01  -8.81370700e-02
C     7.330713527174998e+00   5.635344409193499e+00   1.005227176800000e+01  9.34645840e-01  -2.05900287e+00   6.17755580e-01
C     7.408013942849999e+00   4.333479890771632e+00   6.864804815999999e+00  7.00410400e-02   5.86165970e-01   1.25275580e-01
C     8.672643726524999e+00   5.039704623089737e+00   6.833250368000000e+00 -1.21820912e+00  -6.30451940e-01  -2.10910700e-02
C     8.615307296550000e+00   4.911807430857928e+00   1.011232583200000e+01 -2.59341185e+00  -5.38423300e-01   1.34817350e-01
C     9.806034740999999e+00   5.615857341249356e+00   1.014518873600000e+01  5.50682350e-01   6.21543090e-01   2.78265350e-01
