72
Lattice="7.395 0 0 3.6975 6.40425786098592 0 0 0 13.6 " PBC="1 1 1" Properties=species:S:1:pos:R:3:force:R:3 Energy="-579.48347029"
C     1.104315405240000e+01   6.322855900044685e+00   1.352314340800000e+01  2.51264260e-01   5.47913320e-01  -6.99255370e-01
C     1.243023886125000e+00   5.461611943457670e-01   1.348607062400000e+01 -2.63881088e+00   3.88361330e+00   3.29275900e-01
C     1.244210376900000e+00   8.237011723304365e-01   3.562642672000000e+00  1.56905768e+00  -3.31767870e-01   2.51682100e-01
C     2.524054670550000e+00   1.470029250459370e+00   3.612013800000000e+00  2.52099430e-01   9.60651370e-01  -6.93260700e-02
C     6.164182411800000e+00   6.325624460717562e+00   1.344455608000000e+01 -5.94356560e-01  -1.66490504e+00  -2.84753610e-01
C     3.681758522325000e+00   6.155137993078074e-01   1.350733177600000e+01 -6.61567810e-01  -2.33508810e-01  -9.49989000e-03
C     3.813313834500000e+00   8.513893407623605e-01   3.562623088000000e+00 -2.32758226e+00  -2.22784385e+00  -2.15740940e-01
C     5.013437218050000e+00   1.548772546806685e+00   3.498188872000000e+00 -3.22372660e-01   5.32347190e-01  -2.68603420e-01
C     8.568800733149999e+00   6.321176703633792e+00   1.344175135200000e+01  2.12054957e+00   5.66132500e-01  -3.64241700e-02
C     6.066306517875000e+00   6.378547966821030e-01   1.338757221600000e+01  2.98076734e+00   4.39590700e-02   6.79324380e-01
C     6.214908192449999e+00   8.135031601993297e-01   3.450336184000000e+00  8.78141320e-01   2.93719540e-01   2.63431980e-01
C     7.451298356850000e+00   1.562170254249805e+00   3.571636624000000e+00 -1.05101788e+00  -1.23748603e+00  -4.84932070e-01
C     1.206394972125000e+00   2.038236974403030e+00   1.352288432800000e+01  6.59705710e-01  -5.86087890e-01  -1.48385250e-01
C     2.454589442250000e+00   2.709814287443063e+00   2.636183200000000e-02 -3.85813200e-01   1.86013864e+00  -1.08720300e-01
C     2.525647701450000e+00   2.874637982197582e+00   3.627969048000000e+00 -4.17227330e-01   2.20133578e+00  -4.82918500e-01
C     3.702344168700000e+00   3.651657878560692e+00   3.469582632000000e+00  1.93885742e+00  -1.41471630e-01   2.42387390e-01
C     3.702042304800000e+00   1.995329663550023e+00   1.186858400000000e-02 -5.88299920e-01   2.45374427e+00  -1.27775753e+00
C     4.895572787024999e+00   2.743583106585322e+00   1.332358856800000e+01 -3.60895100e-02   1.38623871e+00   1.19575177e+00
C     4.951067011575000e+00   2.967300740875872e+00   3.437976912000000e+00  2.08081611e+00   1.13633724e+00   4.15570470e-01
C     6.252526187700000e+00   3.724399104441616e+00   3.474593960000000e+00 -1.87105609e+00  -2.73678811e+00   3.05623960e-01
C     6.112397925975000e+00   2.044198441874589e+00   1.327916362400000e+01  1.63536552e+00   1.42947187e+00   5.12527210e-01
C     7.411276358024999e+00   2.818528421851342e+00   1.335520476000000e+01 -1.49292640e+00  -1.53696858e+00  -8.14177500e-02
C     7.478578179075000e+00   2.965171453222579e+00   3.620146328000000e+00 -5.19919020e-01   1.32122724e+00  -4.43901760e-01
C     8.728408423199999e+00   3.653197205979922e+00   3.655610368000000e+00 -1.69672999e+00   1.92151250e-01  -1.00265245e+00
C     2.438561001600000e+00   4.195429964511786e+00   1.730640800000000e-02  1.85694295e+00  -1.49667073e+00  -3.98920860e-01
C     3.683278342725000e+00   4.932906194335120e+00   1.357074259200000e+01 -1.67065570e-01  -1.81086473e+00  -5.51565070e-01
C     3.725238571050000e+00   5.099963117847999e+00   3.438513432000000e+00 -4.58265940e-01  -1.40413020e+00   1.29202330e-01
C     4.926605571750000e+00   5.821809436151109e+00   3.516123192000000e+00  1.44260512e+00  -1.17966095e+00  -4.34150510e-01
C     4.923623611949999e+00   4.220725886462686e+00   1.334794698400000e+01 -9.73675970e-01  -1.58011843e+00   4.20592340e-01
C     6.151878647775000e+00   4.902099152325375e+00   1.325063259200000e+01  3.03374070e-01   9.90591890e-01   1.05866568e+00
C     6.202913428500000e+00   5.098680088828326e+00   3.508239000000000e+00  3.21238230e-01   2.08904596e+00   1.77791250e-01
C     7.474866813449999e+00   5.812064205050704e+00   3.535775600000000e+00 -1.46385692e+00   6.45343580e-01  -2.77508320e-01
C     7.407617681774999e+00   4.261806702974020e+00   1.330947367200000e+01  5.49366140e-01  -2.83391825e+00   4.49845240e-01
C     8.670464974649999e+00   4.934733521230314e+00   1.346878352800000e+01 -2.75821848e+00  -1.40364581e+00  -1.29395950e-01
C     8.666613732599998e+00   5.108835576687243e+00   3.462724016000000e+00  8.28321260e-01  -2.57508114e+00   8.75529920e-01
C     9.887225961975000e+00   5.773639874699698e+00   3.401553664000000e+00  8.17075920e-01   2.47277665e+00   3.61244610e-01
C     7.417994234849999e+00   1.033154090748780e-01   6.658441136000000e+00  7.48060000e-03  -1.53495304e+00   4.80736500e-01
C     1.253397629100000e+00   7.973207533535245e-01   6.819091951999999e+00  1.10009711e+00  -2.06710926e+00   5.19238740e-01
C     1.173259936800000e+00   6.238163432400899e-01   1.015254239200000e+01 -5.94179250e-01  -9.44456750e-01   1.14638790e-01
C     2.396392567050000e+00   1.301439595912856e+00   1.022570536000000e+01 -1.19489910e-01   1.56876427e+00  -4.32533620e-01
C     2.503276199550000e+00   6.374401209856680e-02   7.011168152000000e+00 -1.95727448e+00   2.43678690e-01  -9.96374870e-01
C     3.657370847625000e+00   8.041656881968711e-01   7.099289488000000e+00  2.83601641e+00   9.60626870e-01  -9.40422930e-01
C     3.596487036150000e+00   6.121303658377909e-01   1.003999804000000e+01  2.69975597e+00   4.50997770e-01   6.51627720e-01
C     4.909572705225000e+00   1.350901152344944e+00   1.010212882400000e+01 -3.10057021e+00  -9.61861180e-01  -2.31694690e-01
C     4.895466225074999e+00   9.191935242590100e-02   6.821281824000000e+00  3.76994450e-01   1.66332590e-01   3.51600730e-01
C     6.159994475400000e+00   7.643029615305084e-01   6.670562408000000e+00 -1.81984350e-01   1.10488253e+00   1.28852930e+00
C     6.081286236600000e+00   5.909885017052017e-01   1.004556370400000e+01  1.22978475e+00  -1.16545680e-01   6.22725960e-01
C     7.321852838174999e+00   1.333542027159943e+00   1.015590472000000e+01 -1.79857080e-01  -1.33148933e+00  -9.20445100e-02
C     1.317526810275000e+00   2.161912928151577e+00   6.884164960000000e+00 -2.07897305e+00   2.64838695e+00   3.83442180e-01
C     2.497447053825000e+00   2.942845313726518e+00   7.034390288000000e+00 -6.05687300e-02   1.40874128e+00  -7.30137620e-01
C     2.389543539900000e+00   2.740713550765991e+00   1.030071983200000e+01  2.14451390e-01   7.38818880e-01  -4.53628590e-01
C     3.626786865450000e+00   3.506685974235444e+00   1.031697536800000e+01  5.57106600e-02  -3.49764102e+00  -6.53283580e-01
C     3.711416946299999e+00   2.267224736529152e+00   7.148935335999999e+00  1.52496890e-01  -2.19288841e+00  -1.06827419e+00
C     4.964239022550000e+00   2.893511842451630e+00   6.989217751999999e+00  3.53015750e-01   2.25537936e+00  -3.40700890e-01
C     4.863975468000000e+00   2.781162971494908e+00   1.020131525600000e+01 -3.63345800e-02  -1.22091302e+00   3.67695210e-01
C     6.087498332399999e+00   3.446258855367728e+00   1.018205153600000e+01  3.78458970e-01   1.92114551e+00  -5.12312280e-01
C     6.181964096025000e+00   2.201958752550157e+00   6.862745776000000e+00  4.29134900e-02  -1.91819870e+00  -3.18256100e-01
C     7.424115150300000e+00   2.859995415111635e+00   6.885699856000000e+00  1.05785367e+00   1.38490820e-01  -2.17707980e-01
C     7.303986924900000e+00   2.741937660613351e+00   1.019622396000000e+01  4.48054610e-01  -2.11261030e-01  -4.66227940e-01
C     8.546326144949999e+00   3.443695102861213e+00   1.016465183200000e+01  4.62449710e-01  -4.15977470e-01   2.52169650e-01
C     9.916244052900000e+00   4.407909535194766e+00   6.835532583999999e+00 -1.43588659e+00  -1.89975185e+00   3.13827320e-01
C     3.762957027375000e+00   5.050141257868708e+00   6.754336096000000e+00  2.57005060e-01   1.32822528e+00   1.09541310e-01
C     3.683194779225000e+00   4.861450687262169e+00   1.024050732800000e+01 -1.88082883e+00   2.21910206e+00  -7.46570490e-01
C     4.916310881325000e+00   5.581022981684351e+00   1.013539401600000e+01 -2.32489999e+00   1.73272999e+00   2.13066470e-01
C     5.023427456325001e+00   4.345609363030737e+00   6.851471648000000e+00 -2.27778911e+00  -7.52928810e-01   4.20173840e-01
C     6.224285089425000e+00   5.059204819762494e+00   6.901424855999999e+00  4.89665690e-01  -1.62741966e+00   1.73878550e-01
C     6.108092520000000e+00   4.914003194707807e+00   1.006875388000000e+01  2.90636110e-01  -2.58241868e+00   3.92154910e-01
C     7.299618291674999e+00   5.607149023539064e+00   9.945095200000001e+00  2.41367034e+00  -2.62706790e-01   6.30453840e-01
C     7.425900931874999e+00   4.251380571177940e+00   6.931165744000000e+00  7.03930900e-01   3.69900137e+00  -4.80490440e-01
C     8.629680662249999e+00   5.087558582713807e+00   6.811652071999999e+00  5.05043680e-01  -1.98579842e+00   4.83436620e-01
C     8.571082053674999e+00   4.844241934051721e+00   9.996028832000000e+00 -1.18185163e+00   8.94184040e-01   5.88512710e-01
C     9.787346577674999e+00   5.526362512764094e+00   1.007923540000000e+01  1.26480887e+00   2.08999444e+00   8.45255700e-02
