72
Lattice="7.395 0 0 3.6975 6.40425786098592 0 0 0 13.6 " PBC="1 1 1" Properties=species:S:1:pos:R:3:force:R:3 Energy="-574.20178591"
C     3.708609804300000e+00   6.250500466657247e+00   1.313451116800000e+01 -3.41601400e-02   3.33583772e+00   1.32788735e+00
C     1.318640238450000e+00   6.046902833115144e-01   1.321905366400000e+01 -3.40067141e+00   3.79423480e-01   5.22998700e-02
C     1.337578907400000e+00   9.177505168779949e-01   3.810919919999999e+00 -5.02420370e-01  -9.98073320e-01  -7.05727300e-01
C     2.543205908775000e+00   1.670542529373518e+00   3.762956936000000e+00 -3.51538530e-01  -1.33593626e+00  -2.82528000e-02
C     6.234061094549999e+00   6.293658119950001e+00   1.324303644800000e+01 -3.01890206e+00   2.28111884e+00  -2.82385440e-01
C     3.719042300550000e+00   6.472167329495869e-01   1.318473324800000e+01 -1.71069456e+00  -2.47156820e+00   1.34756962e+00
C     3.748615349250000e+00   8.894712354455929e-01   3.681594256000000e+00  8.97128810e-01   9.64412290e-01  -2.12564130e-01
C     5.025243150674999e+00   1.532823318989563e+00   3.561228272000000e+00 -1.80733779e+00   1.41708976e+00   2.22780913e+00
C     8.559311654025000e+00   6.314945809034063e+00   1.328184799200000e+01  1.46758685e+00  -2.57088996e+00   9.02930300e-02
C     6.083725366425000e+00   4.866010839071382e-01   1.320267028800000e+01  4.65816891e+00   4.10402871e+00  -7.00151960e-01
C     6.245226805050000e+00   8.107903165698337e-01   3.705115048000000e+00 -9.74154910e-01   4.98070073e+00  -3.84962000e-01
C     7.434081909450001e+00   1.525228061295338e+00   3.785392448000000e+00  4.08991681e+00   3.65645777e+00  -5.12917360e-01
C     1.228362226350000e+00   2.040247206902705e+00   1.325332185600000e+01 -1.03799874e+00   3.51208430e-01  -7.76958890e-01
C     2.428049193975000e+00   2.799033732840345e+00   1.333073020000000e+01  1.52939250e+00  -2.58094913e+00   3.50245410e-01
C     2.502916765575000e+00   3.067510341058964e+00   3.742840224000000e+00  3.46889256e+00  -7.90686800e-02  -7.30721040e-01
C     3.778934072775000e+00   3.737120330126984e+00   3.599365120000000e+00 -1.86729640e-01   1.60517663e+00   1.95206927e+00
C     3.694085987325000e+00   1.972998720860568e+00   1.334733430400000e+01 -1.80801700e-01   5.78817620e+00  -1.88666222e+00
C     4.935626769224999e+00   2.703431611932051e+00   1.306414952800000e+01 -1.04013326e+00   2.29717350e-01   1.77139531e+00
C     4.976663805749999e+00   2.988144614890235e+00   3.783963088000000e+00  3.68789170e-01  -1.71064334e+00  -2.56944860e+00
C     6.200837282249999e+00   3.644589755330924e+00   3.749655048000000e+00  3.83519456e+00   3.04991133e+00  -3.83658670e-01
C     6.160707094574999e+00   1.954071449095966e+00   1.303285484000000e+01 -1.75039874e+00   1.88614220e-01   5.98716320e-01
C     7.327808993024999e+00   2.729069393167518e+00   1.300163005600000e+01  3.01976399e+00   1.54539760e-01   1.09762753e+00
C     7.569655738574999e+00   3.046190438557867e+00   3.721346920000000e+00 -7.05094425e+00  -4.06510577e+00   7.48973810e-01
C     8.708895976199999e+00   3.768938540410244e+00   3.763860655999999e+00  6.01210690e-01   1.32253900e-01  -5.98873800e-01
C     2.464087543275000e+00   4.189194074590925e+00   1.333731532000000e+01 -2.42129606e+00   8.83147170e-01   2.19609430e-01
C     3.680317384725000e+00   4.904144159945231e+00   1.322302772000000e+01  2.19121990e-01  -3.12109061e+00   1.31248670e-01
C     3.867184449825000e+00   5.228304125149506e+00   3.690669536000000e+00 -1.88890510e+00  -2.69864349e+00  -2.52718030e-01
C     5.108203070775000e+00   5.889406441905987e+00   3.677663176000000e+00 -1.92438910e+00   1.59446480e-01   5.37051420e-01
C     4.879123607850000e+00   4.158585244361949e+00   1.310946772000000e+01  1.56507108e+00   9.43510000e-02   4.22419260e-01
C     6.086064959550000e+00   4.948931248565304e+00   1.312795678400000e+01  2.55157649e+00  -4.52130725e+00  -1.00781386e+00
C     6.271746864975000e+00   5.107760365835127e+00   3.683153904000000e+00 -7.15518240e-01  -2.66406450e-01   6.51170890e-01
C     7.436783931525000e+00   5.891232680077345e+00   3.761401640000000e+00  2.46659093e+00  -2.40184374e+00  -1.13686870e+00
C     7.382180952375000e+00   4.206246691994748e+00   1.298648890400000e+01 -2.59267679e+00  -1.71666566e+00   2.47286611e+00
C     8.541321541725001e+00   4.889281670644372e+00   1.337044777600000e+01  2.12724484e+00  -7.93455150e-01  -2.04676852e+00
C     8.712195440324999e+00   5.146394947971677e+00   3.708701232000000e+00  1.61588710e-01   3.47770153e+00   9.60072760e-01
C     9.979581747224998e+00   5.904720943726605e+00   3.783373392000000e+00 -4.83972360e-01  -5.94243691e+00  -1.17371234e+00
C     6.610257389999999e-02   8.979448371053160e-02   6.616457255999999e+00 -2.37274020e-01   1.04367246e+00   1.56983170e+00
C     1.282828545900000e+00   8.161505523134964e-01   6.873751575999999e+00 -2.58863696e+00   1.20163480e+00  -7.73828700e-01
C     1.133707039800000e+00   4.967705970907680e-01   1.026713204800000e+01 -8.52937270e-01   3.24489085e+00  -1.24775002e+00
C     2.295551721825000e+00   1.202447765361843e+00   1.011124449600000e+01  4.36270619e+00   2.11063319e+00   1.63853700e-01
C     2.468711377950000e+00   1.888181434231092e-01   7.031645944000000e+00  2.70322147e+00  -4.59035929e+00  -2.29081630e-01
C     3.781214542874999e+00   7.639798667214714e-01   7.087379016000001e+00 -7.24546200e-02  -1.76825660e-01  -7.15667700e-02
C     3.610444950750000e+00   5.004533015305824e-01   9.891277415999999e+00 -2.78429161e+00   1.86570049e+00   2.57692562e+00
C     4.810207088549999e+00   1.263702634557964e+00   1.015576219200000e+01  1.49229800e+00  -9.36989100e-01  -1.34814940e+00
C     5.068588869225000e+00   8.185839141299821e-02   7.006564279999999e+00 -1.20575768e+00   8.90147530e-01  -1.56748179e+00
C     6.281185510200000e+00   9.031873625895120e-01   6.737905664000000e+00 -2.41299660e+00  -3.78897371e+00   1.23752097e+00
C     6.096740048775000e+00   5.995660444699926e-01   1.009223074400000e+01 -1.43958198e+00  -1.75095966e+00   4.58368720e-01
C     7.322127414524999e+00   1.298419027693188e+00   1.024050773600000e+01 -6.88991000e-01  -1.17358027e+00   1.25029610e-01
C     8.608500679725001e+00   2.228457394127164e+00   6.900234719999999e+00  2.10565804e+00   1.22470001e+00   1.08896631e+00
C     2.523736389750000e+00   2.886333565986671e+00   7.138029632000000e+00 -2.40379328e+00  -5.97789400e-02  -2.63337397e+00
C     2.366772153375000e+00   2.703246144624426e+00   1.024779529600000e+01  1.03092931e+00  -3.44175592e+00  -5.20848960e-01
C     3.583912504200000e+00   3.373103274003263e+00   1.034096672000000e+01  1.42621603e+00   8.71397820e-01  -1.14753999e+00
C     3.720976277925000e+00   2.137354904791306e+00   7.119909807999999e+00  2.04277115e+00   4.04949192e+00  -1.45507100e-02
C     4.955645847674999e+00   2.991752837811137e+00   7.067381304000000e+00 -8.95101200e-01  -4.59707331e+00  -3.78061920e-01
C     4.847505767700000e+00   2.686469742862105e+00   1.028334488000000e+01 -3.31469419e+00  -2.05782493e+00  -1.13655240e-01
C     6.014049158774999e+00   3.362040366848163e+00   1.021983070400000e+01  3.78101777e+00   4.48235810e-01   2.81844260e-01
C     6.189929287500000e+00   2.281290792322542e+00   6.887114255999999e+00  1.08621989e+00   1.41909026e+00  -1.62513290e-01
C     7.429765300050000e+00   3.010714372355290e+00   6.821261015999999e+00 -1.32134514e+00   2.76332950e-01   7.49928780e-01
C     7.324744468050000e+00   2.702765505072033e+00   1.029195463200000e+01  1.81356120e-01   3.22707170e-01  -1.69654463e+00
C     8.621737323000000e+00   3.420975101506763e+00   1.014976037600000e+01 -5.35496676e+00   7.04100640e-01   7.36388240e-01
C     9.857195569500000e+00   4.273368245646100e+00   6.795766592000000e+00  1.49923412e+00   2.15674650e+00   1.51259780e+00
C     3.694584003600000e+00   5.082895642565942e+00   6.729135160000000e+00 -1.08621980e-01  -1.94930976e+00   9.88682720e-01
C     3.579609168825000e+00   4.791944380111489e+00   1.024979667200000e+01  3.55852490e-01   8.38204460e-01  -6.08843620e-01
C     4.841037878850000e+00   5.556087171152919e+00   1.019366036000000e+01 -2.00618518e+00  -4.87988429e+00   4.06625830e-01
C     4.921512228525000e+00   4.339327810751334e+00   6.993998831999999e+00  1.02684020e-01   4.08955401e+00  -9.84944070e-01
C     6.153253045500000e+00   5.122014386596708e+00   6.992720160000000e+00 -1.17619183e+00   1.12414175e+00   1.28521500e-02
C     6.007009895250000e+00   4.751862115485685e+00   1.016341042400000e+01  1.00259232e+00   3.04420464e+00  -9.12687150e-01
C     7.222087188974999e+00   5.500089685319229e+00   9.953123823999999e+00  1.96755384e+00  -9.03873940e-01   7.04668820e-01
C     7.369914052424999e+00   4.482815720445262e+00   6.930606512000000e+00  1.75949128e+00  -3.50716009e+00  -8.93400300e-02
C     8.653896255299999e+00   5.060266837843417e+00   6.902382704000000e+00  1.05415841e+00   1.15632154e+00  -1.76878790e-01
C     8.505148973175000e+00   4.841813823726680e+00   1.003976711200000e+01  6.15668010e-01  -1.02952495e+00  -6.80348000e-02
C     9.753888935475000e+00   5.497119774779233e+00   1.005241184800000e+01  3.51653030e-01   2.77835943e+00   6.18797050e-01
