72
Lattice="7.395 0 0 3.6975 6.40425786098592 0 0 0 13.6 " PBC="1 1 1" Properties=species:S:1:pos:R:3:force:R:3 Energy="-575.16377176"
C     3.651500252925000e+00   6.103584037517967e+00   3.913273520000000e-01 -8.98379800e-02   4.95441612e+00  -7.26180440e-01
C     1.246686333825000e+00   3.843117650265894e-01   4.061399280000000e-01 -3.09806324e+00   3.29628150e+00  -7.46867040e-01
C     1.461723911925000e+00   1.097618902069490e+00   3.429824256000000e+00  5.15489330e-01   1.12729657e+00  -3.32183600e-01
C     2.723643576000000e+00   1.812209260259799e+00   3.484626408000000e+00  1.05143650e-01  -1.74101776e+00  -3.60050710e-01
C     6.166635074475000e+00   6.138211219341201e+00   3.033632320000000e-01 -2.22726426e+00   2.29353930e-01  -1.48056750e-01
C     3.639499018350000e+00   4.339914504813889e-01   2.287528160000000e-01  2.76464306e+00   3.41726550e-01   1.29884710e+00
C     4.012086479850000e+00   1.143381487246799e+00   3.374137560000000e+00 -1.35307658e+00  -5.23945600e-01  -1.57931910e-01
C     5.260491818400000e+00   1.833099052803018e+00   3.225042936000000e+00 -3.53244158e+00   1.76201925e+00   1.45251745e+00
C     8.588853310950000e+00   6.128718764298531e+00   3.294447680000000e-01 -1.37488403e+00  -7.87859120e-01  -7.17234290e-01
C     6.058292815200000e+00   4.277236033138068e-01   2.638166080000000e-01  4.12845986e+00   1.21526906e+00   2.61836650e-01
C     6.417849399300000e+00   1.096086555291328e+00   3.206442352000000e+00  5.18981220e-01   2.33987416e+00   5.16453900e-01
C     7.611462150900000e+00   1.773556874286397e+00   3.378213208000000e+00  2.71855169e+00   4.58991070e+00  -2.24463900e-02
C     1.194589372275000e+00   1.878429222489620e+00   3.659357440000000e-01  1.03232144e+00  -9.68474600e-01   5.54785000e-02
C     2.432631394800000e+00   2.589477897998191e+00   4.977450399999999e-01  9.15585940e-01  -2.67923776e+00  -8.59676270e-01
C     2.707269197250000e+00   3.162363996351160e+00   3.435602488000000e+00  2.04149587e+00   3.89622314e+00  -6.98456180e-01
C     3.943932569925000e+00   3.909791418207675e+00   3.183763808000000e+00 -1.31456519e+00   2.29394047e+00   1.86007622e+00
C     3.680763266250000e+00   1.821387330284122e+00   4.200623840000000e-01 -7.03650890e-01   1.89693003e+00  -1.72513583e+00
C     4.882537361700000e+00   2.568835309808368e+00   1.621563360000000e-01  6.40188530e-01   8.97822630e-01   1.22909357e+00
C     5.188018599899999e+00   3.308572050528545e+00   3.349606696000000e+00 -6.00323270e-01  -3.46587158e+00  -1.43900782e+00
C     6.337905456000000e+00   4.036953273551999e+00   3.388972984000000e+00  5.07755792e+00  -1.36004040e-01  -2.29341420e-01
C     6.138289189049999e+00   1.844969729002000e+00   1.123425280000000e-01 -7.01639990e-01   1.35353138e+00   1.84574620e-01
C     7.401533852250000e+00   2.621031420304097e+00   1.448337440000000e-01 -1.89378684e+00  -2.49934152e+00  -3.91531400e-01
C     7.683552641175000e+00   3.382655929069817e+00   3.447172688000000e+00 -3.16631044e+00  -4.77981370e+00   2.21184930e-01
C     8.954673016350000e+00   3.987683268472504e+00   3.529160016000000e+00 -2.50475668e+00  -2.57889876e+00  -1.10207904e+00
C     2.489484228750000e+00   3.956583936134030e+00   4.851268240000000e-01 -2.81097286e+00   3.39313244e+00  -3.05824770e-01
C     3.640150222050000e+00   4.787432644491698e+00   4.436265599999999e-01  1.33169308e+00  -5.74917982e+00  -5.84213380e-01
C     3.930899289150000e+00   5.421139979741086e+00   3.153470624000000e+00  3.75440900e-01  -1.79068277e+00   9.13366870e-01
C     5.196680030625000e+00   6.122980485213392e+00   3.244124416000000e+00 -3.50890156e+00  -1.85268650e-01   3.29338600e-01
C     4.867904838225000e+00   4.059683841931919e+00   2.712000480000000e-01  4.99381270e-01  -1.36869562e+00  -3.77057920e-01
C     6.083232452700000e+00   4.776630198503764e+00   1.780872400000000e-01  2.09053148e+00  -3.83123806e+00  -8.40874560e-01
C     6.361099355850000e+00   5.436068176727589e+00   3.326740472000000e+00  1.87587550e+00  -4.63015930e-01   7.44798190e-01
C     7.591920234824999e+00   6.127546208726943e+00   3.428600936000000e+00  2.95344733e+00  -1.60389108e+00  -1.03403206e+00
C     7.362857780400001e+00   4.008647350406900e+00   1.009868000000000e-02  6.90050740e-01   1.79639945e+00   3.11707548e+00
C     8.630293522875000e+00   4.699659920944989e+00   4.067942240000000e-01 -1.41809788e+00  -9.44668730e-01  -2.13602830e+00
C     8.858061408599999e+00   5.321802895648839e+00   3.354684256000000e+00  1.05235219e+00   6.23692551e+00   1.49330020e-01
C     1.010908050990000e+01   6.156499025958482e+00   3.216915168000000e+00 -1.19686369e+00  -5.62145996e+00   2.32414310e-01
C     7.334055031874999e+00   2.818064945710014e-01   6.315910584000000e+00 -1.02744418e+00  -7.26342910e-01  -1.61886860e-01
C     1.172564437050000e+00   9.416738782843393e-01   6.355658760000000e+00 -6.52293660e-01   2.42621164e+00   4.74322610e-01
C     1.052706461925000e+00   2.917242563781546e-01   1.036523061600000e+01  1.93832124e+00   1.03779692e+00  -1.44300240e-01
C     2.250701823300000e+00   9.588057804004682e-01   1.043127384800000e+01  3.88291481e+00   3.21163967e+00  -7.57270090e-01
C     2.379171054075000e+00   3.286843812546294e-01   6.442322720000000e+00  1.62303848e+00  -5.30750243e+00  -2.87273310e-01
C     3.585464603775000e+00   1.015192645112045e+00   6.458419000000000e+00  1.58967150e+00  -1.80127785e+00   1.72028240e-01
C     3.566760504225000e+00   2.843898441065682e-01   1.026026608800000e+01 -1.61107230e+00   9.38719420e-01   1.33467512e+00
C     4.801497146625000e+00   1.067836797487660e+00   1.036136440800000e+01 -6.54864610e-01  -2.62559414e+00  -1.13056307e+00
C     4.818570796575000e+00   2.334516579397002e-01   6.384595752000000e+00  5.40108530e-01   1.76438085e+00  -1.82692260e-01
C     6.072919644524999e+00   9.825711487654063e-01   6.291223456000000e+00 -2.56572960e-01  -2.32367020e+00   1.06806030e+00
C     6.004655623050000e+00   3.097196445815472e-01   1.026816333600000e+01  3.55088520e-01  -5.77845900e-01   5.58206380e-01
C     7.271416497825000e+00   9.878054767995414e-01   1.032201756800000e+01 -3.41796323e+00   1.54835661e+00   4.34436570e-01
C     8.603629371375000e+00   2.358471257624282e+00   6.376918552000000e+00 -1.55353379e+00   1.87684195e+00   6.10446080e-01
C     2.427355653900000e+00   3.159126387832615e+00   6.468446279999999e+00 -1.89740876e+00  -1.53310081e+00  -5.42580870e-01
C     2.289761067075000e+00   2.500077724444100e+00   1.047294411200000e+01  1.78652363e+00  -5.54634934e+00   5.05534800e-02
C     3.529424258475000e+00   3.095031358360742e+00   1.052057525600000e+01  1.19477705e+00   4.05784467e+00  -1.08154416e+00
C     3.606324974400000e+00   2.398858108753907e+00   6.510907928000000e+00  1.44145969e+00   2.55036343e+00  -2.51516500e-02
C     4.839630388500000e+00   3.155973443602980e+00   6.507062392000000e+00  1.07885913e+00  -4.49745383e+00  -1.78190140e-01
C     4.778872292025000e+00   2.464719944884197e+00   1.038260284800000e+01 -6.58513710e-01  -8.48836240e-01   7.96616150e-01
C     5.976314507400000e+00   3.169531897918386e+00   1.035707646400000e+01  2.44528284e+00  -1.51825174e+00  -7.33194100e-02
C     6.104283392475000e+00   2.359669238099574e+00   6.425082816000000e+00 -2.24058928e+00   2.02167869e+00  -3.43077000e-02
C     7.309376068124999e+00   3.034716826346205e+00   6.401295328000000e+00  2.72269768e+00   1.96352927e+00   1.14755700e-01
C     7.240201833074999e+00   2.404167942988212e+00   1.039546137600000e+01  7.47996790e-01   1.82571932e+00  -8.99949950e-01
C     8.543633107800000e+00   3.181488006917220e+00   1.035773402400000e+01 -5.49473865e+00  -1.07559046e+00   1.96603500e-01
C     9.781698054824998e+00   4.582074544506459e+00   6.349725760000000e+00  1.61716620e+00  -1.03650119e+00   7.19769150e-01
C     3.650245358400000e+00   5.278056306803280e+00   6.345273936000000e+00 -6.88744110e-01  -9.08843050e-01   5.05580370e-01
C     3.547928766975000e+00   4.570029032067900e+00   1.043228174400000e+01  5.47462370e-01  -1.84862510e-01  -4.66490260e-01
C     4.842641447625000e+00   5.355263669988032e+00   1.033933499200000e+01 -2.91816438e+00  -5.87583077e+00   2.43761590e-01
C     4.882679234775000e+00   4.504207222549234e+00   6.468174144000000e+00 -3.89796440e-01   2.97427693e+00  -5.54376070e-01
C     6.144682980000000e+00   5.180000970879135e+00   6.409343263999999e+00 -1.88785278e+00   3.66730683e+00   6.65821850e-01
C     6.031810987425000e+00   4.560653326646017e+00   1.028690318400000e+01 -3.95755640e-01   1.93643406e+00   2.11238780e-01
C     7.269808270200000e+00   5.246773812690010e+00   1.022366019200000e+01 -1.14683730e+00   1.81753724e+00   1.56087000e-03
C     7.347720104474999e+00   4.518176702134095e+00   6.420192527999999e+00 -1.10983490e+00  -2.91942384e+00   3.45562400e-02
C     8.532101307824998e+00   5.220320833471544e+00   6.359191224000000e+00  1.24489771e+00   1.80297832e+00   2.95143560e-01
C     8.466743928074999e+00   4.564330651509229e+00   1.025001236800000e+01  1.13088356e+00  -3.83633520e-01   3.53070400e-01
C     9.674065049999999e+00   5.244325464910133e+00   1.030539714400000e+01  2.27994884e+00   2.31558644e+00   4.24686500e-02
