72
Lattice="7.395 0 0 3.6975 6.40425786098592 0 0 0 13.6 " PBC="1 1 1" Properties=species:S:1:pos:R:3:force:R:3 Energy="-580.6195169"
C     3.683889724350000e+00   6.322984881797985e+00   1.349797048800000e+01 -4.48770900e-02  -1.35317746e+00   5.66062290e-01
C     1.153741093125000e+00   6.655254174474906e-01   1.352974457600000e+01  3.04898347e+00  -3.40229131e+00  -1.23625920e-01
C     1.302231029250000e+00   8.325852869189857e-01   3.537826344000000e+00 -3.62669680e-01  -1.52636290e-01   2.41912900e-02
C     2.538886859025000e+00   1.539991989067732e+00   3.587164968000000e+00 -9.96500990e-01   9.62265010e-01   2.38917990e-01
C     6.090369810899999e+00   6.287129619487517e+00   1.346762412800000e+01  1.96049832e+00   1.34657494e+00   2.06214610e-01
C     3.661371135900000e+00   6.392548314928777e-01   1.348289393600000e+01  5.79887840e-01  -8.68526540e-01   4.87665710e-01
C     3.730423427400000e+00   7.976491636965853e-01   3.561533048000000e+00  1.58391646e+00   2.87882620e+00  -5.87708660e-01
C     4.957718592225000e+00   1.563390201329557e+00   3.445110520000000e+00  1.39295861e+00  -8.77038800e-01   9.63579690e-01
C     8.648703005624998e+00   6.298167293866649e+00   1.343277644000000e+01 -2.16883712e+00   4.46908010e-01   8.15584550e-01
C     6.202298867025000e+00   6.222591479414310e-01   1.346269412800000e+01 -3.20097942e+00   4.25589530e-01  -2.36350000e-01
C     6.241575043125000e+00   8.612283942404142e-01   3.433911464000000e+00 -1.55145877e+00  -9.25392940e-01   9.08521000e-02
C     7.462118166224999e+00   1.554277838990877e+00   3.520273096000000e+00  2.21167990e-01   2.03447490e-01  -1.12720780e-01
C     1.216694913000000e+00   2.022318743193949e+00   1.356538840800000e+01 -6.85437050e-01   2.29510385e+00  -2.38270850e-01
C     2.440582313925000e+00   2.761508752420618e+00   2.813704000000000e-03  1.75349020e-01  -7.72926380e-01   3.32416800e-01
C     2.546029356750000e+00   3.002676388315204e+00   3.616558104000000e+00 -9.42635190e-01  -1.30132522e+00  -9.69224520e-01
C     3.788181594225000e+00   3.694874515068337e+00   3.428547896000000e+00 -1.81583329e+00  -9.07779560e-01   1.42733984e+00
C     3.679737949500000e+00   2.100277646038572e+00   3.768097600000000e-02 -3.10784550e-01  -3.07824997e+00  -1.80006137e+00
C     4.894486313624999e+00   2.765937040560494e+00   1.340531450400000e+01  8.83282730e-01  -1.38205226e+00   9.78019000e-01
C     5.005356590625000e+00   2.995238419194021e+00   3.517811632000000e+00 -1.19424141e+00  -2.09237133e+00  -1.26120961e+00
C     6.215791229400000e+00   3.646205933844474e+00   3.464755312000000e+00  8.72179130e-01   3.07841952e+00   5.28160340e-01
C     6.153136980975000e+00   2.064841158149570e+00   1.339366664800000e+01 -4.89089180e-01  -1.50915835e+00   3.18136650e-01
C     7.374612132899999e+00   2.738194243809024e+00   1.345287982400000e+01  6.52185480e-01  -3.71307400e-02  -4.30945930e-01
C     7.435011128175000e+00   2.983560511156626e+00   3.552591048000000e+00  3.51310280e-01  -1.47454864e+00   1.14575600e-02
C     8.641409649900000e+00   3.690953380108395e+00   3.612846664000000e+00  2.77461034e+00  -2.57764060e-01  -9.72308670e-01
C     2.456756953725000e+00   4.148622844877512e+00   1.358050453600000e+01 -9.37920420e-01   1.83363235e+00   1.88796700e-01
C     3.690672566250000e+00   4.873945586474765e+00   1.358667920800000e+01 -3.14574480e-01   2.00893300e-01  -1.01325052e+00
C     3.754837872000000e+00   5.075571605192088e+00   3.432375888000000e+00  5.34090010e-01   2.04381648e+00  -2.07283520e-01
C     4.989194929050000e+00   5.796648772126213e+00   3.471648064000000e+00  2.84787730e-01   1.08270405e+00   1.08787070e-01
C     4.905142064925000e+00   4.135988268800989e+00   1.342653240800000e+01  4.67967250e-01   2.59047722e+00   4.36127390e-01
C     6.154916291925000e+00   4.858502679284054e+00   1.338904441600000e+01 -7.37006180e-01   3.88096300e-01  -3.33582000e-01
C     6.236086067400000e+00   5.127791923782528e+00   3.492199704000000e+00 -9.98387430e-01  -2.01898309e+00   9.19511800e-02
C     7.445257972949999e+00   5.831320783754466e+00   3.549117608000000e+00  8.79599930e-01  -2.01068318e+00  -9.03995600e-01
C     7.400273189624999e+00   4.135579805234679e+00   1.333487847200000e+01 -1.63650771e+00   1.36764688e+00   1.47477302e+00
C     8.573647046400000e+00   4.851572183555698e+00   1.352856640800000e+01  2.78585905e+00   1.53730886e+00  -1.15122408e+00
C     8.684420337975000e+00   5.081412352402987e+00   3.437581967999999e+00  3.79657600e-02   1.91449735e+00   1.17895966e+00
C     9.939231225524999e+00   5.813492034340591e+00   3.421180232000000e+00 -1.08668453e+00  -1.47358290e-01  -6.78428700e-02
C     7.418470583775000e+00   5.984298650830500e-02   6.775396920000000e+00  5.76323090e-01   1.59872676e+00   2.71766600e-01
C     1.275039318450000e+00   7.778972796899305e-01   6.887988464000000e+00 -1.20788785e+00   1.34661621e+00  -1.70880640e-01
C     1.153648766550000e+00   6.026895931560505e-01   1.013999462400000e+01  2.42217810e-01   2.02916220e-01  -7.01107550e-01
C     2.410832968425000e+00   1.327476810711051e+00   1.019094036000000e+01 -7.16938390e-01  -1.28943363e+00  -4.11290590e-01
C     2.479984389900000e+00   7.147523218715880e-02   6.949647327999999e+00  1.59451828e+00   4.25679700e-02  -3.24336550e-01
C     3.766515649275000e+00   7.976374439047015e-01   6.977041263999999e+00 -2.23456227e+00  -3.33364340e-01  -1.17146220e-01
C     3.653360687025000e+00   6.128689688967847e-01   1.006090885600000e+01 -2.97700701e+00  -1.25190114e+00   9.52388080e-01
C     4.818815090400000e+00   1.276574936686249e+00   1.013758742400000e+01  3.92721210e+00   2.06710310e+00  -1.00478856e+00
C     4.971178453575000e+00   9.088557712213981e-02   6.871401632000000e+00  9.70753300e-02  -6.66764270e-01  -4.24710180e-01
C     6.178892286975000e+00   8.042093652354764e-01   6.768130576000000e+00  1.04857276e+00  -1.05441922e+00   8.45479420e-01
C     6.106408456650001e+00   5.862096444900696e-01   1.001820635200000e+01 -1.42421497e+00   1.27990510e+00   6.24354580e-01
C     7.304980665000000e+00   1.306755258021814e+00   1.005773244000000e+01  1.11195799e+00   2.53352440e-01   8.39167170e-01
C     8.646870857400000e+00   2.262572427449334e+00   6.914490104000000e+00  1.34766058e+00  -2.42588579e+00   6.87705890e-01
C     2.484159422025000e+00   2.971029299801964e+00   7.052357112000000e+00  5.90467880e-01  -2.63814200e+00  -1.49722227e+00
C     2.397518825550000e+00   2.729516218238410e+00   1.023983997600000e+01 -6.42539670e-01   8.55794000e-02  -5.56324500e-01
C     3.623070988875000e+00   3.419027886904430e+00   1.022887674400000e+01  3.18081970e-01   1.69818738e+00  -5.85160560e-01
C     3.729965011349999e+00   2.211032497213941e+00   7.018261232000000e+00  4.20242970e-01   1.34830099e+00  -7.79395000e-02
C     4.974717996374999e+00   2.960823090220796e+00   6.959727920000001e+00 -8.13539140e-01  -2.55884733e+00  -2.01537870e-01
C     4.853566081125000e+00   2.714010677405828e+00   1.013350103200000e+01 -6.49714100e-02   4.29094690e-01   4.34232490e-01
C     6.107568473325000e+00   3.454154344670430e+00   1.006514280800000e+01 -1.15232697e+00  -1.54865297e+00   6.46728160e-01
C     6.203146814700000e+00   2.187722151369956e+00   6.902771120000000e+00 -1.64447750e-01   2.53314746e+00  -3.81759100e-01
C     7.444867295100000e+00   2.930354385153795e+00   6.913140167999999e+00 -1.52934965e+00   1.06846860e+00  -2.72628940e-01
C     7.317545139749999e+00   2.727722129441509e+00   1.013355543200000e+01  3.14493630e-01   1.87057580e-01  -9.32977320e-01
C     8.540382857399999e+00   3.433150364209566e+00   1.010001008000000e+01  7.41845870e-01   9.88186860e-01   8.88016440e-01
C     9.879136571475000e+00   4.331505906371444e+00   6.844838520000000e+00  1.11364586e+00   1.85830724e+00   8.01211060e-01
C     3.731098849725000e+00   5.070341183755248e+00   6.833614440000001e+00 -1.07013977e+00  -8.60783470e-01  -2.22871470e-01
C     3.588005895525000e+00   4.894954946512231e+00   1.014952264800000e+01  2.21192637e+00  -2.21155074e+00  -3.54271400e-01
C     4.810662731474999e+00   5.586464295332521e+00   1.006339384800000e+01  2.38781606e+00  -6.20996650e-01   8.33518180e-01
C     4.935534109875000e+00   4.354478363570736e+00   6.886853815999999e+00  1.55562087e+00   3.15797600e-01   1.51337630e-01
C     6.190066058025000e+00   5.041828274996113e+00   6.892280760000000e+00 -4.68168030e-01   1.66357386e+00   2.05949210e-01
C     6.100673892974999e+00   4.833037941095965e+00   1.007404142400000e+01 -5.66277670e-01   2.89920615e+00  -3.84299590e-01
C     7.357426707525000e+00   5.589928486494152e+00   1.002441148800000e+01 -1.94505651e+00  -7.25181530e-01   2.77886530e-01
C     7.435573628850000e+00   4.395658061823429e+00   6.911646479999999e+00 -1.90855190e-01  -2.51601295e+00  -1.40198310e-01
C     8.675779576274998e+00   5.055634446005543e+00   6.856862687999999e+00 -7.88845950e-01   1.18474949e+00  -2.29570300e-02
C     8.556901475625001e+00   4.888044239940663e+00   1.004919504000000e+01  8.69279310e-01  -1.06391553e+00   1.32987190e-01
C     9.820339887825000e+00   5.610030555320591e+00   1.005600224800000e+01 -2.57699928e+00  -1.29495560e+00   1.34193410e-01
