72
Lattice="7.395 0 0 3.6975 6.40425786098592 0 0 0 13.6 " PBC="1 1 1" Properties=species:S:1:pos:R:3:force:R:3 Energy="-578.52984811"
C     3.709429909800000e+00   6.274004861514390e+00   1.354022405600000e+01 -1.24532914e+00  -1.38247877e+00  -5.93012080e-01
C     1.243255349625000e+00   5.315774183469750e-01   1.356392096800000e+01 -1.28807260e-01   3.16315460e-01  -4.08157100e-02
C     1.338941805900000e+00   9.974459982839352e-01   3.593995568000000e+00  1.17295327e+00  -2.06258141e+00  -3.82460800e-01
C     2.603997504600000e+00   1.636280454290883e+00   3.673617584000000e+00 -1.62508000e+00   3.13237983e+00  -1.07011089e+00
C     6.175989157875000e+00   6.239960787369309e+00   1.351958496800000e+01 -8.02991240e-01   1.07003879e+00  -5.80566500e-02
C     3.691538742600000e+00   5.645266205683105e-01   1.350093148000000e+01  1.56742970e-01  -4.59410170e-01  -1.62784180e-01
C     3.799645766925000e+00   9.383533346265078e-01   3.583710160000000e+00  1.26598668e+00   2.74284402e+00   4.85653790e-01
C     5.035351856850000e+00   1.641968972292449e+00   3.608370360000000e+00  9.14450370e-01   6.50042010e-01  -1.13289705e+00
C     8.595271098674999e+00   6.199366118072128e+00   1.350732293600000e+01 -2.40251520e-01   2.84588865e+00  -5.60416420e-01
C     6.121757518650000e+00   4.698979468547365e-01   1.352996707200000e+01  1.47025192e+00   3.31497537e+00   3.65923570e-01
C     6.325075611675000e+00   9.196344574126711e-01   3.499873368000000e+00 -2.77527651e+00   1.38683104e+00   5.86573980e-01
C     7.502312172749999e+00   1.667821680421697e+00   3.532893488000000e+00  1.64490427e+00  -4.37435800e-02   1.66490590e-01
C     1.243555586625000e+00   1.907898286947252e+00   3.634056000000000e-03 -1.18597620e+00   4.53348205e+00  -5.21001110e-01
C     2.467692383925000e+00   2.684338982229505e+00   1.359741831200000e+01 -7.83223140e-01   2.95854770e-01  -9.25669200e-01
C     2.601802446750000e+00   3.103980860422042e+00   3.586289400000000e+00 -4.74961350e-01   2.41389230e-01   5.57795140e-01
C     3.825042785175000e+00   3.865020788530301e+00   3.634475559999999e+00 -7.17763670e-01  -2.95521734e+00  -1.30288003e+00
C     3.707181570975000e+00   1.990742870028112e+00   1.347328472000000e+01 -2.34742374e+00  -1.25617555e+00   1.56014037e+00
C     4.878823001100000e+00   2.662656534690953e+00   3.952758400000000e-02  2.78873849e+00   1.02453591e+00  -9.96213720e-01
C     5.017219575674999e+00   3.104506714034927e+00   3.548830920000000e+00  1.10346367e+00  -2.43479015e+00   1.28989884e+00
C     6.282076644675000e+00   3.682867940517566e+00   3.609762455999999e+00  1.07285948e+00   5.43941438e+00  -7.04242560e-01
C     6.115802103300000e+00   1.921122887300417e+00   1.359872391200000e+01  1.11243475e+00   1.56715257e+00  -2.66925800e-01
C     7.362346859850000e+00   2.733233889926140e+00   1.353395690400000e+01  4.52799920e-01  -2.83610385e+00   1.21518959e+00
C     7.560768575474999e+00   3.070489729900593e+00   3.575686296000000e+00 -2.92706082e+00  -1.32130510e-01  -2.35795310e-01
C     8.724658751474999e+00   3.837571883172027e+00   3.532485216000000e+00  2.19226683e+00  -1.34879446e+00   9.30909920e-01
C     2.430764231250000e+00   4.126936298613929e+00   1.353021867200000e+01  1.75627500e-01   7.74107100e-02  -7.45433780e-01
C     3.680881882050000e+00   4.875256025718079e+00   1.346920798400000e+01  1.84664940e-01  -3.13297636e+00   1.16260885e+00
C     3.835188466350000e+00   5.231319057622258e+00   3.485653344000000e+00  7.80068410e-01   1.00470821e+00   6.53822580e-01
C     5.061766870800000e+00   5.966147062777902e+00   3.519263024000000e+00  7.71126750e-01  -6.33827650e-01   2.62740400e-01
C     4.909182508050000e+00   4.083256314050113e+00   1.359762979200000e+01 -1.60610880e-01   2.04677759e+00  -6.54560970e-01
C     6.145519946100000e+00   4.854521600470543e+00   1.352216774400000e+01 -7.11005780e-01  -1.82982892e+00   8.73987010e-01
C     6.319606602449999e+00   5.240129523245417e+00   3.576443680000000e+00 -1.86897776e+00  -1.53416973e+00  -1.90685530e-01
C     7.506962999175000e+00   6.006097527776947e+00   3.555787728000000e+00  9.13929640e-01  -5.32045261e+00   5.96618640e-01
C     7.381569459824999e+00   4.190601602383397e+00   1.357758883200000e+01 -1.89731240e+00  -3.90964745e+00  -1.21301075e+00
C     8.557770868799999e+00   4.850383553296882e+00   1.341210212800000e+01  3.16403710e+00  -2.20997140e+00   1.58188982e+00
C     8.743379933474998e+00   5.235860380913362e+00   3.621061472000000e+00  4.03586490e-01   1.17758705e+00  -1.37101053e+00
C     1.002007599075000e+01   5.909090248651591e+00   3.509715824000000e+00 -1.87056091e+00   6.43232390e-01   3.31582130e-01
C     7.427674289850001e+00   1.416601345006848e-01   7.054036711999999e+00  2.52990000e-03   3.63516780e-01  -5.36819470e-01
C     1.284037406550000e+00   8.534355011486305e-01   6.995968927999999e+00 -2.43017999e+00   1.24047106e+00  -4.90284400e-02
C     1.094149483950000e+00   4.605262120727268e-01   9.895582767999999e+00  6.82731150e-01   1.11986574e+00   9.49472470e-01
C     2.351335238775000e+00   1.172601746286571e+00   1.000174450400000e+01 -1.24582569e+00   3.96934950e-01  -1.75055000e-03
C     2.468467342950000e+00   1.800630105878604e-01   6.848037511999999e+00  1.98358367e+00  -1.82743909e+00   3.13433760e-01
C     3.754827038325000e+00   8.305498216433419e-01   6.807109536000000e+00 -1.61408156e+00   1.08068150e-01   3.73089520e-01
C     3.566350414500000e+00   4.847995021285416e-01   1.011493186400000e+01 -1.21431507e+00  -8.40052870e-01  -8.64411380e-01
C     4.740568262625000e+00   1.184023484009566e+00   9.983386680000001e+00  4.26873185e+00   1.15919148e+00   3.78136050e-01
C     4.978831723950001e+00   1.801034854975356e-01   6.917471768000000e+00  4.23157930e-01  -2.14211366e+00   2.70306610e-01
C     6.188576335275000e+00   9.150276185636587e-01   7.050016824000000e+00  5.28325260e-01  -3.02202010e+00  -9.70324530e-01
C     6.072451541025000e+00   4.519245892983823e-01   9.932083128000000e+00 -1.79286001e+00   2.23241118e+00   3.08585170e-01
C     7.278807171750000e+00   1.242402457171075e+00   9.883750087999999e+00 -3.49089880e-01  -2.43631246e+00  -1.91221620e-01
C     8.638705705125000e+00   2.296964252796213e+00   7.046633415999999e+00  4.42646770e-01  -1.24641242e+00  -1.43472902e+00
C     2.478267936450000e+00   2.960369860892044e+00   6.888910408000000e+00  2.68836840e-01  -6.06639150e-01   9.11369470e-01
C     2.350908214500000e+00   2.592455365562463e+00   9.959379552000000e+00 -6.94214550e-01   4.45872590e-01   2.29155930e-01
C     3.551278221300000e+00   3.340424651676513e+00   9.899307128000000e+00  1.36996950e+00  -3.34117050e-01   5.91939810e-01
C     3.707966587200000e+00   2.207180079940836e+00   6.839564984000000e+00  1.07979299e+00   3.85873368e+00   3.87280100e-02
C     4.943439364874999e+00   3.021378806586340e+00   6.885451656000000e+00 -3.57450220e-01  -2.82850118e+00   3.11389500e-02
C     4.806496684275000e+00   2.657789490845089e+00   9.936665511999999e+00 -6.15191850e-01  -2.16224277e+00  -2.92719040e-01
C     6.082429836374999e+00   3.343019464833649e+00   9.887528167999999e+00 -2.61237249e+00  -2.60458135e+00  -1.36366060e-01
C     6.183940224900000e+00   2.284865392889680e+00   6.948768632000000e+00 -1.00153680e-01   1.94253850e+00   3.54340500e-02
C     7.423968507449999e+00   2.984127992445600e+00   6.975844736000000e+00 -1.23535688e+00   1.99516607e+00  -1.12870030e-01
C     7.278632834625000e+00   2.656719083186368e+00   9.816399624000001e+00  7.96388430e-01  -1.88636652e+00   1.63647371e+00
C     8.496607600274999e+00   3.302296454208952e+00   9.989420727999999e+00  5.94956690e-01   2.17694086e+00  -7.08468260e-01
C     9.863013142049999e+00   4.349684968690261e+00   7.013790503999999e+00  1.15661816e+00   2.74966201e+00  -1.11724265e+00
C     3.749334032325000e+00   5.115580605107973e+00   6.980090247999999e+00 -3.04097336e+00   2.15677720e-01   2.67759880e-01
C     3.568715890125000e+00   4.770991057330298e+00   9.864362472000000e+00  2.57965770e-01  -2.12563337e+00   6.88232470e-01
C     4.773757910025000e+00   5.442327890487689e+00   9.922826832000000e+00  1.85591691e+00   6.61463500e-02  -2.76951400e-01
C     4.942656345300000e+00   4.412264046284094e+00   6.945863535999999e+00  8.00428880e-01   7.52163760e-01  -5.34318100e-01
C     6.165775590600000e+00   5.160069383396928e+00   6.902380527999999e+00 -8.08287650e-01  -1.23522810e-01  -3.02142050e-01
C     6.028734741375000e+00   4.672693128118416e+00   9.918943216000001e+00 -3.48133570e-01   5.81939943e+00   1.06126981e+00
C     7.227492823050000e+00   5.463262320708193e+00   1.008198341600000e+01  7.50480310e-01  -9.76136570e-01  -5.59338420e-01
C     7.362315357149999e+00   4.462391453405886e+00   6.903853000000000e+00  2.77288499e+00  -1.97283062e+00   2.90358200e-01
C     8.646993540450000e+00   5.123500558675699e+00   6.958877648000000e+00 -8.70338300e-02   3.47286420e-01  -1.62126010e-01
C     8.451091560150001e+00   4.768253557308041e+00   1.003209399200000e+01  2.64716943e+00  -1.09797784e+00  -6.70934300e-02
C     9.786694745399998e+00   5.448428394397388e+00   9.951611912000001e+00 -4.09653814e+00   1.25265898e+00   4.10311700e-01
