72
Lattice="7.395 0 0 3.6975 6.40425786098592 0 0 0 13.6 " PBC="1 1 1" Properties=species:S:1:pos:R:3:force:R:3 Energy="-582.06129203"
C     3.684202939575000e+00   6.281740500540906e+00   1.350116390400000e+01  4.34401930e-01   9.90035800e-01   5.15877860e-01
C     1.196027256075000e+00   6.578650284508303e-01   1.354566528000000e+01  7.98982590e-01  -2.36041447e+00  -2.61954870e-01
C     1.330684401000000e+00   8.294468163121140e-01   3.530429984000000e+00 -1.45189285e+00   7.34578200e-01  -1.78716930e-01
C     2.521938406425000e+00   1.599247641087697e+00   3.583673168000000e+00 -7.26275100e-02  -9.27928200e-01  -7.52228300e-02
C     6.119538685875000e+00   6.294803137212791e+00   1.348034080800000e+01  8.54102800e-01   8.41689480e-01   2.87970960e-01
C     3.664645161225000e+00   6.146727921656323e-01   1.348709429600000e+01  5.18016890e-01   3.29842110e-01   2.80259730e-01
C     3.718007518200000e+00   8.283513039625824e-01   3.543932880000000e+00  1.68027728e+00   1.00538298e+00  -4.18830610e-01
C     4.981851213375000e+00   1.548750324031911e+00   3.449451912000000e+00 -3.80315740e-01  -3.26883590e-01   7.75718380e-01
C     8.633222238675000e+00   6.317901886377081e+00   1.345217860800000e+01 -1.43959417e+00  -9.49037110e-01   5.93852010e-01
C     6.183759786900000e+00   6.224279001360421e-01   1.348965204800000e+01 -1.50526032e+00  -9.43175360e-01  -2.22549380e-01
C     6.219654673200000e+00   8.539119779334143e-01   3.432013991999999e+00 -2.92300830e-01  -2.72138920e-01   5.07127100e-02
C     7.452569853150000e+00   1.518928320923614e+00   3.492099200000000e+00  1.03709697e+00   2.03577968e+00   1.05018630e-01
C     1.210372520775000e+00   2.064525172066757e+00   1.357454637600000e+01 -5.12989000e-03  -1.05256589e+00  -2.15745020e-01
C     2.428431885225000e+00   2.783172819739112e+00   2.786232000000000e-03  8.82258820e-01  -1.77981183e+00  -2.05396000e-03
C     2.514308763074999e+00   3.035223146972617e+00   3.582082920000000e+00  1.26276778e+00  -2.06093632e+00  -5.81074140e-01
C     3.789196631924999e+00   3.672148493711498e+00   3.454903336000000e+00 -1.48886893e+00   1.69045921e+00   7.87500050e-01
C     3.659032060425000e+00   2.062605303645487e+00   1.359053208800000e+01  8.16431170e-01  -1.07328363e+00  -9.03197500e-01
C     4.922563021049999e+00   2.758771764738990e+00   1.347141390400000e+01 -6.98538200e-01  -1.40656447e+00   4.53357500e-01
C     5.016022177275000e+00   2.969405308093825e+00   3.513986088000000e+00 -1.96822203e+00  -1.01120014e+00  -8.81329440e-01
C     6.191493736725000e+00   3.680406143796182e+00   3.477024416000000e+00  2.53889890e+00   1.59952610e-01   3.02437570e-01
C     6.170639393025000e+00   2.040133659410847e+00   1.345084118400000e+01 -2.07617534e+00  -1.27369909e+00   1.92864000e-01
C     7.362520790250001e+00   2.700706408084885e+00   1.347730134400000e+01  1.18114248e+00   1.73962044e+00  -1.66805900e-01
C     7.441060164225000e+00   2.988373823279045e+00   3.525880648000000e+00 -1.17707900e-02  -1.60015239e+00  -6.58242600e-02
C     8.674800811050000e+00   3.697345341793304e+00   3.561495512000000e+00  3.86884300e-02   4.70574800e-02  -4.56917240e-01
C     2.465324246100000e+00   4.159134345430865e+00   1.357031922400000e+01 -1.92301848e+00   1.45642564e+00   6.49936200e-02
C     3.681226193250000e+00   4.848178695400841e+00   1.356083485600000e+01  1.60901490e-01   1.38767119e+00  -5.37513210e-01
C     3.777753719850000e+00   5.115796108384963e+00   3.424783552000000e+00  9.72342800e-02   1.19357010e-01   4.59336500e-02
C     5.033219767425000e+00   5.812876713245402e+00   3.454826767999999e+00 -1.31440563e+00   5.17304250e-01   2.13866070e-01
C     4.897847156250000e+00   4.150709416130877e+00   1.347259819200000e+01  1.04074720e+00   8.48102760e-01   2.73160230e-01
C     6.138432910875000e+00   4.873086583368003e+00   1.344082206400000e+01 -1.59791100e-01  -6.87158080e-01  -3.49973570e-01
C     6.229033381950000e+00   5.095046441003720e+00   3.489828000000000e+00 -6.09060600e-02  -1.78151960e-01   1.81884200e-02
C     7.438618261274999e+00   5.804261321316659e+00   3.527361008000000e+00  1.14401651e+00   2.42255480e-01  -4.41871500e-01
C     7.360469823974999e+00   4.096768465581191e+00   1.339031288800000e+01  2.09890450e-01   3.25914499e+00   1.15270182e+00
C     8.585119501499999e+00   4.856633980883085e+00   1.351792032800000e+01  9.60139490e-01   6.83320540e-01  -8.17299620e-01
C     8.703425192174999e+00   5.088949651563578e+00   3.466601104000000e+00 -6.58255860e-01   2.36242895e+00   4.53805620e-01
C     9.931780023525000e+00   5.857340450886125e+00   3.428623648000000e+00 -1.17387810e-01  -2.50800574e+00   1.70850000e-03
C     7.430380157325000e+00   7.717239593683621e-02   6.831843312000000e+00  3.51514020e-01   3.01497730e-01   2.21282320e-01
C     1.262473771425000e+00   7.936114712435910e-01   6.913960384000000e+00  5.13561300e-02   8.52691230e-01  -2.32903730e-01
C     1.138760745825000e+00   5.895045711164610e-01   1.011500462400000e+01  1.68093022e+00   2.67195380e-01  -3.47357470e-01
C     2.382805178925000e+00   1.315387236978415e+00   1.016467386400000e+01  4.02316140e-01  -8.27090470e-01  -1.71910330e-01
C     2.500215483000000e+00   9.975348893830321e-02   6.911479472000000e+00  1.32176270e-01  -9.14751190e-01  -3.93879200e-02
C     3.766872975675000e+00   7.951344037626991e-01   6.920539656000000e+00 -1.04392797e+00  -7.72185700e-01   3.71111200e-02
C     3.645326611124999e+00   5.791091797581090e-01   1.009928384000000e+01 -2.00172682e+00   4.82992940e-01   5.00017530e-01
C     4.846906957575000e+00   1.291299414230225e+00   1.012025204800000e+01  9.47979310e-01   3.27835020e-01  -4.80710330e-01
C     4.991959290975000e+00   7.490003716295100e-02   6.882240560000000e+00  2.66159790e-01   5.29092040e-01  -3.23684120e-01
C     6.227692113825000e+00   8.126647788028770e-01   6.837786239999999e+00 -1.13116804e+00  -6.23859580e-01   3.86728500e-01
C     6.088215869249999e+00   6.220086774165264e-01   1.002852168000000e+01  9.78608000e-02  -9.02628720e-01   3.54621410e-01
C     7.336540787174999e+00   1.284158154375697e+00   1.004193155200000e+01 -1.22977986e+00   1.99161687e+00   5.35420290e-01
C     8.636308504950000e+00   2.241480772698367e+00   6.946982816000000e+00  8.49206460e-01  -3.07826500e-01   1.47126890e-01
C     2.507460327525000e+00   2.932235892070485e+00   7.012404800000000e+00 -7.92705290e-01  -1.04868490e+00  -1.10125852e+00
C     2.383744565775000e+00   2.746064116080285e+00   1.019662203200000e+01  4.78883500e-01  -1.61316603e+00  -3.56708770e-01
C     3.623040040800000e+00   3.399907014424721e+00   1.017434754400000e+01  2.69882070e-01   2.14513352e+00  -2.94765870e-01
C     3.737855883075000e+00   2.198732159355131e+00   6.959090079999999e+00  3.92201280e-01   1.31564853e+00   1.12175100e-01
C     4.968242786474999e+00   2.946644063318756e+00   6.939507168000000e+00 -7.16862310e-01  -1.27960873e+00  -2.14447370e-01
C     4.859578031250000e+00   2.693083932294756e+00   1.012098332000000e+01 -5.92502490e-01   1.36450926e+00   2.13023100e-02
C     6.074498366100000e+00   3.439696028083115e+00   1.003434465600000e+01  7.25491720e-01  -7.49745820e-01   7.16551970e-01
C     6.201563582175000e+00   2.223735022466357e+00   6.904921552000000e+00  1.97402260e-01   1.42637796e+00  -2.09587690e-01
C     7.421426845950000e+00   2.991322919980996e+00   6.915525744000001e+00  2.21698540e-01  -1.51348918e+00  -1.06288610e-01
C     7.327343440800000e+00   2.724550612864080e+00   1.007983257600000e+01  3.20501690e-01   4.04548820e-01  -3.88053450e-01
C     8.577768908474999e+00   3.454889809643072e+00   1.010143848800000e+01 -1.62759669e+00   3.48844400e-02   3.68896310e-01
C     9.872939450550000e+00   4.333714542779623e+00   6.875131024000000e+00  1.29150115e+00   3.50403800e-01   5.36998680e-01
C     3.704786182575000e+00   5.066349409831110e+00   6.859315311999999e+00 -4.77334400e-02  -1.86421990e-01  -4.05272700e-02
C     3.590449462350000e+00   4.863385733774568e+00   1.009936380800000e+01  1.24589009e+00  -2.51362610e-01  -1.35634660e-01
C     4.836399402074999e+00   5.591894849827487e+00   1.005877420000000e+01  2.14745700e-01  -1.71602936e+00   5.21316370e-01
C     4.922493729899999e+00   4.357721287623304e+00   6.907874383999999e+00  1.33331419e+00  -4.63458600e-02  -9.82436600e-02
C     6.170964699075000e+00   5.051239203836226e+00   6.894962408000000e+00  4.41069160e-01   2.09689166e+00   2.63679000e-03
C     6.080211854024999e+00   4.853639670120642e+00   1.006714989600000e+01 -3.25589200e-02   8.20450530e-01  -1.83119250e-01
C     7.339622542500000e+00   5.564855624844516e+00   1.006691053600000e+01 -1.29602659e+00  -2.46724000e-02   7.96856300e-02
C     7.441838709824999e+00   4.413646277258018e+00   6.896697495999999e+00 -1.63826774e+00  -1.98943694e+00   6.04072500e-02
C     8.675490764549998e+00   5.050164121069267e+00   6.876953560000000e+00 -2.40266670e-01   1.72741710e+00  -9.03293300e-02
C     8.564349017100000e+00   4.881215828082595e+00   1.007703437600000e+01 -1.73802170e-01  -5.19965940e-01  -5.49008200e-02
C     9.772179099899999e+00   5.614505402415110e+00   1.005099336800000e+01  6.19440650e-01  -1.16417420e+00   2.79768270e-01
