72
Lattice="7.395 0 0 3.6975 6.40425786098592 0 0 0 13.6 " PBC="1 1 1" Properties=species:S:1:pos:R:3:force:R:3 Energy="-563.30635007"
C     1.098541019490000e+01   6.254902881595368e+00   1.358616526400000e+01  2.14695036e+00   1.68635243e+00  -2.11977377e+00
C     1.275118149150000e+00   3.827698118616372e-01   1.352905655200000e+01 -5.44176139e+00   6.64898690e+00   5.86564240e-01
C     1.267429086975000e+00   9.540212233958407e-01   3.801474448000000e+00  4.38404983e+00  -9.67629800e-01   4.18193940e-01
C     2.636186127825000e+00   1.501737307507437e+00   3.959711808000000e+00 -5.27619000e-01   3.99089050e+00  -3.70033970e-01
C     6.192462111975000e+00   6.218704287021026e+00   1.339054531200000e+01 -2.50267947e+00  -2.47060375e+00  -1.44924794e+00
C     3.664392252225000e+00   5.156192886114270e-01   1.342885651200000e+01 -9.88512160e-01   5.80641220e-01   5.28828740e-01
C     3.965248398600000e+00   1.008983524989040e+00   3.782901200000000e+00 -4.42426535e+00  -3.36286806e+00  -3.22640320e-01
C     5.129221102800000e+00   1.708598486812417e+00   3.641615423999999e+00 -2.93924580e-01   1.13141041e+00  -1.04112926e+00
C     8.506638658949999e+00   6.256452840082646e+00   1.328358444000000e+01  5.32682804e+00  -4.44094570e-01  -2.50405420e-01
C     6.003265363050000e+00   5.434947815857560e-01   1.322515707200000e+01  4.44459775e+00   1.63609086e+00   1.40017355e+00
C     6.309824829225000e+00   9.537938722418107e-01   3.478900672000000e+00  8.79793330e-01  -4.37816900e-02   6.93535830e-01
C     7.521772817774999e+00   1.685099407489298e+00   3.820618759999999e+00 -2.23728674e+00   1.67147986e+00  -9.69303440e-01
C     1.221414143175000e+00   1.915590312977741e+00   1.359140262400000e+01 -1.87238010e-01   1.20270597e+00  -4.19728840e-01
C     2.449705562400000e+00   2.585609598165594e+00   2.244852720000000e-01  5.85375560e-01   2.73652231e+00  -6.97129870e-01
C     2.639282118525000e+00   2.936219852800034e+00   3.991576880000000e+00 -8.99399070e-01   2.84638459e+00  -1.32955499e+00
C     3.724135902600000e+00   3.765524046289606e+00   3.559243896000000e+00  3.73972104e+00  -2.48815490e-01   2.99195730e-01
C     3.723908913074999e+00   1.845563723918515e+00   1.133678320000000e-01 -1.05464809e+00   5.29101066e+00  -2.38403774e+00
C     4.853545153275000e+00   2.653351980573895e+00   1.313887608800000e+01 -6.96069460e-01   1.50761180e+00   2.93625989e+00
C     4.998631688550000e+00   3.115101854195932e+00   3.467379296000000e+00  3.13690890e+00   1.55003053e+00   1.54409485e+00
C     6.383529130350000e+00   3.934532026959535e+00   3.600431632000000e+00 -2.78079243e+00  -5.51753966e+00   3.85937920e-01
C     6.063656482650000e+00   1.950576197283714e+00   1.303314832800000e+01  2.64715854e+00   2.37323491e+00   1.09680182e+00
C     7.457634984449999e+00   2.834829371510136e+00   1.322835334400000e+01 -1.40724333e+00  -5.03518331e+00  -2.70752050e-01
C     7.578308960849999e+00   3.166653055925159e+00   3.980816288000000e+00 -8.41110710e-01  -1.16232831e+00  -1.47565486e+00
C     8.866494999375000e+00   3.770015544454560e+00   4.060276600000000e+00 -3.31601761e+00   1.27158991e+00  -2.55672579e+00
C     2.479929371099999e+00   4.153861976105041e+00   2.001185600000000e-01 -5.60689320e-01  -2.43225847e+00  -1.71701409e+00
C     3.705588244275000e+00   4.902357115831976e+00   5.667704799999999e-02 -1.42968532e+00  -3.59468512e+00  -1.86196580e-01
C     3.776447097299999e+00   5.261700984995255e+00   3.409894136000000e+00 -7.51903700e-01  -3.91063344e+00   6.90143960e-01
C     4.930253821050000e+00   5.988630875102476e+00   3.606626432000000e+00  3.49395336e+00  -2.42082925e+00  -7.02851720e-01
C     4.868233619925000e+00   4.189197789060485e+00   1.325750997600000e+01  1.91025815e+00  -2.37757432e+00  -1.03903054e+00
C     6.110750874600000e+00   4.882159559520844e+00   1.289137880000000e+01  1.87924901e+00  -1.20463251e+00   3.59757057e+00
C     6.278636305799999e+00   5.254489534474581e+00   3.615404008000000e+00  1.07002300e-02   4.82476783e+00   6.68919360e-01
C     7.581303344250000e+00   5.990779247444191e+00   3.694196696000000e+00 -2.27630206e+00  -4.07446690e-01  -3.65353720e-01
C     7.501843329750000e+00   4.241366937630623e+00   1.306903260800000e+01 -2.85328566e+00  -3.65273978e+00   2.15246050e-01
C     8.717195347724999e+00   4.888969399031118e+00   1.336248620000000e+01 -1.81175258e+00  -2.47446402e+00   7.81686680e-01
C     8.729719519725000e+00   5.273378444734600e+00   3.555525520000000e+00  1.80682419e+00  -5.09695930e+00   1.95811513e+00
C     9.941991039525000e+00   5.856704251910312e+00   3.319305760000000e+00  9.08848630e-01   5.89792147e+00   1.29212817e+00
C     7.405181399025000e+00   2.251572474148998e-01   6.660905864000000e+00  7.46223130e-01  -3.28663519e+00   4.33300150e-01
C     1.279165765425000e+00   8.843877276840607e-01   6.893350536000000e+00  1.49889740e-01  -4.78200998e+00   5.22626310e-01
C     1.082328946200000e+00   5.262205768599780e-01   9.893074112000001e+00  6.66933330e-01  -3.07473962e+00   6.70942550e-01
C     2.311924436700000e+00   1.124973728879801e+00   1.018223690400000e+01  2.85666240e-01   2.81525256e+00  -1.25970438e+00
C     2.511763071300000e+00   1.500531705965292e-01   7.168198920000001e+00 -4.65832824e+00  -2.10910871e+00  -2.23004522e+00
C     3.571681765799999e+00   9.272902993862510e-01   7.302282407999999e+00  6.18152605e+00   1.33349455e+00  -1.68931535e+00
C     3.515351388600000e+00   4.392670219361424e-01   9.848742055999999e+00  2.55819846e+00   2.93694853e+00   2.15803475e+00
C     4.867436771700000e+00   1.242665800254279e+00   9.949164048000000e+00 -4.01110510e+00  -2.26303867e+00  -1.05277795e+00
C     4.764450193275001e+00   2.108290013047218e-01   6.828128200000000e+00  2.97833946e+00  -6.74629390e-01   6.57369270e-01
C     6.111292299524999e+00   8.265155234470134e-01   6.614980296000000e+00 -9.11303680e-01   1.91189135e+00   2.71963839e+00
C     5.991361742474999e+00   4.306821783173910e-01   9.728977327999999e+00  1.77409738e+00  -2.40828450e-01   1.48860793e+00
C     7.237131909750000e+00   1.192167842772707e+00   9.855960255999999e+00 -1.03810328e+00  -1.19441231e+00   1.54254170e-01
C     1.387932054000000e+00   2.178377058300644e+00   7.026379208000000e+00 -3.53473973e+00   7.47072601e+00   8.20194890e-01
C     2.519585132550000e+00   3.075244827319065e+00   7.254657111999999e+00 -1.27843749e+00   1.16085652e+00  -1.55004595e+00
C     2.291864500875000e+00   2.587021929151460e+00   1.032601569600000e+01 -6.05473000e-02   1.19856953e+00  -1.63414531e+00
C     3.551987290875000e+00   3.406682014772237e+00   1.029594324000000e+01 -9.86191200e-02  -6.51847043e+00  -8.41649490e-01
C     3.702633165300000e+00   2.386458440855689e+00   7.392233896000000e+00  6.94965310e-01  -1.81193998e+00  -1.99770271e+00
C     4.987555272674999e+00   2.951811787071147e+00   7.113769272000000e+00 -1.96021705e+00   3.94563893e+00  -2.21071330e-01
C     4.777113576150000e+00   2.696013624095392e+00   9.987817696000000e+00  3.59172100e-02  -3.12786061e+00   1.73915378e+00
C     6.007848192450000e+00   3.302408464678924e+00   9.897251080000000e+00 -3.44335830e-01   3.27253631e+00  -4.42717050e-01
C     6.131378376674999e+00   2.273393894083112e+00   6.962993008000000e+00  3.14853768e+00  -4.13463504e+00  -1.27990475e+00
C     7.422945557099999e+00   2.866986815332240e+00   7.043939120000000e+00  1.72572645e+00   1.87422270e-01  -7.59906260e-01
C     7.189303748925000e+00   2.610756493036092e+00   9.931734559999999e+00  1.19764750e+00  -1.82509484e+00  -2.97531990e-01
C     8.416067546024999e+00   3.290600998505020e+00   9.976795711999999e+00  2.75578370e+00  -1.39341614e+00   1.60217427e+00
C     9.920458537350001e+00   4.586549263515820e+00   6.939002200000000e+00 -6.86552860e-01  -3.99420917e+00   3.57328260e-01
C     3.830184565650000e+00   5.113314074208740e+00   6.798314280000000e+00 -1.94947123e+00   3.49642386e+00  -3.06044510e-01
C     3.641183007750000e+00   4.702637580636996e+00   1.007616683200000e+01 -1.56891343e+00   4.15311875e+00  -1.41199076e+00
C     4.902912065700000e+00   5.435630765915750e+00   9.853811456000001e+00 -5.82058744e+00   2.79909176e+00   6.75620370e-01
C     5.098826728424999e+00   4.429557527826031e+00   6.893557256000000e+00 -5.84847630e+00  -2.62408123e+00   7.74487370e-01
C     6.225643624875000e+00   5.117427080734169e+00   6.974257888000000e+00  4.17676404e+00  -3.15265630e-01   5.88031770e-01
C     6.050271273825000e+00   4.775286521162157e+00   9.755527111999999e+00  5.49205890e-01  -3.14344958e+00   1.09008124e+00
C     7.208270297024999e+00   5.488580337348709e+00   9.676921016000000e+00  4.66579024e+00  -1.98774054e+00   8.19213680e-01
C     7.454420267024999e+00   4.234100858790403e+00   7.071151360000000e+00 -3.40804760e-01   6.49517351e+00  -1.11229410e+00
C     8.587092154724999e+00   5.194574051767301e+00   6.860164223999999e+00  8.96808120e-01  -2.26877338e+00   8.60929600e-01
C     8.515296651000000e+00   4.659079405057677e+00   9.778082031999999e+00 -2.80297770e+00   1.49606738e+00   3.07631850e-01
C     9.728547934349999e+00   5.264979965019576e+00   9.831411848000000e+00  1.65078864e+00   6.12725122e+00   2.55887140e-01
