72
Lattice="7.395 0 0 3.6975 6.40425786098592 0 0 0 13.6 " PBC="1 1 1" Properties=species:S:1:pos:R:3:force:R:3 Energy="-562.93693727"
C     3.627772434075000e+00   6.234412778785191e+00   2.342069600000000e-02 -3.13903530e-01  -1.53395669e+00   8.43363500e-01
C     1.208245829700000e+00   4.121722720375260e-01   1.351579777600000e+01 -3.38573380e-01   3.76313920e-01   8.58686570e-01
C     1.343556692625000e+00   1.072310427773185e+00   3.268670920000000e+00  3.86897699e+00  -2.53749572e+00   1.19948414e+00
C     2.735822808225000e+00   1.581025093858010e+00   3.010535576000000e+00 -3.83353152e+00   7.05139037e+00   2.06493043e+00
C     6.139774881525000e+00   6.148595851546348e+00   1.965724960000000e-01 -1.27889850e-01   5.70304770e-01  -1.46979810e-01
C     3.682936028175000e+00   4.278733989051522e-01   2.097302240000000e-01 -8.98925720e-01   1.93705529e+00  -6.46379620e-01
C     3.932512656300000e+00   1.035902670137135e+00   3.405322360000000e+00  1.99646987e+00   8.01337823e+00  -3.92961990e-01
C     5.169741487650000e+00   1.795505931079661e+00   3.614497976000000e+00 -2.57201460e-01   1.26768570e+00   4.02844570e-01
C     8.601222594675001e+00   6.145104890586863e+00   2.699575520000000e-01 -7.74124890e-01   3.06885923e+00   1.62722200e-01
C     6.055530560850000e+00   4.693140066230616e-01   2.181104080000000e-01  4.32215338e+00   3.31994730e+00   4.07303660e-01
C     6.432329289975000e+00   1.084863157434256e+00   3.834959552000000e+00 -3.39689488e+00   1.76295530e-01  -1.47589675e+00
C     7.572453341025000e+00   1.789319482029480e+00   3.437682336000000e+00  8.24994780e-01   9.69053160e-01  -1.43459890e-01
C     1.205500842675000e+00   1.771600181382432e+00   1.338191516000000e+01 -3.98405390e-01   5.86691598e+00   2.42839338e+00
C     2.446969338450000e+00   2.553267711717123e+00   1.313933604000000e+01 -1.61019580e-01   3.62311990e-01   3.28419395e+00
C     2.718019160850000e+00   3.142765430277673e+00   3.194976328000000e+00  4.20629900e-02   7.04417250e-01   1.04673091e+00
C     3.887539594050000e+00   3.987500234782865e+00   3.607339888000000e+00 -1.10157517e+00  -4.68190300e+00  -6.49704220e-01
C     3.695674507275000e+00   1.852957183447570e+00   1.358905594400000e+01 -1.75456164e+00   5.55974310e-01  -1.52743318e+00
C     4.843006021124999e+00   2.616594102160639e+00   2.360498960000000e-01  2.48511657e+00  -4.66622690e-01   1.24276915e+00
C     5.149795878525000e+00   3.311868514176822e+00   3.680330408000000e+00 -1.03069192e+00  -4.95472011e+00  -1.58273148e+00
C     6.382606197375000e+00   3.832902026425673e+00   3.494347552000000e+00  2.03367722e+00   6.61885913e+00   6.48045860e-01
C     6.133663801425000e+00   1.922028513404400e+00   5.147409600000000e-01 -4.23703870e-01  -2.12179240e-01  -2.02181060e+00
C     7.423219209075000e+00   2.639507127846989e+00   5.156022480000000e-01  1.99638590e-01  -8.40780280e-01  -3.97759602e+00
C     7.623007631624999e+00   3.189044967149441e+00   3.246042696000000e+00 -1.91946387e+00   7.51237700e-02   1.36904231e+00
C     8.851141056674999e+00   3.914675817592340e+00   3.279097496000000e+00  1.13377822e+00  -1.40713929e+00  -4.78737210e-01
C     2.402604034275000e+00   4.012386092102989e+00   1.330290772800000e+01  1.28117184e+00   1.47620660e+00   3.04019574e+00
C     3.669588940575000e+00   4.836415034350700e+00   1.359395180800000e+01 -4.02803680e-01  -5.11181664e+00  -7.44142090e-01
C     3.777491345250000e+00   5.293706391735762e+00   3.971400464000000e+00  5.11072215e+00   2.63506878e+00  -1.49948043e+00
C     5.035459712924999e+00   6.138101706531795e+00   3.756360528000000e+00  2.53166221e+00  -2.96798124e+00  -1.26174983e+00
C     4.896833634525000e+00   4.008102924446221e+00   2.537721920000000e-01 -3.06459600e-02   3.97867118e+00   1.82582570e-01
C     6.185337473175000e+00   4.823249801467898e+00   5.723343760000000e-01 -1.67132395e+00  -3.13840878e+00  -2.25151431e+00
C     6.384309044025001e+00   5.440772424338651e+00   3.577825304000000e+00 -2.03210500e+00  -1.84127372e+00   1.84733080e-01
C     7.610726976975000e+00   6.193182166682512e+00   3.517275520000000e+00  4.37822670e-01  -1.33969320e+01   1.55182690e-01
C     7.485423065025000e+00   4.191986202932728e+00   4.813294319999999e-01 -5.76445858e+00  -6.65627716e+00   1.20298565e+00
C     8.616591068549999e+00   4.808733462304372e+00   2.889776960000000e-01  4.67515968e+00  -3.42587431e+00  -3.59869590e+00
C     8.851943746949999e+00   5.300721359625292e+00   3.477483688000000e+00 -1.75252210e-01   3.40931984e+00   2.17618465e+00
C     1.006907810782500e+01   6.034725200836933e+00   3.916275312000000e+00 -4.18346005e+00   5.72187950e-01  -2.33241835e+00
C     7.384774637700001e+00   2.438428865304432e-01   6.876138512000000e+00 -6.10709080e-01  -7.49764910e-01  -1.16825487e+00
C     1.256686777200000e+00   8.815031859013380e-01   6.612971848000000e+00 -3.76160990e+00   3.19329927e+00   3.26124200e-02
C     1.073392791225000e+00   3.815489681857854e-01   1.013054820000000e+01  1.81522427e+00  -2.27216270e-01  -5.85292390e-01
C     2.336376004200000e+00   1.070573016658345e+00   9.746330248000000e+00 -2.66453056e+00   1.39879981e+00   7.94172220e-01
C     2.427795249675000e+00   2.557237454994222e-01   6.763473528000000e+00  9.75561880e-01  -4.40858972e+00  -3.83982370e-01
C     3.586167868275000e+00   1.006674597902774e+00   6.744325680000000e+00  2.61413380e-01  -1.14849588e+00  -4.78205320e-01
C     3.564011191125000e+00   3.910865732463690e-01   9.805180984000000e+00 -3.99823704e+00  -2.62881153e+00   9.12155620e-01
C     4.671717041174999e+00   1.062922810431682e+00   9.960229280000000e+00  8.23111805e+00   3.11842673e+00   1.28552232e+00
C     4.747889719349999e+00   3.157698750670464e-01   6.836823224000000e+00  3.75892654e+00  -4.19365607e+00  -1.44289310e-01
C     6.000811665074999e+00   9.814573202383950e-01   6.777142208000000e+00  2.62681555e+00  -8.14944980e+00   1.01282513e+00
C     6.028928897099999e+00   2.496918952339812e-01   1.034709950400000e+01 -1.06031302e+00   3.15535170e+00  -1.73522317e+00
C     7.244329241400000e+00   1.105565241179599e+00   1.031789772000000e+01 -1.74994168e+00  -2.74424508e+00  -1.43798680e-01
C     8.632799170724999e+00   2.348091364569951e+00   6.366949752000000e+00  9.29865980e-01  -1.34678802e+00   1.87442506e+00
C     2.459862557925000e+00   3.157506943147557e+00   6.445695792000000e+00 -1.23883379e+00  -2.41699656e+00   4.23954300e-02
C     2.266061645025000e+00   2.515273619409151e+00   9.613809672000000e+00  6.04559230e-01  -1.35377894e+00   1.69109539e+00
C     3.531093568800000e+00   3.274603354498476e+00   9.712957751999999e+00  1.04989037e+00  -1.20973458e+00   8.80972550e-01
C     3.625424114850000e+00   2.350792488407563e+00   6.548436855999999e+00  2.33332909e+00   5.40286709e+00   2.32315410e-01
C     4.914811545075001e+00   3.128633218500590e+00   6.612303544000000e+00  2.99695600e-02  -5.22341993e+00   4.79648830e-01
C     4.794651853950000e+00   2.615486357678594e+00   9.866358544000001e+00 -1.07747648e+00  -3.81060907e+00   1.33613822e+00
C     6.071829769424999e+00   3.283478951424072e+00   1.025470681600000e+01 -5.09189015e+00  -7.02848211e+00  -7.55027000e-01
C     6.128808244425000e+00   2.244170625042146e+00   6.698772072000000e+00 -6.16678520e-01   8.71661776e+00  -7.95828420e-01
C     7.407877505099999e+00   2.883991144631797e+00   6.607044968000000e+00 -1.39096078e+00   5.22766156e+00   2.68612770e-01
C     7.185960247574999e+00   2.529858804344672e+00   1.031264771200000e+01  2.89100796e+00  -3.96651132e+00  -1.44608615e+00
C     8.373533132925001e+00   3.087890482761685e+00   9.915486776000000e+00  2.52786838e+00   5.24393247e+00   6.42197030e-01
C     9.862259739450000e+00   4.526890271335833e+00   6.649050880000000e+00  3.30463090e-01   1.86953615e+00   1.30232734e+00
C     3.814041428550000e+00   5.222795758921541e+00   6.860882168000000e+00 -4.54661699e+00   3.51110200e-01  -9.83377990e-01
C     3.590772365025000e+00   4.657200587929290e+00   1.006831133600000e+01  2.46311703e+00  -3.24205204e+00  -7.23151930e-01
C     4.812572896950000e+00   5.322680150890503e+00   1.019001120800000e+01  2.89721580e-01   9.39035880e-01   2.49338900e-02
C     5.026854706049999e+00   4.495107476598539e+00   6.714083360000000e+00 -4.45721255e+00  -2.61802000e-01   1.93315040e-01
C     6.181849288650000e+00   5.149726250782714e+00   6.747873648000000e+00  2.53277106e+00   3.75415503e+00   8.54875800e-01
C     6.051811504424999e+00   4.546800404554208e+00   1.026801985600000e+01 -1.15208855e+00   1.09562578e+01  -1.55192384e+00
C     7.211356859099999e+00   5.377240841473301e+00   1.006218875200000e+01  1.77231969e+00  -1.92109733e+00   3.63046820e-01
C     7.384956074024998e+00   4.434428094013718e+00   6.771706016000000e+00 -2.11451490e-01  -2.39453377e+00  -9.81518950e-01
C     8.527476955499999e+00   5.197237774739010e+00   6.801184288000000e+00  3.11975219e+00   1.82207880e+00  -3.82774460e-01
C     8.387860649624999e+00   4.602019709015329e+00   1.001697636800000e+01  3.54141394e+00  -9.05352570e-01   8.88716000e-02
C     9.822664062375001e+00   5.237565962866638e+00   1.018239425600000e+01 -8.43975858e+00   4.31715677e+00  -2.16211850e-01
