64
Lattice="9.86 0 0 4.93 8.53901048131456 0 0 0 30 " PBC="1 1 1" Properties=species:S:1:pos:R:3:force:R:3 Energy="-514.8792546"
C     4.900719004500000e+00   8.343105512914171e+00   1.643976000000000e-01  8.66830310e-01   2.03052862e+00   1.00278760e-01
C     1.215251803400000e+00   5.432815624940703e-01   1.315086000000000e-01 -1.16914190e-01  -7.04071290e-01   1.64930140e-01
C     1.245316323800000e+00   9.016457296374527e-01   3.421250100000000e+00 -1.42368900e-02  -1.33404176e+00  -2.28278100e-02
C     2.469177435500000e+00   1.599059590729401e+00   3.263003100000000e+00 -3.72184870e-01  -4.56984100e-01  -1.94810140e-01
C     7.393166779500000e+00   8.398766881947843e+00   2.091936000000000e-01 -1.03161529e+00  -1.80945920e+00   2.10924930e-01
C     3.674987943800000e+00   5.451102769784673e-01   2.014959000000000e-01  1.17155179e+00   4.76036350e-01  -1.48737227e+00
C     3.681822550700000e+00   8.989406565074936e-01   3.369046800000000e+00  9.36583100e-01  -6.39830180e-01   6.63814940e-01
C     4.922851401400000e+00   1.611392227395350e+00   3.427385100000000e+00  3.81755120e-01  -1.24361241e+00  -4.92011650e-01
C     9.857554473500000e+00   8.389619893921667e+00   8.780789999999999e-02 -3.57402300e-02   2.63400560e-01   2.52252570e-01
C     6.160409334900001e+00   5.779804293102840e-01   7.251930000000001e-02  1.39100920e-01  -1.22775108e+00   7.21268630e-01
C     6.146481936999999e+00   8.704841479125792e-01   3.516274800000000e+00  1.10404540e+00   2.59061990e-01   7.58142700e-02
C     7.403230240600000e+00   1.578384340824491e+00   3.549733500000000e+00  5.88020000e-04   9.36040550e-01  -8.20961330e-01
C     1.232457690740000e+01   8.372881298628245e+00   1.264035000000000e-01 -5.47494880e-01   3.16780410e-01  -1.10821043e+00
C     8.614995400100000e+00   5.404608711622121e-01   1.946166000000000e-01  1.89629900e-01   4.76288960e-01  -5.99105220e-01
C     8.664824931399998e+00   8.980195534470160e-01   3.459064200000000e+00 -1.41551345e+00  -1.31120328e+00   2.58848120e-01
C     9.888036071900000e+00   1.607482812227292e+00   3.355740300000000e+00 -4.93640060e-01  -3.22444850e-01   2.61930640e-01
C     1.199525645700000e+00   1.935833723775151e+00  -3.414479999999998e-02  1.31141099e+00   9.64870230e-01   2.64940600e-02
C     2.459434424400000e+00   2.657646611852232e+00  -2.071268999999987e-01 -7.12908870e-01  -1.01554796e+00   7.52027980e-01
C     2.474136818300000e+00   2.978809811328551e+00   2.976224700000000e+00 -4.77251920e-01   1.45466616e+00   6.97088090e-01
C     3.701840914300000e+00   3.712918447546308e+00   3.022416000000000e+00  9.45702720e-01   4.71077530e-01   8.02068030e-01
C     3.690566102900000e+00   1.947078746676263e+00  -4.124039999999951e-02  6.48582400e-02   8.82102710e-01   1.50370140e-01
C     4.932524012100000e+00   2.678643782452238e+00  -1.381140000000158e-02 -2.99651890e-01  -2.56133160e-01   4.12384910e-01
C     4.955424256500000e+00   3.000604952457913e+00   3.281674200000000e+00 -9.25358100e-01   1.58690539e+00  -1.83832900e-02
C     6.179470736200000e+00   3.742547703840545e+00   3.445244400000000e+00 -6.35819030e-01  -1.61290818e+00   1.43611260e-01
C     6.162562561700000e+00   1.984012187144988e+00   1.468431000000000e-01  9.09904800e-02   5.99846100e-02  -5.73310960e-01
C     7.401760804799999e+00   2.693205442413886e+00   1.761030000000000e-01 -5.46846700e-02  -8.98404120e-01   2.06695980e-01
C     7.409173749999999e+00   3.035789688970438e+00   3.501422700000000e+00 -4.75506000e-03  -1.25071728e+00   2.37558300e-01
C     8.641118385500000e+00   3.737393300944503e+00   3.422375100000000e+00  2.90539150e-01  -1.29089280e-01   2.59582380e-01
C     8.644722412700000e+00   1.988861320416370e+00   1.502043000000000e-01 -1.82309977e+00  -1.88504776e+00   4.95378220e-01
C     9.844738051100000e+00   2.652821814760717e+00   5.471820000000000e-02  8.53418370e-01   1.48228255e+00  -1.14823862e+00
C     9.877575400699998e+00   3.018070302933286e+00   3.240259500000000e+00 -6.67849300e-01   5.17780450e-01   4.56798100e-02
C     1.107832363710000e+01   3.708041477100761e+00   2.989051800000000e+00  1.16374527e+00   1.07290735e+00   4.64740220e-01
C     2.450190773000000e+00   4.062257307562854e+00  -3.060209999999977e-01  5.99592130e-01   1.76750939e+00   1.68151640e-01
C     3.702584456899999e+00   4.809894383474180e+00  -2.406062999999996e-01 -3.83680200e-01  -2.37003770e-01   5.56933760e-01
C     3.714522649100000e+00   5.171393562925189e+00   3.090818700000000e+00  2.96448010e-01  -1.00567946e+00   2.03375500e-01
C     4.971455729100001e+00   5.851027923346206e+00   3.341190000000000e+00 -2.21763392e+00   4.34984350e-01  -7.46292300e-02
C     4.951078412199999e+00   4.101354020946583e+00  -1.382279999999980e-02 -2.10329813e+00  -3.75519880e-01  -8.73400210e-01
C     6.148409567000000e+00   4.777016546032931e+00   1.514448000000000e-01  1.08761075e+00   1.88613767e+00   8.54146380e-01
C     6.147584235699999e+00   5.129712774190004e+00   3.536666100000000e+00  9.62747480e-01   7.16944870e-01  -6.37677440e-01
C     7.378280693800001e+00   5.839774276044509e+00   3.602710500000000e+00  8.30989240e-01   7.45569000e-02   3.29414030e-01
C     7.389216715600000e+00   4.083333976350429e+00   2.332794000000000e-01  3.25771810e-01   9.20181640e-01  -8.98246500e-01
C     8.636389973200000e+00   4.796613745864741e+00   9.784560000000000e-02 -1.30426133e+00   2.91212700e-01   3.15611510e-01
C     8.630070058299999e+00   5.156162871492433e+00   3.542741700000000e+00  8.09248560e-01  -1.14152680e-01  -1.56260875e+00
C     9.867386273899999e+00   5.873359485113920e+00   3.286005000000000e+00 -1.03758260e-01  -2.52665670e-01   7.24353840e-01
C     9.819991275200000e+00   4.081934432532757e+00  -1.042502999999968e-01  2.14449494e+00   4.10891080e-01   5.29091930e-01
C     1.108347662100000e+01   4.819274059535935e+00  -2.397176999999999e-01 -8.03660230e-01  -6.95694660e-01   3.06208020e-01
C     1.110110856880000e+01   5.171872345242803e+00   3.009129600000000e+00 -7.33676190e-01  -8.74558020e-01   9.89885010e-01
C     1.233457622920000e+01   5.885728668744724e+00   3.092832300000000e+00  2.04050280e-01  -2.99108720e-01  -5.80045710e-01
C     3.657544617800000e+00   6.245298885728302e+00  -1.623801000000000e-01  2.73171099e+00  -5.89531630e-01   7.96929180e-01
C     4.922798601100000e+00   6.967418495061825e+00   1.175151000000000e-01 -8.25863240e-01  -2.76053862e+00  -2.79235280e-01
C     4.937123850000000e+00   7.283476390952361e+00   3.410662500000000e+00 -4.11562810e-01  -5.97621750e-01   6.72040460e-01
C     6.141376823400000e+00   7.988995566182030e+00   3.595487400000000e+00  1.45852467e+00   7.30453250e-01  -1.09713123e+00
C     6.147898128800000e+00   6.220671013262306e+00   2.872599000000000e-01 -3.35242380e-01   2.10293810e-01  -1.37951090e+00
C     7.383206256799999e+00   6.940563734052748e+00   2.779767000000000e-01  2.08671260e-01   1.95833910e-01  -8.96053900e-02
C     7.390414360499999e+00   7.243084736629341e+00   3.594577500000000e+00  2.77470300e-01   2.37798334e+00  -4.79370200e-02
C     8.643211022599999e+00   8.021134693826655e+00   3.513396300000000e+00 -6.25164080e-01  -1.40661533e+00   9.18869400e-02
C     8.610720498499999e+00   6.213142765452822e+00   1.541712000000000e-01  1.23752519e+00   1.58073339e+00  -3.52761460e-01
C     9.873530631500000e+00   6.982448519748302e+00   9.334500000000001e-03 -1.44227741e+00  -1.57619095e+00   5.86672900e-01
C     9.899661554200000e+00   7.297902707597903e+00   3.447048300000000e+00 -1.81849186e+00  -6.71523220e-01  -3.32328930e-01
C     1.111413727700000e+01   7.974246474940346e+00   3.434276700000000e+00 -3.82289950e-01   1.89161918e+00  -4.37956220e-01
C     1.108952932990000e+01   6.255535536881832e+00  -1.120145999999984e-01 -1.57955600e-02  -6.00003680e-01  -9.02410490e-01
C     1.233019656510000e+01   6.957481648566249e+00  -1.371699000000000e-01 -1.22916864e+00   7.52823250e-01   8.78908500e-01
C     1.232972939830000e+01   7.310881747357188e+00   3.231626100000000e+00  1.59555870e-01  -1.34821812e+00   9.78799000e-01
C     1.354629879350000e+01   7.971794498081013e+00   3.398332500000000e+00  1.52823844e+00   2.00225458e+00  -3.86713080e-01
