26
Lattice="8.88768389401873 1.33226762955019e-15 0 4.44384194700937 7.69696003302603 0 0 0 30 " PBC="1 1 1" Properties=species:S:1:pos:R:3:force:R:3 Energy="-204.88438457"
C     1.215008410875028e+01   6.311533471233702e+00  -2.494565999999985e-01  2.31700131e+00  -2.30252019e+00   3.72636130e-01
C     8.494123297586340e+00   6.002470430915484e+00  -2.092701000000012e-01 -4.28240585e+00  -6.32009380e-01   3.75750770e-01
C     9.778177426543788e+00   5.637745284748316e+00   1.073400000000000e-02  1.50792402e+00  -5.99770920e-01  -4.04067540e-01
C     1.015900010451129e+01   4.225483813624625e+00   4.308900000000000e-02 -3.35734334e+00   1.51443622e+00  -5.89647300e-02
C     6.092202595906905e+00   5.471113489180445e+00  -3.301830000000017e-01 -1.34590552e+00  -1.38861989e+00   6.06097760e-01
C     7.401844588887879e+00   4.971106034738795e+00  -2.023337999999981e-01  1.70083813e+00   3.66271543e+00  -6.03989840e-01
C     7.688937174918109e+00   3.660622774574999e+00  -1.338030000000003e-01  2.19927327e+00  -5.54135745e+00  -4.40438330e-01
C     9.102086912014654e+00   3.154230383910063e+00   3.548940000000000e-02  1.74265470e-01   6.32408579e+00  -8.36365790e-01
C     9.563284337268041e+00   1.911784247992252e+00  -2.015898000000007e-01 -2.93239738e+00  -3.15759148e+00  -1.07162590e-01
C     3.642458778074548e+00   4.867259650618839e+00  -2.280908999999980e-01  8.19427590e-01   3.45182327e+00   5.88364700e-01
C     5.036884431661921e+00   4.495819522582297e+00  -1.634117999999987e-01  5.98563100e-02  -1.34636413e+00  -1.06904755e+00
C     5.404470948619154e+00   3.047517805814135e+00  -1.462059000000018e-01 -3.77479843e+00   1.24294826e+00   1.74034830e-01
C     6.671000386847638e+00   2.570293045182884e+00  -3.466119000000027e-01  2.31375180e+00   3.90597506e+00   2.02573759e+00
C     7.070565679292129e+00   1.249220076501014e+00  -2.436923999999969e-01  4.12107317e+00   1.22194767e+00  -1.44426530e-01
C     8.491169472539838e+00   9.137621590303183e-01  -2.888193000000001e-01  3.53612500e-01   1.46778140e-01  -2.12590400e-02
C     2.594359412931879e+00   3.976264098752456e+00  -1.145238000000006e-01  1.93260627e+00  -4.68775768e+00  -1.73681500e-01
C     2.977758808197033e+00   2.539772597454326e+00  -2.035547999999991e-01 -6.30443930e-01   1.35576996e+00   1.41835016e+00
C     4.279176849560138e+00   2.100148564144029e+00  -6.637500000000074e-03  3.06502227e+00   5.27860500e-02  -1.27973739e+00
C     4.631949286184501e+00   7.316192187011902e-01   1.391460000000000e-02  1.39962713e+00  -1.82028052e+00  -1.34039509e+00
C     6.172631643466882e+00   2.923533249410888e-01  -1.694969999999785e-02 -8.51472284e+00   2.41994591e+00  -1.36822100e-02
C     1.076020263905903e+01   6.682979141081464e+00  -9.379559999999998e-02  3.93529310e+00  -4.64060351e+00   1.09931500e-01
C     2.018822287557478e+00   1.549537215076342e+00  -2.496761999999997e-01  1.25538600e-02  -2.01207236e+00  -2.07668785e+00
C     2.387458173375211e+00   1.375771569074266e-01  -6.218841000000026e-01 -4.33817967e+00   9.06295760e-01   2.91660264e+00
C     8.049318760962509e+00   7.365982051145165e+00  -3.235871999999986e-01  6.27724806e+00   1.59378261e+00   1.26548498e+00
C     4.394564719642593e+00   7.250019420424385e+00  -3.059693999999986e-01 -8.69094380e-01  -8.21833870e-01  -4.34483510e-01
C     5.802752418443518e+00   6.833815004366969e+00  -4.227612000000001e-01 -2.14408293e+00   1.15149125e+00  -8.48601580e-01
