64
Lattice="7.10842262195238 0 0 0 7.10842262195238 0 0 0 7.10842262195238 " PBC="1 1 1" Properties=species:S:1:pos:R:3:force:R:3 Energy="-510.2088001"
C     2.800647428053800e-03   7.079105068251430e+00   1.670564616771440e-02 -4.83178980e-01  -7.64935910e-01  -1.46939814e+00
C     1.701886814783077e+00   1.744157760735169e+00   7.094764994367515e+00  1.41098381e+00   8.12516410e-01   1.99380592e+00
C     7.439817282544400e-03   1.735155014571165e+00   1.813307642971814e+00  4.06861530e-01   2.66770940e-01  -1.11052331e+00
C     1.826941313220070e+00   7.056322360501651e+00   1.829199801254896e+00 -9.97053890e-01   9.86949180e-01  -4.04522351e+00
C     8.836827760788117e-01   7.775784793360246e-01   8.886070647645906e-01 -2.56329660e-01   3.10481026e+00   1.29720703e+00
C     2.645085285753196e+00   2.680422676281740e+00   9.008528865805169e-01 -3.59450000e-04  -8.62270610e-01  -1.54912631e+00
C     9.855213084073370e-01   2.629613021994278e+00   2.621088032914564e+00 -4.19739807e+00  -2.62031370e-01   1.85911962e+00
C     2.701477113239918e+00   8.797887821675757e-01   2.589993517679446e+00 -1.27076806e+00  -1.54257710e-01   3.17424129e+00
C     3.594487632564920e+00   7.535404241515539e-02   7.058983114172542e+00 -9.08681570e-01  -1.16123711e+00   2.33782349e+00
C     5.416314791131031e+00   1.807672725276714e+00   7.089991048820149e+00 -2.04055317e+00  -5.82150470e-01   1.80997604e+00
C     3.532766762808436e+00   1.827384025780843e+00   1.798038040341793e+00  1.31358487e+00  -1.05054328e+00  -1.72766976e+00
C     5.364003127143962e+00   7.091271560070916e+00   1.751803722273693e+00 -3.25483568e+00  -1.73330510e-01  -5.59854730e-01
C     4.482585947522597e+00   9.268203098325081e-01   9.136162015631792e-01 -5.99310390e-01   5.33958760e-01  -1.75938115e+00
C     6.259118592575200e+00   2.683034381836554e+00   1.013349148027434e+00 -1.06058840e+00   5.81568570e-01  -3.72984509e+00
C     4.391877427911337e+00   2.681956034125100e+00   2.702628464451680e+00  1.19921256e+00  -1.93418670e-01  -3.77999000e-03
C     6.160780816218572e+00   8.185841971459827e-01   2.630141248879170e+00  3.66014379e+00   2.57776900e+00   1.23392647e+00
C     7.063852881256826e+00   3.628952108795728e+00   3.278894993504780e-02  1.35989997e+00  -1.92274387e+00  -3.35702250e-01
C     1.810116316636565e+00   5.256745346662628e+00   2.088809986887000e-02 -6.29535880e-01   4.20147529e+00  -1.96788869e+00
C     2.203490169015460e-02   5.336814263633177e+00   1.799555404234258e+00 -2.16857190e-01   4.80811660e-01  -1.28623348e+00
C     1.766392409100946e+00   3.545209772267842e+00   1.771713845358504e+00  4.92270320e-01   2.00972380e-01  -5.60122660e-01
C     9.159385232331334e-01   4.457850342826426e+00   8.521757590790547e-01 -1.51499210e+00  -6.14753470e-01   2.59135968e+00
C     2.673548120765938e+00   6.272066584377528e+00   8.073862279084706e-01  6.61781530e-01  -2.92470025e+00   2.88559941e+00
C     9.339748661153119e-01   6.216065009292645e+00   2.694615566137510e+00 -2.46882810e-01  -3.59451620e-01  -4.99078680e-01
C     2.626689754276029e+00   4.402176679277003e+00   2.686588095556971e+00  6.11977530e-01   2.64326008e+00  -7.61648010e-01
C     3.541679089836713e+00   3.543933170649516e+00   7.088320640588675e+00  8.35383920e-01  -1.62097030e-01   7.29670590e-01
C     5.283310517172735e+00   5.273903088508974e+00   3.950434786838800e-02 -9.02041200e-02   2.68284631e+00  -3.40007860e-01
C     3.521647981398911e+00   5.284168290530290e+00   1.787575153087414e+00  2.61770670e-01   1.93192639e+00  -1.06423993e+00
C     5.309560073718513e+00   3.594490404849742e+00   1.860756506128767e+00  2.51062660e-01  -2.10871289e+00  -1.31684132e+00
C     4.396830363540274e+00   4.405601730547997e+00   9.462089590339152e-01  8.63796210e-01   1.69731520e-01  -1.55252176e+00
C     6.149751743102509e+00   6.220511825231038e+00   8.463319959273790e-01  3.08000582e+00  -1.21006066e+00   1.73045820e+00
C     4.411198262760950e+00   6.216455261694483e+00   2.615235313150387e+00  4.09087550e-01  -7.72170440e-01   1.15221369e+00
C     6.221528258581472e+00   4.483538333985225e+00   2.685410585349968e+00  1.23846020e-01  -5.09600170e-01  -8.88404050e-01
C     3.475457095793020e-02   1.862470702243580e-02   3.486810668401684e+00 -1.83075258e+00  -1.71463229e+00   2.66107807e+00
C     1.783143904594559e+00   1.693732885364127e+00   3.530014665906877e+00  5.67625040e-01   2.93835615e+00   3.80173380e-01
C     7.049318787115295e+00   1.772414593660383e+00   5.316357005259305e+00  2.91637293e+00   3.42888060e-01  -8.64103620e-01
C     1.812420867249970e+00   6.281798370365441e-02   5.348471436971941e+00 -1.43976658e+00  -2.30579269e+00  -7.41936900e-02
C     8.895248332090587e-01   8.630079288885418e-01   4.437944555879413e+00 -4.49978040e-01   1.07959517e+00  -7.27267760e-01
C     2.629965386503551e+00   2.658514659935352e+00   4.431012919729973e+00  1.10780471e+00  -6.13772270e-01   4.57612060e-01
C     8.571643789895446e-01   2.644544476960266e+00   6.222557842513752e+00 -1.25503662e+00   7.16769470e-01   4.83952840e-01
C     2.630439944797662e+00   9.464045117401915e-01   6.248588815063966e+00  2.31809580e+00  -4.58936090e-01  -1.78879200e+00
C     3.533202509115042e+00   2.446811475298060e-02   3.521295474721185e+00  1.98695610e+00  -1.46939362e+00   1.66092350e-01
C     5.321579136852861e+00   1.707838483790124e+00   3.547326091850268e+00  6.01771490e-01   3.28402350e+00  -1.51321316e+00
C     3.560136393506448e+00   1.802031338917030e+00   5.334519380474536e+00  2.65155640e-01  -1.88842830e-01  -1.10303116e+00
C     5.342487424641972e+00   7.093602269679562e+00   5.302463237827384e+00 -5.63904340e-01  -4.20844370e-01   2.89734910e-01
C     4.481006242763755e+00   8.611364944653744e-01   4.352742291513832e+00 -2.35342766e+00   3.12677790e-01   4.27047268e+00
C     6.264401430097930e+00   2.721333212312816e+00   4.370695181514451e+00 -1.81311106e+00  -2.98296391e+00   1.94067837e+00
C     4.498188721920818e+00   2.691452744576968e+00   6.188341663485061e+00 -9.09960950e-01  -1.48216480e+00   1.31572278e+00
C     6.238106806152741e+00   8.452906120135490e-01   6.198787490525151e+00 -3.58175710e-01   1.84689229e+00   2.23866270e-01
C     7.099024147948741e+00   3.607983612667025e+00   3.519835546883490e+00  2.51151279e+00  -1.22955214e+00   8.71370940e-01
C     1.844498192996529e+00   5.368146839941839e+00   3.595246385595379e+00 -2.49649377e+00  -1.55859674e+00   4.36347430e-01
C     2.067555803253200e-03   5.359267140573387e+00   5.375774319581551e+00 -3.39584670e-01   5.06765520e-01  -2.39839772e+00
C     1.773860517905518e+00   3.507843922260454e+00   5.370774965952906e+00 -8.56089280e-01   1.13812552e+00  -1.76379696e+00
C     9.096962619093805e-01   4.464648411714837e+00   4.472744123152529e+00 -7.56052190e-01  -4.32425280e-01  -4.94870300e-02
C     2.701003052535390e+00   6.234238686899841e+00   4.507383111158657e+00 -5.34161040e-01   1.34992958e+00  -2.10460687e+00
C     9.032885165070338e-01   6.235856848225058e+00   6.214406116705815e+00  3.18980400e-02  -7.22574120e-01   7.37041060e-01
C     2.652633079975338e+00   4.442415042865132e+00   6.204382814306259e+00  5.54671310e-01  -1.23548056e+00   1.20046514e+00
C     3.496310222222599e+00   3.585389846790487e+00   3.542345362288887e+00  1.29582337e+00  -1.87785625e+00   2.24218731e+00
C     5.324210390569881e+00   5.335873037394063e+00   3.515509574129636e+00 -1.16987382e+00   4.19834710e-01   1.86028542e+00
C     3.518935762748250e+00   5.355129754271642e+00   5.380097306797905e+00  2.38222321e+00  -7.39802210e-01  -6.10055560e-01
C     5.365159312083105e+00   3.519346629575686e+00   5.317797029513665e+00 -7.41500150e-01   3.08389691e+00  -7.19703550e-01
C     4.424743290979134e+00   4.427930636597715e+00   4.483703818063819e+00 -1.98924980e-01   8.66528500e-01  -1.73746585e+00
C     6.161866627773777e+00   6.221055193056111e+00   4.396685778224183e+00  3.13025118e+00   3.96019200e-02   8.03895800e-01
C     4.473492355717510e+00   6.217646917662500e+00   6.263394877454939e+00 -1.92274541e+00   5.42489960e-01  -1.67634526e+00
C     6.179646356599373e+00   4.546833790436264e+00   6.223387821938864e+00  1.14056691e+00  -4.44879051e+00   5.14983900e-01
