64
Lattice="7.10842262195238 0 0 0 7.10842262195238 0 0 0 7.10842262195238 " PBC="1 1 1" Properties=species:S:1:pos:R:3:force:R:3 Energy="-512.70293422"
C     7.072068298531438e+00   1.050980284367000e-02   2.679896653007860e-02  2.14554430e-01  -8.62451660e-01  -4.59914390e-01
C     1.742056368840245e+00   1.769819806151405e+00   7.096422536354047e+00 -3.82565000e-03   1.37017230e-01   1.25248543e+00
C     7.095988069563512e+00   1.785403885398136e+00   1.803979117799136e+00  9.68595400e-01  -1.29786540e-01  -2.10801800e-02
C     1.783127341969854e+00   3.354571260717300e-02   1.774460753111550e+00 -8.34908290e-01  -1.15092020e+00  -9.63690150e-01
C     8.541212632659226e-01   8.984985059245467e-01   8.784629191804934e-01  3.31955140e-01  -1.26234600e-01   1.15838163e+00
C     2.632945521602760e+00   2.635286751676883e+00   8.841575476256015e-01  1.17047871e+00   6.68927090e-01  -4.06395010e-01
C     9.357078995500677e-01   2.696420039219598e+00   2.663670043440507e+00 -1.71976182e+00  -7.62171680e-01   5.70902600e-02
C     2.681240713556849e+00   8.757615764164410e-01   2.636489567868413e+00 -5.13835830e-01   3.91669780e-01   2.12313649e+00
C     3.563227348914303e+00   9.615847614978801e-03   7.099566804931552e+00  1.87726070e-01   1.23168900e-01   7.47201800e-01
C     5.374468360177805e+00   1.801336561690151e+00   9.505738148594999e-03 -1.00944884e+00  -1.63357600e-01   5.81122300e-01
C     3.546355081320376e+00   1.755924048361150e+00   1.786327198412248e+00  5.20631140e-01   1.58633009e+00  -7.09912240e-01
C     5.304997461575640e+00   3.659046326799760e-02   1.807681113215406e+00 -4.86098540e-01  -1.58343928e+00  -9.19300210e-01
C     4.468996278410359e+00   9.189682040380036e-01   9.193994720383589e-01 -1.11293502e+00  -3.99207660e-01  -1.35262408e+00
C     6.240620344391172e+00   2.668683684998619e+00   9.623015037506546e-01 -5.01067050e-01   1.24098073e+00  -2.35437297e+00
C     4.437828333169577e+00   2.697094557442009e+00   2.643534583358643e+00 -1.72189340e-01  -8.10402230e-01   1.45385388e+00
C     6.185972994899624e+00   8.759568447858124e-01   2.679039519408340e+00  2.01064199e+00   2.08260490e-01   8.30582100e-02
C     7.090740560901202e+00   3.573705306024636e+00   7.107341926509082e+00  1.33235526e+00  -5.55779030e-01   3.34196540e-01
C     1.814408453298748e+00   5.308176063834400e+00   7.066258584724113e+00 -1.32584183e+00   1.58474903e+00  -6.67980240e-01
C     1.426816805131640e-02   5.322944522669712e+00   1.798137202837341e+00  1.85123800e-01   1.13791626e+00  -1.10647710e+00
C     1.788230762905657e+00   3.603958255105772e+00   1.773721121737939e+00 -5.75657100e-01  -2.14601377e+00  -1.10206438e+00
C     9.484283507443316e-01   4.481399196366188e+00   8.226548353593257e-01 -2.22762754e+00  -9.89979330e-01   2.51176074e+00
C     2.631339942185580e+00   6.258297854099493e+00   7.899978888323314e-01  1.48098273e+00  -1.83349411e+00   3.40718436e+00
C     9.090577833896519e-01   6.250706485246691e+00   2.717367067911987e+00 -1.22477560e-01  -8.49646210e-01  -2.33389223e+00
C     2.631641339304668e+00   4.412989869598094e+00   2.667857117616366e+00  1.70263847e+00   2.48506119e+00  -3.43469980e-01
C     3.555834802642182e+00   3.489394580024054e+00   7.039577618009526e+00  8.44401350e-01   1.03824299e+00   1.97832227e+00
C     5.324468355226761e+00   5.302118692582993e+00   7.082450078683722e+00 -4.37774680e-01   6.21872300e-01   9.70888060e-01
C     3.548856535240354e+00   5.279731426383565e+00   1.747599303546642e+00 -6.19112610e-01   1.89894624e+00  -1.05981000e-03
C     5.350963578858287e+00   3.601256628004815e+00   1.805921920785408e+00 -4.72400560e-01  -2.29166049e+00  -7.95628660e-01
C     4.452912121632312e+00   4.397947665407686e+00   8.814595458201806e-01 -5.04005530e-01   8.43524060e-01  -8.74969610e-01
C     6.137581270566356e+00   6.222582579824470e+00   8.897921098995707e-01  2.58254924e+00  -2.14408250e-01   8.93857190e-01
C     4.389195206804132e+00   6.229660862732562e+00   2.666890443224272e+00  9.51642600e-01  -5.04220490e-01  -5.14886790e-01
C     6.252538681176996e+00   4.426908871930316e+00   2.677996358388855e+00 -8.03395780e-01   1.76598103e+00  -2.42570810e-01
C     9.721976364695401e-03   7.084661224623900e+00   3.561522251580444e+00 -1.35729373e+00   7.86855940e-01   7.33937120e-01
C     1.777778822622114e+00   1.777909404345643e+00   3.554577607017609e+00  1.63920470e-01   8.04091600e-02   1.28794840e-01
C     7.057802263006908e+00   1.756667376114524e+00   5.335631990783019e+00  2.17145855e+00   9.88945800e-01  -3.07301810e-01
C     1.794219608963007e+00   2.814352466865160e-02   5.342238061176463e+00 -1.50770245e+00  -8.74735860e-01   3.55070470e-01
C     8.484102854487884e-01   8.871038466331392e-01   4.448585366951970e+00  1.40732801e+00   5.62489700e-02  -1.31253980e-01
C     2.659263105753012e+00   2.650623031311081e+00   4.483308660850373e+00  7.16105220e-01  -3.15362770e-01  -9.73440390e-01
C     8.667540676092818e-01   2.649129267381714e+00   6.222667596559006e+00 -2.73510810e-01   9.21063700e-02   1.55030100e-01
C     2.663525813545547e+00   9.047104853679386e-01   6.268503842960385e+00  5.07021410e-01  -3.41948960e-01  -1.72358297e+00
C     3.539873266154329e+00   7.094171227826067e+00   3.593022515578712e+00  6.26981350e-01   7.14306770e-01  -9.76986920e-01
C     5.359768355452323e+00   1.767928397060675e+00   3.549213733477009e+00 -1.01016908e+00   1.48151607e+00   3.57436690e-01
C     3.574946223361409e+00   1.759063341042821e+00   5.380103064620227e+00  1.57330820e-01   5.75891820e-01  -1.96165382e+00
C     5.328475159804976e+00   4.311755908613399e-03   5.354319251924510e+00  5.89330500e-02  -6.34382670e-01  -1.78957110e-01
C     4.479867402375804e+00   9.007199590775230e-01   4.465164909702406e+00 -1.53114183e+00  -6.14197200e-01  -2.08118440e-01
C     6.287108433146806e+00   2.707515007413346e+00   4.409777360163437e+00 -2.44143406e+00  -2.57841169e+00   8.95476710e-01
C     4.514795845351020e+00   2.662935956636540e+00   6.153707935711672e+00 -1.52547194e+00  -5.99840800e-01   2.34616617e+00
C     6.211967216904893e+00   8.912776280586984e-01   6.243529679601087e+00 -1.16807910e-01  -1.00176810e-01  -3.35704320e-01
C     1.563838759554760e-02   3.566570440072489e+00   3.568258690444739e+00  1.06689170e+00  -3.44641000e-01  -1.34821404e+00
C     1.818813471712135e+00   5.375622768011293e+00   3.547927251151242e+00 -1.65644418e+00  -1.90441275e+00   1.05060046e+00
C     7.092125921385613e+00   5.291205913260995e+00   5.336159222488744e+00  4.79451550e-01   1.81205438e+00  -1.12323314e+00
C     1.785672797025850e+00   3.514111063063377e+00   5.370533208499599e+00 -1.32126979e+00   3.09196680e-01  -2.20087575e+00
C     8.806465555251312e-01   4.407204893101485e+00   4.429497261858937e+00  1.33693285e+00   1.86732861e+00   1.25419423e+00
C     2.677466638735213e+00   6.210852189732720e+00   4.485081288199122e+00 -2.52856590e-01   7.61670580e-01  -8.58098270e-01
C     8.408185611748545e-01   6.233217561990478e+00   6.223343820802846e+00  1.53226751e+00  -7.67473920e-01  -5.00443720e-01
C     2.669108057829033e+00   4.387291357973818e+00   6.174961763924339e+00  6.86315820e-01   1.44173987e+00   1.26636166e+00
C     3.525866474802750e+00   3.586075169815281e+00   3.554318291760431e+00  7.64886900e-01  -1.83745282e+00   4.82657090e-01
C     5.308576765617489e+00   5.368706983644294e+00   3.515530046386782e+00  4.50636700e-01  -1.44961123e+00   1.22478622e+00
C     3.557777747796906e+00   5.318065585720248e+00   5.324923365358667e+00  3.92881440e-01  -3.49323310e-01   4.27244790e-01
C     5.373679396351211e+00   3.532827681990290e+00   5.284753811301500e+00 -6.52293150e-01   1.53923312e+00   1.65026000e-03
C     4.447831589817346e+00   4.445171191567584e+00   4.426268474136480e+00 -1.23313840e-01   3.02348020e-01  -4.75115230e-01
C     6.173841334350976e+00   6.200186499180994e+00   4.445781449649512e+00  1.59329295e+00   5.43912790e-01  -8.88349800e-02
C     4.446507575020145e+00   6.202772116824792e+00   6.240952663148658e+00 -6.75296000e-01   4.25066260e-01  -1.03456904e+00
C     6.229109959979511e+00   4.454730740475412e+00   6.185383991001332e+00 -7.25745130e-01  -1.41582860e+00   1.37855010e+00
