64
Lattice="7.10842262195238 0 0 0 7.10842262195238 0 0 0 7.10842262195238 " PBC="1 1 1" Properties=species:S:1:pos:R:3:force:R:3 Energy="-512.90036061"
C     1.342944526638260e-02   7.089446685815910e+00   7.059623725219057e+00 -6.10950590e-01  -3.63217960e-01   4.22517200e-01
C     1.778227719510567e+00   1.751463939672457e+00   3.174920095842040e-02 -9.51070230e-01   9.72744880e-01  -1.33166596e+00
C     3.908210756476000e-04   1.745872027934208e+00   1.785865435278852e+00  4.67886440e-01   5.90023900e-01  -1.86628171e+00
C     1.809337944359676e+00   7.059517454300888e+00   1.739458951214896e+00 -8.70009880e-01   8.60117370e-01   1.33198760e+00
C     8.787230163641592e-01   8.096014256495412e-01   8.307529636607084e-01  7.07133660e-01   2.06606681e+00   2.18844001e+00
C     2.651073492052510e+00   2.676264177964814e+00   9.015596059573975e-01 -2.35353740e-01  -3.64478800e-01  -8.14320000e-03
C     8.912998774214991e-01   2.625396732201451e+00   2.683127502172876e+00 -2.14017400e-01   5.46479610e-01  -3.03023370e-01
C     2.669953320362778e+00   9.202962706360982e-01   2.615417715274816e+00 -2.79839400e-02  -1.38934139e+00   1.19475611e+00
C     3.534739989843522e+00   6.951326480098000e-02   7.084565758508114e+00  7.95112760e-01  -2.06584528e+00   9.03958020e-01
C     5.325249926293830e+00   1.741210182211560e+00   7.102053899837837e+00  2.50824220e-01   2.52080651e+00  -8.74149530e-01
C     3.529198263568970e+00   1.818900478805004e+00   1.772110068835343e+00  1.91935129e+00  -1.03089607e+00  -1.22554300e-02
C     5.383562165235571e+00   7.089416119598644e+00   1.757720915431034e+00 -2.13882244e+00   4.88771670e-01  -4.15332150e-01
C     4.460132644077029e+00   9.296977993090839e-01   8.837955867457912e-01 -1.01448955e+00  -1.43247698e+00  -5.36194400e-02
C     6.196447326714422e+00   2.671590034671033e+00   8.822342928015344e-01  1.87487724e+00  -7.88053310e-01  -2.88289400e-01
C     4.462243632342490e+00   2.609611768931479e+00   2.700164116497778e+00 -1.28476998e+00   2.82517510e+00  -1.38960607e+00
C     6.251156235145858e+00   8.648677054986124e-01   2.613101080342958e+00 -6.00483150e-01   3.74796170e-01   2.13943273e+00
C     9.465717729244399e-03   3.606046496418850e+00   7.074205872297498e+00 -1.07034105e+00  -2.06988661e+00   1.99413797e+00
C     1.818313678517723e+00   5.333528182024403e+00   2.856548063537480e-02 -1.08683811e+00  -1.92745080e-01  -1.34760850e-01
C     7.078948327532657e+00   5.358732729360816e+00   1.788243273729468e+00  1.41562692e+00  -1.17514463e+00   1.80744400e-02
C     1.780716591522508e+00   3.526016320351579e+00   1.814138546491866e+00 -9.79488980e-01   8.85996280e-01  -5.90021350e-01
C     8.671026646545666e-01   4.433636851771694e+00   9.171026696056108e-01  9.00256510e-01   7.92782620e-01  -3.77586870e-01
C     2.702917350746956e+00   6.192118439507294e+00   9.109693804006224e-01 -1.88257990e-01   8.25075220e-01  -9.46361680e-01
C     9.113885640825239e-01   6.205828454214488e+00   2.684433816997754e+00 -7.27857740e-01   6.07650510e-01  -5.29599880e-01
C     2.656628439993135e+00   4.450351028046552e+00   2.710893356347727e+00 -1.38921280e-01  -5.38303430e-01  -1.30728806e+00
C     3.497641985200457e+00   3.556091132361859e+00   8.178737813893401e-03  2.10507405e+00  -3.42290740e-01   7.61645900e-02
C     5.277519925022256e+00   5.295440116278824e+00   6.576286102666799e-03  5.39810940e-01   1.24844586e+00   7.17709620e-01
C     3.567856780229804e+00   5.300705964671494e+00   1.813905603482609e+00 -5.91957900e-02   7.50179970e-01  -9.18493990e-01
C     5.385219991559008e+00   3.532185436006573e+00   1.804095909182783e+00 -1.94177190e+00   2.89270900e-02  -2.16907010e-01
C     4.441793837812370e+00   4.400282568985677e+00   9.157449608851909e-01 -5.30234070e-01   3.59521020e-01   2.14523180e-01
C     6.200397334995903e+00   6.197365308411568e+00   8.678607779269896e-01  7.01628090e-01   2.53865450e-01  -3.54790010e-01
C     4.463697802357864e+00   6.210842309025279e+00   2.636302758521960e+00  2.33540370e-01   5.28436500e-01   9.77962520e-01
C     6.242474647515826e+00   4.454499787824489e+00   2.695262361511704e+00 -2.91318600e-02  -9.13080390e-01  -8.07581270e-01
C     2.327802263794020e-02   3.740963789072640e-02   3.569553845046103e+00 -1.11185656e+00  -2.19385306e+00  -1.13978403e+00
C     1.759796290499169e+00   1.725430621342779e+00   3.540180847601096e+00  5.59176610e-01   1.91485213e+00   1.19695840e-01
C     7.104677902963783e+00   1.770849603336364e+00   5.341268898836452e+00  4.84267110e-01   3.06426400e-01  -8.97857310e-01
C     1.797895232131357e+00   7.103445160313023e+00   5.280539796203911e+00 -2.45344740e-01   2.56136890e-01   1.42633349e+00
C     8.903572294978608e-01   8.485068889121942e-01   4.419465145015331e+00  3.79455570e-01   1.89541825e+00   1.04552089e+00
C     2.643997981429241e+00   2.706215658842636e+00   4.423374350950974e+00 -3.98169670e-01  -1.58287677e+00   3.34290380e-01
C     9.032080491629753e-01   2.675684272847474e+00   6.246580898926496e+00 -8.82144410e-01  -4.04722500e-02  -7.64559260e-01
C     2.627350339990105e+00   9.312563209685190e-01   6.182843014251587e+00  9.56587880e-01  -7.71734380e-01   5.93660000e-01
C     3.587203702990432e+00   5.322580713600020e-02   3.555027499085228e+00 -1.19313330e-01  -1.61094823e+00  -1.72840889e+00
C     5.335029409797521e+00   1.762332788942664e+00   3.528551752531681e+00  2.61609720e-01  -1.13371583e+00   1.35881241e+00
C     3.512035119321433e+00   1.808338571223530e+00   5.301529120010890e+00  1.06555421e+00  -3.01137900e-02   3.72940250e-01
C     5.321735522150502e+00   4.274578858310800e-03   5.355299005814224e+00 -4.84368600e-02  -2.37542580e-01  -9.21958560e-01
C     4.451928600278609e+00   8.689755918464842e-01   4.466685969974634e+00 -3.94091450e-01   1.63661989e+00  -9.78426780e-01
C     6.189493725539085e+00   2.630236928247635e+00   4.441166306263476e+00  1.66981806e+00   1.83586813e+00  -4.29910500e-02
C     4.393255537804676e+00   2.689343320164483e+00   6.192640126643376e+00  1.00552307e+00  -5.85269820e-01   6.17209480e-01
C     6.232086114362053e+00   8.828186762251246e-01   6.162064384091065e+00 -4.24036080e-01  -1.39559440e-01   2.61027936e+00
C     3.679824246118020e-02   3.557240990804870e+00   3.582886757933306e+00 -1.39318247e+00  -7.14211250e-01  -6.80816470e-01
C     1.767543404891576e+00   5.322244200873189e+00   3.589283058775235e+00  8.55554720e-01   1.05944627e+00  -9.90762540e-01
C     7.090307800132097e+00   5.360285137776797e+00   5.376048349273552e+00  2.58440390e-01  -5.04936500e-01  -1.07551588e+00
C     1.769089202474521e+00   3.575563732034408e+00   5.351026985988057e+00  1.88315380e-01  -3.06274830e-01  -3.00406570e-01
C     8.788322017356024e-01   4.457317993056414e+00   4.453093599661801e+00 -2.88115100e-02  -1.20318640e-01   1.55559538e+00
C     2.723016131368101e+00   6.274389545805518e+00   4.397463297490359e+00 -1.76300936e+00  -1.99850718e+00   1.54943101e+00
C     9.388912644519825e-01   6.217428902340744e+00   6.229820802241512e+00 -8.52409810e-01  -3.77608380e-01  -7.58036150e-01
C     2.674362390577059e+00   4.457644767244256e+00   6.245020386908727e+00 -7.05451850e-01   1.07873980e-01  -8.36159780e-01
C     3.512709779712297e+00   3.565288436052972e+00   3.548711736671585e+00  2.08508025e+00  -5.76799140e-01   1.04506092e+00
C     5.332288402035249e+00   5.311301921597319e+00   3.517889260770134e+00 -1.74419400e-02   1.42724232e+00   2.16487052e+00
C     3.561394868647094e+00   5.342071439750250e+00   5.337588797361852e+00  5.37135700e-02   7.38490920e-01  -2.89938140e-01
C     5.332803549422520e+00   3.601057805424133e+00   5.299202888708495e+00 -9.44977140e-01  -2.29634374e+00   1.31943423e+00
C     4.441155074955737e+00   4.454429912030134e+00   4.458055847324370e+00 -2.94443430e-01   2.23213390e-01  -1.39600289e+00
C     6.208320453932381e+00   6.261737619805311e+00   4.471749228322633e+00  4.65810000e-01  -1.35040229e+00  -1.09954225e+00
C     4.421078472613166e+00   6.237812730708951e+00   6.233854334488778e+00  1.91963850e-01  -1.38728450e-01   3.78080800e-02
C     6.161931812009202e+00   4.449026942165125e+00   6.251276936161946e+00  1.94276357e+00   4.56977410e-01  -1.68897240e+00
