64
Lattice="7.10842262195238 0 0 0 7.10842262195238 0 0 0 7.10842262195238 " PBC="1 1 1" Properties=species:S:1:pos:R:3:force:R:3 Energy="-510.99378246"
C     1.981053408390420e-02   3.541636510385220e-02   9.753424026366279e-02 -1.18325651e+00   3.56381560e-01  -2.53846854e+00
C     1.783745134979758e+00   1.780422373910266e+00   4.006306988632000e-03  6.27937690e-01   4.97511240e-01  -9.79298500e-01
C     7.105470421001688e+00   1.809837737554088e+00   1.854745268540164e+00 -4.33389260e-01   2.54078780e-01  -3.48469411e+00
C     1.741440068599091e+00   8.992829914448899e-02   1.804040108065216e+00  1.09479613e+00  -2.90856995e+00  -1.24590580e-01
C     9.038335903535353e-01   9.740631709019328e-01   8.982702544742185e-01 -7.52667870e-01  -1.30277765e+00   1.65693048e+00
C     2.707512021875845e+00   2.651593615335615e+00   8.403258053188362e-01 -8.42879510e-01   3.48668330e-01   1.91527361e+00
C     8.744143881614985e-01   2.755659003218308e+00   2.606191195966735e+00  1.39214708e+00  -2.53977722e+00   2.35011974e+00
C     2.692376199759532e+00   8.422738685378471e-01   2.746888986810883e+00 -2.51804560e+00   2.43336461e+00  -2.64927276e+00
C     3.599189640875371e+00   7.058471734249260e+00   2.461106513186880e-02 -2.64775354e+00   9.35457300e-02   1.88408000e-02
C     5.332305675502216e+00   1.727347905091845e+00   2.799957911059660e-02  1.45327570e-01   1.74274378e+00   3.23056500e-01
C     3.523383005192001e+00   1.715587446372413e+00   1.783931659989307e+00  1.65093406e+00   1.04525764e+00   2.91186000e-01
C     5.314087783506322e+00   1.649232240488820e-02   1.820788262600198e+00 -9.62736110e-01  -1.09445759e+00   6.32475370e-01
C     4.398743808741125e+00   8.022066046821813e-01   9.227301234569600e-01  2.10523596e+00   2.38855755e+00  -1.79697070e-01
C     6.211155363957463e+00   2.712945700126574e+00   8.579839090334044e-01  1.20801260e-01  -2.52429940e+00   2.08373230e+00
C     4.459958629891291e+00   2.675977708533228e+00   2.645592684959812e+00 -1.36605961e+00   6.57071080e-01  -6.68291120e-01
C     6.191958002408760e+00   8.831811346945184e-01   2.685139327942789e+00  4.73166620e-01   1.92670752e+00   4.14849040e-01
C     5.334771658393320e-02   3.527537096286902e+00   2.972884508136400e-03 -2.04339981e+00   3.65248100e-01  -7.58855040e-01
C     1.732986376998256e+00   5.351274927769043e+00   7.031186125106616e+00  1.35273894e+00  -1.23856463e+00   3.36464679e+00
C     1.680374239987040e-02   5.324432315524077e+00   1.751082714967347e+00 -7.43134840e-01  -6.81460800e-02   5.09964210e-01
C     1.813273949048596e+00   3.572230237246759e+00   1.724549461274804e+00 -4.29724610e-01   1.01997970e-01   4.62697840e-01
C     9.003904836890860e-01   4.397251821917414e+00   8.607133300668058e-01  3.51075900e-01   2.47528851e+00  -6.57973380e-01
C     2.599890076903688e+00   6.226049641873149e+00   9.114715193744992e-01  1.32300644e+00   5.43323850e-01  -1.16620307e+00
C     8.685786575273834e-01   6.229016413137833e+00   2.654715279129189e+00  2.95912830e-01   1.31393230e-01  -2.06132970e-01
C     2.659366462217907e+00   4.493881870823813e+00   2.634140589613634e+00  1.06505766e+00  -2.67920972e+00  -2.31321600e-02
C     3.598280118201143e+00   3.546457229353425e+00   7.085158600954621e+00 -1.20977450e-01   3.81984320e-01  -3.95218900e-02
C     5.415688539098209e+00   5.386759249393142e+00   7.053460936060196e+00 -1.94009158e+00  -1.86133068e+00   1.82966301e+00
C     3.544980952143704e+00   5.364725911555964e+00   1.763421870372274e+00 -3.32457750e-01  -4.66585240e-01  -2.60042600e-01
C     5.304998243502128e+00   3.583261229636928e+00   1.751909140181148e+00  4.76594040e-01  -6.96354700e-02  -1.63441723e+00
C     4.479994856393381e+00   4.494914937883177e+00   8.063705764845250e-01 -9.64898150e-01  -6.71992250e-01   2.30395440e+00
C     6.203254849804917e+00   6.255539430701803e+00   9.642530500967493e-01  1.39800582e+00  -4.10779800e-01  -2.40296685e+00
C     4.379379114923949e+00   6.211708612489978e+00   2.724506198917706e+00  2.17723844e+00  -1.99522460e-01  -1.43369558e+00
C     6.189181523617615e+00   4.437806510312133e+00   2.596330818613628e+00  6.59763710e-01   3.86075360e-01   2.05531027e+00
C     7.077392862494950e+00   7.094647634310059e+00   3.542815229024069e+00  8.39270100e-01   6.13489050e-01   5.38137590e-01
C     1.808759745263765e+00   1.823900187854782e+00   3.545580050002117e+00 -5.33781030e-01  -1.09275641e+00   1.36319540e+00
C     7.059715068449724e+00   1.802919109818042e+00   5.335019244753175e+00  2.52243266e+00  -7.70571070e-01  -3.43182260e-01
C     1.767523430224014e+00   7.086180152369342e+00   5.399972882948782e+00 -4.32457360e-01   1.14312407e+00  -2.03823090e+00
C     8.669894274822301e-01   9.117117840590552e-01   4.434935773837046e+00  5.02893130e-01  -3.56020400e-01   5.81096290e-01
C     2.754941763375950e+00   2.641296567580962e+00   4.483597831482554e+00 -3.03091538e+00   6.29080100e-01  -7.86263950e-01
C     8.910780235515289e-01   2.665495415285097e+00   6.195305642957424e+00  3.60195200e-01  -2.84250620e-01   2.72010420e-01
C     2.701188937786903e+00   8.722124120865012e-01   6.265717199124893e+00 -1.07444515e+00  -8.99906830e-01  -5.09762700e-02
C     3.499669520584359e+00   7.062194557343807e+00   3.602303058898705e+00  1.05689359e+00   3.47633030e-01   4.60753500e-02
C     5.321012311233143e+00   1.898477777267154e+00   3.550078117667601e+00  6.04868800e-02  -5.26801791e+00   6.14816310e-01
C     3.586135520323324e+00   1.722198350493239e+00   5.423712881972795e+00 -2.32023020e-01   1.17573250e+00  -2.82712627e+00
C     5.343598755434384e+00   7.100220637644139e+00   5.365809021910573e+00 -3.31847890e-01  -4.38511500e-02  -2.28273301e+00
C     4.380825394590213e+00   8.524984814660027e-01   4.431552804427962e+00  2.55830670e+00   1.23247250e+00   1.98380122e+00
C     6.245565034249871e+00   2.670017153997905e+00   4.466551620787115e+00 -1.47009090e+00   1.34860041e+00  -1.93297500e+00
C     4.506722312191902e+00   2.620116951300446e+00   6.252301544198392e+00 -1.44816017e+00   5.73925110e-01  -8.44460050e-01
C     6.222482564318208e+00   9.501964287026042e-01   6.214412585370400e+00 -3.63531530e-01  -3.09193457e+00   1.52797877e+00
C     7.071578386044468e+00   3.566930837099323e+00   3.518240203594883e+00  1.39057684e+00   1.23030820e-01  -2.27089800e-01
C     1.777224507826207e+00   5.298943218030186e+00   3.521329524065535e+00 -5.84457600e-01   1.93218195e+00  -1.70880950e-01
C     2.134630879095520e-02   5.292258244145660e+00   5.235399961966613e+00 -6.26003970e-01   1.00289181e+00   2.86022974e+00
C     1.756177819048684e+00   3.553846932256499e+00   5.312822128858832e+00  1.79984288e+00  -4.81011640e-01  -4.02458870e-01
C     8.967201918377014e-01   4.430406713448940e+00   4.351899659096457e+00 -2.28493230e-01  -3.37706170e-01   1.95186220e+00
C     2.618091477359103e+00   6.178919875807608e+00   4.450915010297223e+00  1.30014830e-01   7.38488900e-02   1.01425306e+00
C     8.333245066277196e-01   6.239248845330870e+00   6.251947189330786e+00  9.60587430e-01  -5.77808180e-01  -1.39864283e+00
C     2.691402701281723e+00   4.443874686365922e+00   6.208906259040495e+00 -2.29387060e+00  -8.34090480e-01  -1.19245870e-01
C     3.567644025140788e+00   3.541886584692992e+00   3.536364406580645e+00  1.39934300e-02   7.05481210e-01   8.23359910e-01
C     5.353401270227363e+00   5.300859080094729e+00   3.540113744091563e+00 -2.09418743e+00   8.84967380e-01   4.94739710e-01
C     3.504572412918052e+00   5.272460576306698e+00   5.316795737103411e+00  2.20012456e+00   2.09961427e+00   4.99292020e-01
C     5.362225879320510e+00   3.540352089502012e+00   5.321506986363269e+00 -9.66996050e-01  -1.87309960e-01   1.70560889e+00
C     4.427095965613675e+00   4.432068946994400e+00   4.490540130265924e+00  1.33804075e+00  -7.53223100e-01  -2.49637513e+00
C     6.244297104907141e+00   6.183798101914810e+00   4.402321477845772e+00 -1.14270050e+00   6.48740300e-01   1.25283911e+00
C     4.452732847213836e+00   6.199444877449049e+00   6.230031566972194e+00  3.11909080e-01   3.18894570e-01  -1.06172768e+00
C     6.238307619091755e+00   4.394110894298541e+00   6.225280012956081e+00  1.38255271e+00   2.02125626e+00  -1.54701971e+00
