64
Lattice="7.10842262195238 0 0 0 7.10842262195238 0 0 0 7.10842262195238 " PBC="1 1 1" Properties=species:S:1:pos:R:3:force:R:3 Energy="-505.99217461"
C     7.055345592149436e+00   7.050948108664026e+00   7.234717964689540e-02  2.32032638e+00   2.11488911e+00  -2.70494016e+00
C     1.771412163902511e+00   1.711286637434634e+00   1.137582197146460e-02  8.34330910e-01   1.58548910e+00  -3.78770710e-01
C     8.072758341051819e-02   1.727164365619797e+00   1.814598816856511e+00 -3.40962763e+00   1.73645519e+00  -6.18372900e-02
C     1.759758615859283e+00   7.067874826775222e+00   1.775183466439326e+00  7.64167820e-01   1.34117648e+00   3.28913640e-01
C     8.802120176503705e-01   8.500777081427617e-01   9.180527813729998e-01  7.69066930e-01  -3.86340060e-01  -5.30024410e-01
C     2.685486147882418e+00   2.671132039001626e+00   9.167275581439533e-01  1.92810160e-01  -1.02214143e+00  -7.18050870e-01
C     9.013993110273164e-01   2.652809866445898e+00   2.694389944803552e+00  2.24181210e-01  -2.39990810e-01  -7.65069470e-01
C     2.714537560288096e+00   9.751394571708270e-01   2.679057716970247e+00 -3.40817291e+00  -3.98923473e+00   5.98243820e-01
C     3.633858981846088e+00   1.955619472256060e-02   7.065275134454636e+00 -4.45482792e+00  -7.82900300e-01   1.70565907e+00
C     5.383366541445069e+00   1.842567545412937e+00   2.749097147213560e-02 -4.02591820e-01  -2.70319229e+00  -1.24497698e+00
C     3.568453034719170e+00   1.834111010443054e+00   1.848642190131310e+00 -1.02658907e+00  -2.59062344e+00  -2.68500124e+00
C     5.313013203258857e+00   7.091888571154333e+00   1.790757025220579e+00  2.17299600e-02   1.27849523e+00   6.29243990e-01
C     4.383050117617595e+00   8.766386846835228e-01   9.564006599653403e-01  3.15412228e+00   1.14799308e+00  -2.11694849e+00
C     6.263171033226635e+00   2.737920432159682e+00   8.546484949716480e-01 -7.27814700e-01  -2.10614165e+00   2.98927978e+00
C     4.445698352189083e+00   2.639853913210233e+00   2.654212713649954e+00  2.35301403e+00   2.69495173e+00   1.13417171e+00
C     6.211579097029841e+00   8.604424280807575e-01   2.695834163027257e+00 -4.45977400e-01   2.59347347e+00  -1.24223915e+00
C     9.864528671916881e-02   3.572850447120354e+00   1.071898239610874e-01 -3.95960686e+00  -1.41369667e+00  -5.45495901e+00
C     1.616918701858598e+00   5.302789798762547e+00   7.049958687319547e+00  7.18718034e+00  -4.99420870e-01   2.44578896e+00
C     7.081698505160110e+00   5.429984643250421e+00   1.739780323001547e+00  1.55127332e+00  -5.53670649e+00   1.43494499e+00
C     1.779741031602139e+00   3.523172666966675e+00   1.711016446290848e+00  5.93589420e-01   1.35049843e+00   3.96376663e+00
C     9.115316566298644e-01   4.429727716920277e+00   8.997173871511982e-01 -1.27741228e+00   1.12709600e+00  -1.70278580e-01
C     2.571182783237044e+00   6.090082861703743e+00   9.770105361728634e-01  1.14324262e+00   3.84562275e+00  -4.26345871e+00
C     8.393039695672112e-01   6.198913522858204e+00   2.591890258087140e+00  1.80454665e+00   3.08055873e+00   3.99316061e+00
C     2.698644335741622e+00   4.407430585519671e+00   2.646626533945664e+00 -7.48437430e-01   5.51277110e-01   2.98072000e-02
C     3.649218506022252e+00   3.544268972534085e+00   1.225760047220774e-01 -5.23529761e+00  -2.70169964e+00  -8.15616984e+00
C     5.289111345451786e+00   5.345877715726355e+00   7.618231581883779e-02  1.91484621e+00  -1.15849831e+00  -4.59117648e+00
C     3.526429248621575e+00   5.313499916955648e+00   1.759775818242023e+00  4.43225830e-01  -4.79377900e-01   7.48685460e-01
C     5.297985215913689e+00   3.595804752192179e+00   1.775484792474188e+00  2.48110060e+00  -2.97862890e-01  -8.56783260e-01
C     4.415532268032363e+00   4.437479807208518e+00   7.819542821324441e-01  2.79442605e+00   2.16671878e+00   7.86677610e+00
C     6.237051276477897e+00   6.183661264779375e+00   8.976417988303844e-01 -3.80217286e+00   2.11064702e+00  -9.82174800e-02
C     4.423810737015615e+00   6.277754033315791e+00   2.681639567150058e+00 -5.67506370e-01  -2.66588644e+00  -6.22377430e-01
C     6.240062688636634e+00   4.539853035086519e+00   2.609109558873376e+00 -2.09501932e+00  -2.76725313e+00   2.13249489e+00
C     7.039060409179695e+00   1.889397407128140e-02   3.527808566946760e+00  2.97419352e+00  -7.16071150e-01   1.24528357e+00
C     1.792354856457103e+00   1.739891711984002e+00   3.611303814704375e+00 -2.01026720e-01   1.29558905e+00  -2.49318950e+00
C     4.052625470423920e-02   1.697916902918259e+00   5.306006431082323e+00 -1.61008622e+00   2.66748683e+00   2.53510751e+00
C     1.730330030549388e+00   7.086021136955331e+00   5.296844242998953e+00  2.49456559e+00  -1.02676200e-02   3.04672921e+00
C     9.364593309052280e-01   8.835294474028984e-01   4.516983320243872e+00 -1.87891265e+00  -5.96182760e-01  -4.58176000e+00
C     2.668519693688777e+00   2.647938464424411e+00   4.335466905273124e+00  1.32005843e+00   9.61381050e-01   4.75231595e+00
C     8.957636114057279e-01   2.621668862126844e+00   6.224241330242847e+00  6.01766600e-01   8.69051470e-01   4.44054630e-01
C     2.638305059005561e+00   9.011119175007897e-01   6.202643241122692e+00  2.34710299e+00  -1.37264829e+00  -1.60045510e-01
C     3.497320044739997e+00   2.424682955682000e-02   3.569990799784555e+00  1.86187100e+00   1.70794490e-01  -1.83433653e+00
C     5.308765849659181e+00   1.839742445011071e+00   3.640716974737185e+00  6.56647500e-01  -3.28782782e+00  -5.13361661e+00
C     3.632235418119680e+00   1.805830293217837e+00   5.283950346292761e+00 -4.41344490e+00  -1.35982284e+00   4.82496530e-01
C     5.290665104468066e+00   7.099634690367572e+00   5.366638788083006e+00  1.58209972e+00   2.42989600e-01  -1.46406827e+00
C     4.393151328329068e+00   8.846096433042336e-01   4.364647264465130e+00  2.12943629e+00   7.03880570e-01   4.90675596e+00
C     6.220572317907535e+00   2.672224105968737e+00   4.410183819768848e+00  1.27306781e+00   3.10414420e-01   1.75988557e+00
C     4.466250508004932e+00   2.622746072490679e+00   6.181511109105277e+00  1.61585386e+00   2.10433484e+00   1.64956104e+00
C     6.280350313593519e+00   8.157389088238755e-01   6.242018002446717e+00 -3.15266878e+00   2.42745172e+00   1.52602100e-01
C     1.871455748435260e-02   3.576989610527754e+00   3.550635631253687e+00 -1.22346350e-01   7.49874430e-01  -1.42564126e+00
C     1.790180105640740e+00   5.414098242789662e+00   3.568603164604904e+00 -1.09925082e+00  -3.96401639e+00  -2.86934486e+00
C     1.151415187564980e-02   5.396772244579901e+00   5.366011043281434e+00 -1.60084462e+00  -1.30512769e+00  -2.54788416e+00
C     1.790465011219349e+00   3.507773406708064e+00   5.324906731649737e+00  1.02811467e+00   1.19093617e+00  -8.49508460e-01
C     9.159257991566435e-01   4.506514675167172e+00   4.392701578429899e+00 -7.32495360e-01  -1.44716665e+00   2.90139280e+00
C     2.655795475030524e+00   6.222539929288750e+00   4.419347856042100e+00 -6.90446340e-01   1.47436701e+00   1.27280444e+00
C     8.563072453900249e-01   6.230073577749879e+00   6.236449193081984e+00 -2.63784460e-01   7.38078200e-02  -2.74648190e-01
C     2.728699102000113e+00   4.408965578300234e+00   6.211299309515518e+00 -3.16155242e+00  -4.16716100e-02   7.16069700e-02
C     3.601815563275426e+00   3.502713418234470e+00   3.515731214746928e+00 -2.95416187e+00   2.34026031e+00  -2.66945380e-01
C     5.289460297918202e+00   5.323599492729919e+00   3.567221073994897e+00  1.54947757e+00   2.66936470e+00  -1.41143275e+00
C     3.528455646657858e+00   5.341297048190027e+00   5.297452439638320e+00  5.68579360e-01  -1.11857478e+00   1.11078840e+00
C     5.363750209467143e+00   3.545537825971754e+00   5.282627255590501e+00 -1.06269338e+00   1.43824934e+00   1.78151995e+00
C     4.378492907875913e+00   4.480295969175565e+00   4.367297497670544e+00  2.48052903e+00  -2.26666857e+00   2.12319909e+00
C     6.225595129330826e+00   6.309945164908497e+00   4.442247070838621e+00 -1.70269834e+00  -3.43990405e+00   1.01735587e+00
C     4.441006153501847e+00   6.167584216423947e+00   6.236292949952795e+00  5.59779200e-02   2.42675043e+00  -7.49406780e-01
C     6.206356823267832e+00   4.478937194191751e+00   6.190351214559735e+00  1.09659021e+00  -6.04511870e-01   1.45243595e+00
