64
Lattice="7.10842262195238 0 0 0 7.10842262195238 0 0 0 7.10842262195238 " PBC="1 1 1" Properties=species:S:1:pos:R:3:force:R:3 Energy="-509.26291132"
C     7.043803148751759e+00   5.552936257023740e-02   7.082325539119420e+00  2.84967991e+00  -1.65643344e+00   1.21260393e+00
C     1.784467421802177e+00   1.722333126186114e+00   7.086182924654163e+00 -1.41746222e+00   2.04632302e+00  -1.77611040e-01
C     3.125758245002120e-02   1.798319391709092e+00   1.778346998842131e+00 -3.66398280e-01  -1.09714835e+00  -2.75735000e-01
C     1.877588540050665e+00   7.074018281024557e+00   1.684179947289336e+00 -3.49594458e+00   1.29104394e+00   2.79080503e+00
C     8.836863302901218e-01   8.666198605902162e-01   8.696725726843751e-01  9.28808430e-01   6.93038540e-01  -7.54397100e-02
C     2.632130398780925e+00   2.650012844313380e+00   8.359681290000975e-01  1.44401409e+00  -1.04674214e+00   1.50903696e+00
C     9.135923883474024e-01   2.676708027873206e+00   2.710058898616365e+00 -1.33102890e-01  -1.60974700e+00  -1.19641952e+00
C     2.685521547827066e+00   8.688580896205755e-01   2.620803909262443e+00 -5.91185030e-01  -3.02443130e-01   9.36435550e-01
C     3.653760219402623e+00   5.649518395161680e-02   7.042545668790281e+00 -2.44448704e+00  -1.59767474e+00   9.52349680e-01
C     5.310629109396335e+00   1.759860266302749e+00   1.302767721990020e-01  1.33693278e+00   1.78751426e+00  -5.22060035e+00
C     3.524492558878756e+00   1.740265757182267e+00   1.750531385708940e+00  1.49089202e+00   7.25623500e-01  -9.25275230e-01
C     5.373920798383386e+00   7.007854220625216e+00   1.810488229308044e+00 -1.26480970e+00   1.68737562e+00  -1.21422627e+00
C     4.502421290001445e+00   8.393731345193037e-01   8.687991607970558e-01 -1.64388425e+00  -1.54731030e-01   2.56332163e+00
C     6.191365657551836e+00   2.674241902813650e+00   8.918728162846710e-01  9.41460750e-01   1.43790400e-01   2.06187088e+00
C     4.375368685050197e+00   2.641640330898865e+00   2.627699221372295e+00  1.03630300e+00   1.51213762e+00   3.21215850e-01
C     6.282072684394346e+00   8.144918071594226e-01   2.581904914664374e+00 -1.24383975e+00   1.79706994e+00   1.52941874e+00
C     7.103108292165062e+00   3.513537839863301e+00   1.637958282213500e-02 -5.61217260e-01   2.86578450e-01  -5.71803570e-01
C     1.745851697845515e+00   5.319182674334981e+00   4.801639961893320e-02  2.25167850e-01   9.15199630e-01  -4.00086880e-01
C     3.487143342580300e-02   5.360726712989952e+00   1.827830647974058e+00  7.16350490e-01  -4.17130699e+00  -1.20672588e+00
C     1.813538666706964e+00   3.450162129320881e+00   1.782691666747474e+00 -1.76398765e+00   3.64443931e+00   9.05031850e-01
C     9.125055816130306e-01   4.329545162725307e+00   9.067026918914198e-01 -1.01534356e+00   2.96724940e+00   7.24879770e-01
C     2.713218663555181e+00   6.245784258003472e+00   8.510802089848604e-01  2.89002020e-01  -1.08213145e+00  -7.22500550e-01
C     9.942786007382721e-01   6.149893627218005e+00   2.649847431319013e+00 -5.31795830e-01   2.74246192e+00  -3.85520450e-01
C     2.619875122762914e+00   4.495017085916227e+00   2.743041055478225e+00  2.95758592e+00  -2.60181880e+00  -3.41471720e+00
C     3.478605202918739e+00   3.601947353430801e+00   7.107144099107567e+00  2.62958539e+00  -1.01674401e+00   8.09408740e-01
C     5.330001053804585e+00   5.337344907381760e+00   3.058832446034820e-02  6.11265320e-01  -1.36198259e+00  -3.86271800e-01
C     3.533827410547567e+00   5.380776445495020e+00   1.789420002009983e+00 -4.21975900e-02  -1.58976712e+00  -1.24590000e-03
C     5.320528654158078e+00   3.609953214406576e+00   1.821142688552031e+00 -3.36292900e-01  -2.43867258e+00  -1.71235819e+00
C     4.436904806902787e+00   4.464321495358543e+00   9.368153917942639e-01 -1.08818517e+00   3.79818400e-01  -9.53034040e-01
C     6.268564335636881e+00   6.152302245138567e+00   9.455783708632950e-01 -1.52401228e+00   2.22986434e+00  -2.49612313e+00
C     4.386435219553465e+00   6.188167151709740e+00   2.700004390241506e+00  2.01187653e+00   3.37776130e-01  -3.56310600e-01
C     6.216139434477476e+00   4.442205344397842e+00   2.693601905071898e+00 -7.06447100e-02   6.81095550e-01  -6.86243650e-01
C     4.007749998423860e-02   7.023847389593728e+00   3.445862457730722e+00  6.40399600e-02   2.49372220e+00   2.76868710e+00
C     1.801122740337742e+00   1.721744548793178e+00   3.546462205249259e+00 -2.06047790e+00   1.18290398e+00   1.48209718e+00
C     7.020997338628465e+00   1.838575526353771e+00   5.285124515541132e+00  2.33421006e+00  -1.09634855e+00  -6.86878300e-02
C     1.769692991891864e+00   7.103960947458330e+00   5.326614601268417e+00 -4.34962780e-01   1.74347294e+00   1.41131544e+00
C     8.074449434793117e-01   8.705605568380655e-01   4.472169122846797e+00  2.36999381e+00  -2.93526250e-01  -2.49956622e+00
C     2.619580194308410e+00   2.657542156636710e+00   4.481352778366480e+00  8.53467500e-01   6.55622910e-01  -2.49010340e-01
C     8.522066807174518e-01   2.636475493191626e+00   6.212698673592492e+00  2.46327400e-01   1.19071498e+00  -1.81516020e-01
C     2.693318634430491e+00   9.675459557912381e-01   6.202387835497955e+00  2.15939600e-01  -3.27985910e+00   3.35091600e-02
C     3.564591668467760e+00   1.662987038258520e-02   3.561934042502821e+00 -6.00233820e-01   1.50788660e-01  -1.98104450e-01
C     5.328715282321080e+00   1.784494291639680e+00   3.433252187087068e+00  2.42170840e-01  -2.48068590e-01   2.39383521e+00
C     3.576087267360371e+00   1.821572037278279e+00   5.376958938211175e+00 -2.75906470e-01  -1.53563290e-01  -2.64017785e+00
C     5.337488497518684e+00   7.074005130442711e+00   5.235127922632945e+00  6.68649340e-01   2.55317644e+00   1.51739270e+00
C     4.441537081587335e+00   9.190699255656958e-01   4.389900717749168e+00  8.21459240e-01  -2.27151510e-01   1.05244714e+00
C     6.199103175573706e+00   2.759239871113133e+00   4.338906528810490e+00  4.53578440e-01  -2.94301250e+00   2.36153060e+00
C     4.452676761759363e+00   2.683498277496736e+00   6.236719526394222e+00 -6.52094530e-01  -5.22419080e-01   1.46767335e+00
C     6.236576007341523e+00   9.665997536562900e-01   6.204119376163961e+00 -3.00984688e+00  -2.03732527e+00   1.59987650e-01
C     4.601367262997440e-02   3.620920159908938e+00   3.556394804176185e+00 -5.03052590e-01  -5.95837110e-01  -6.83483100e-01
C     1.883840255576503e+00   5.374779353667430e+00   3.605237700093145e+00 -3.75557206e+00  -2.37949220e-01  -5.65834530e-01
C     7.068359763366358e+00   5.355692954595825e+00   5.333334761844913e+00  1.65287522e+00   6.58620100e-02  -7.30074080e-01
C     1.744293815944116e+00   3.603042903524994e+00   5.403704520487377e+00 -3.69732250e-01  -1.30498248e+00  -2.64732156e+00
C     9.240094262758815e-01   4.529941263837870e+00   4.396305335445561e+00 -1.03360209e+00  -1.69404664e+00   3.70861148e+00
C     2.680152840559085e+00   6.264512321490803e+00   4.500566062781852e+00  8.87426410e-01   3.86537900e-02  -1.14253385e+00
C     8.939334769179829e-01   6.262384344095279e+00   6.257599806998210e+00 -1.57989538e+00  -1.31668087e+00  -5.88980340e-01
C     2.592494189672936e+00   4.482816686920842e+00   6.279552890744008e+00  1.88461081e+00   1.58168860e-01  -1.38008784e+00
C     3.463005342973792e+00   3.568042878733996e+00   3.577596883072180e+00  1.87847350e+00  -1.42286867e+00   7.25126160e-01
C     5.237595753713931e+00   5.234142766342040e+00   3.534962625639980e+00  2.11724203e+00   2.26377968e+00   1.98648362e+00
C     3.555075054432556e+00   5.394824323529342e+00   5.392246951655783e+00 -7.88759390e-01  -2.57294630e+00  -5.93756060e-01
C     5.360055606810397e+00   3.511505684004695e+00   5.361630620010311e+00 -2.23072395e+00   1.41450359e+00  -1.42617840e+00
C     4.381264766192356e+00   4.382935672013413e+00   4.511710434512809e+00  7.61773420e-01   1.63548573e+00  -1.03594131e+00
C     6.250773517671997e+00   6.234421373361176e+00   4.359358455867397e+00 -2.15841461e+00  -2.17355148e+00   1.38370036e+00
C     4.479599130506125e+00   6.224816970306615e+00   6.210907848681835e+00  6.48195650e-01   6.55523430e-01  -3.66987820e-01
C     6.193507851792599e+00   4.400315552066634e+00   6.217280833897569e+00  1.42309353e+00   1.75372689e+00   6.52029270e-01
