64
Lattice="7.10842262195238 0 0 0 7.10842262195238 0 0 0 7.10842262195238 " PBC="1 1 1" Properties=species:S:1:pos:R:3:force:R:3 Energy="-506.20857029"
C     7.096422678522499e+00   5.542693020028320e-02   5.943380586272480e-02  1.54646003e+00  -1.18016470e+00  -8.94319080e-01
C     1.774125804237696e+00   1.718489317738575e+00   7.097402219159535e+00 -3.46300000e-05   1.44706197e+00   1.29912276e+00
C     7.082828246767106e+00   1.846964033719181e+00   1.782707802866822e+00  3.53253410e-01  -1.04101387e+00   1.30378561e+00
C     1.746669948373303e+00   2.172995035975660e-02   1.920443087499859e+00  6.13965500e-01   7.92717050e-01  -3.75140372e+00
C     9.204349559614144e-01   9.273644595840689e-01   9.800079447390386e-01 -1.85099511e+00  -2.76609900e-02  -1.12445481e+00
C     2.715457461259351e+00   2.671797600611537e+00   8.467482651560062e-01  5.90382600e-02  -6.90822910e-01   1.18117050e-01
C     9.056621609883042e-01   2.781404856937234e+00   2.627674839482709e+00 -1.26297790e-01  -3.11009948e+00  -6.53451930e-01
C     2.695532197234360e+00   9.291796663843122e-01   2.764113974335215e+00 -1.58457183e+00  -1.45475978e+00  -1.23292330e+00
C     3.537429816962930e+00   7.084586372933710e+00   7.070943532820277e+00 -1.06522983e+00  -1.57542516e+00   1.87889429e+00
C     5.328090523057008e+00   1.729720767646628e+00   7.078495663180217e+00  1.02994570e-01  -4.74045430e-01   2.03159240e+00
C     3.610675430144767e+00   1.730758241928017e+00   1.832884594288426e+00 -1.57577602e+00   7.99422790e-01  -1.90423021e+00
C     5.293944433075350e+00   4.148048935674800e-03   1.837216751369958e+00  2.43463090e+00   1.63652121e+00  -1.67762928e+00
C     4.439904134743069e+00   8.497344424144420e-01   8.720388954903470e-01 -6.19350840e-01  -3.31048200e-01   2.86784350e-01
C     6.093429293820559e+00   2.595788090546591e+00   9.427751644030979e-01  4.54436252e+00   2.54716399e+00  -3.83504981e+00
C     4.466854368506501e+00   2.616367187284170e+00   2.672214438513973e+00 -8.10692410e-01   3.17234533e+00  -1.96490800e-02
C     6.178290140647703e+00   9.975592799458546e-01   2.725171476190712e+00  1.03005468e+00  -2.72627300e+00  -5.61351220e-01
C     4.332412984747120e-02   3.549878797497336e+00   7.066620190182792e+00 -7.91238330e-01  -5.61022010e-01   7.87992730e-01
C     1.613774148944188e+00   5.363732154073688e+00   7.080485239587328e+00  5.77252984e+00   1.06458071e+00  -3.67823800e-01
C     7.090045570421645e+00   5.352592260648981e+00   1.766460578873871e+00  5.13686300e-01  -2.09903108e+00   5.35206290e-01
C     1.822369175790886e+00   3.605043853408298e+00   1.639386222149406e+00  4.16780840e-01  -1.94726895e+00   4.06238856e+00
C     9.375292906779903e-01   4.438068526769906e+00   8.305912470461033e-01 -3.71965624e+00   4.79899660e-01   8.72621510e-01
C     2.552590561705982e+00   6.271743719822128e+00   9.138122518590390e-01  2.88498862e+00  -2.13814333e+00   5.34898700e-02
C     8.335340629265572e-01   6.188377347766614e+00   2.628344381809286e+00  1.51739862e+00   1.42781565e+00   3.19194197e+00
C     2.732404367290788e+00   4.326065803105496e+00   2.656810060191076e+00 -8.41011530e-01   4.87760267e+00  -1.67997650e+00
C     3.607260188496988e+00   3.586669291777860e+00   7.015993222356664e+00 -2.47249070e-01  -1.75585867e+00   2.49660398e+00
C     5.400552716981895e+00   5.357187429367454e+00   3.166084326525380e-02  1.88665955e+00   2.07979920e+00  -4.61467518e+00
C     3.572667760659021e+00   5.330054509142688e+00   1.759938032446212e+00  5.78860200e-02   1.76029110e-01  -5.91871130e-01
C     5.310008401933157e+00   3.616603712441395e+00   1.638336805718015e+00  2.62795300e-02  -3.00465897e+00   4.62423638e+00
C     4.569793640077734e+00   4.508873463045167e+00   7.449713628515964e-01 -5.70741708e+00  -2.39290495e+00   3.78474804e+00
C     6.289438147576284e+00   6.267550532402817e+00   9.301388058484288e-01 -3.26500550e+00  -4.57030360e-01  -3.74224300e-01
C     4.490977582593960e+00   6.233525498858377e+00   2.654551501072024e+00 -3.84302933e+00  -1.95344393e+00   2.45075976e+00
C     6.137525114027658e+00   4.371378585265139e+00   2.662490471790945e+00  2.19922672e+00   2.44261717e+00  -8.36481440e-01
C     7.055601566447982e+00   7.314417599104980e-02   3.585015090749961e+00  1.76962628e+00  -1.44455759e+00  -1.84153679e+00
C     1.819520333257468e+00   1.868348727992284e+00   3.574933072779562e+00 -5.98792420e-01  -4.56400830e-01  -1.08848148e+00
C     1.680857612725200e-03   1.859406616673229e+00   5.298737358111111e+00  7.22962870e-01  -3.77952120e+00   1.61253746e+00
C     1.700898033196635e+00   4.272787535810560e-02   5.267658197068852e+00 -2.35029650e-01  -2.38042423e+00   2.04555025e+00
C     8.899811939412628e-01   9.789018030951405e-01   4.387048747509796e+00 -6.22754890e-01  -6.39096960e-01   1.04320669e+00
C     2.726328656309021e+00   2.681264242435722e+00   4.486387816276678e+00 -4.99397910e-01  -7.12916460e-01   1.79335470e-01
C     8.856097983668676e-01   2.641092911272899e+00   6.188297449096365e+00  1.06623355e+00   4.49014960e-01   1.70189389e+00
C     2.540515270948709e+00   7.469598019110890e-01   6.277865280129793e+00  4.25280384e+00   3.82835955e+00  -2.71731622e+00
C     3.435783069876693e+00   7.072348441466893e+00   3.655781143953489e+00  4.27841018e+00   1.22384207e+00  -2.40015833e+00
C     5.330944981244295e+00   1.846287880559567e+00   3.624293035357901e+00 -8.11213540e-01  -1.92317886e+00  -1.16369841e+00
C     3.607870517663141e+00   1.698183824187640e+00   5.386769130100585e+00 -2.91693533e+00   1.42831118e+00  -8.99429810e-01
C     5.354832977627258e+00   7.101045712257642e+00   5.263893931870430e+00  7.00573880e-01  -1.34569636e+00   2.91499168e+00
C     4.437580462472817e+00   8.792276432859529e-01   4.481389884332557e+00 -1.94916040e-01  -1.00005011e+00  -6.93485780e-01
C     6.196308143799522e+00   2.672234484265762e+00   4.521367155557853e+00  1.44615840e-01   7.97653850e-01  -2.40331210e+00
C     4.463601696484042e+00   2.578089610991541e+00   6.221277828852569e+00 -2.58991860e-01   2.32823913e+00   4.69209810e-01
C     6.289579463017970e+00   8.579679861667356e-01   6.238090101359584e+00 -2.80986047e+00   2.09092406e+00  -1.20809898e+00
C     7.077966725453062e+00   3.510790008015313e+00   3.528819740064455e+00 -5.10787250e-01   1.35575276e+00   1.15437150e-01
C     1.787651639714806e+00   5.294858434055830e+00   3.524648020081456e+00 -1.82612703e+00  -2.00789183e+00  -4.26396530e-01
C     1.101215507022540e-02   5.320472924124738e+00   5.260189732843149e+00  7.03270260e-01  -1.12387790e-01   8.12639840e-01
C     1.791053375359607e+00   3.537856322320130e+00   5.371612551390220e+00  1.44911740e-01  -4.36583760e-01  -2.21683977e+00
C     8.559165664828298e-01   4.341176461405734e+00   4.374019364268468e+00  2.02326120e+00   3.58136818e+00   1.81397825e+00
C     2.556432521963640e+00   6.155004156576428e+00   4.457419288078749e+00  2.24465804e+00   1.72361030e+00   4.12004600e-02
C     7.945946214037806e-01   6.257939234178315e+00   6.180161646155097e+00  1.36146445e+00  -6.70554560e-01   2.56150540e-01
C     2.668460054022994e+00   4.412354305531640e+00   6.216394484681082e+00 -8.58475710e-01   2.26954721e+00  -5.43289500e-01
C     3.594044280246110e+00   3.543811047948904e+00   3.554877653536398e+00  6.69185320e-01  -8.23364460e-01   1.11533765e+00
C     5.317734901899965e+00   5.286045340607327e+00   3.599460258524515e+00  2.06377649e+00   2.26016096e+00  -2.31333892e+00
C     3.546307241636144e+00   5.339945950302645e+00   5.337630950307989e+00 -9.96389730e-01  -1.59082030e+00  -4.55498270e-01
C     5.356122587658978e+00   3.522364936904364e+00   5.436859554187355e+00  2.60242430e-01   1.72792192e+00  -3.24974288e+00
C     4.513116693759723e+00   4.499033273612301e+00   4.500746332379494e+00 -3.18425370e+00  -3.32188096e+00  -5.00560670e-01
C     6.294405086797783e+00   6.201626310182674e+00   4.445116314544958e+00 -3.33580353e+00   1.20809840e+00  -1.71509233e+00
C     4.455333819050493e+00   6.152877174360071e+00   6.152897149027634e+00  3.64961860e-01   3.39452112e+00   2.62751125e+00
C     6.331610855127769e+00   4.459349153735853e+00   6.155847428751839e+00 -2.99770838e+00  -1.09114977e+00   3.39235939e+00
