64
Lattice="7.10842262195238 0 0 0 7.10842262195238 0 0 0 7.10842262195238 " PBC="1 1 1" Properties=species:S:1:pos:R:3:force:R:3 Energy="-508.45996035"
C     7.041178079362419e+00   4.518312453105360e-02   7.097106793115448e+00  6.91148460e-01  -1.56766909e+00  -1.14146627e+00
C     1.801885189747963e+00   1.798195634071278e+00   2.586897159870400e-02 -4.19892100e-01  -2.15154320e+00  -1.76020577e+00
C     4.512974027717740e-02   1.825927581070232e+00   1.831900717513592e+00  3.48526790e-01  -1.74791015e+00  -3.33101327e+00
C     1.747519262707941e+00   9.413314437689760e-02   1.801443898871713e+00  2.04535580e-01  -2.58726623e+00  -8.03756580e-01
C     8.684723155249882e-01   8.383409915548797e-01   7.814030239582632e-01  1.37290194e+00   4.10431828e+00   5.15481838e+00
C     2.733705492967152e+00   2.654074739166900e+00   8.538229938527874e-01 -1.58842595e+00   2.08661873e+00   2.19843898e+00
C     9.575569870729355e-01   2.707161079051096e+00   2.656841195082152e+00  1.70677190e-01  -1.30891527e+00   2.95611650e-01
C     2.672805717107505e+00   9.220183571000194e-01   2.751074710386444e+00 -1.40884628e+00   4.86266450e-01  -2.16251392e+00
C     3.543338906518484e+00   7.091505000669757e+00   5.335006236339780e-02 -2.83824970e-01   1.52086118e+00  -8.08323490e-01
C     5.303188439103076e+00   1.782909468816551e+00   7.091328072030745e+00  1.43990218e+00  -3.60864080e-01   1.77204569e+00
C     3.569494205380321e+00   1.820181203308450e+00   1.777477923092609e+00 -1.08918720e-01  -2.74481140e-01   1.82910768e+00
C     5.325448038032249e+00   9.503570079695900e-02   1.807807714222268e+00  5.77044490e-01  -1.78134786e+00   9.78746140e-01
C     4.423613975877494e+00   9.570402758326878e-01   9.702636479273165e-01  1.09095149e+00  -2.37619300e+00  -2.72395951e+00
C     6.278005529308087e+00   2.669086590392721e+00   8.552486590934546e-01 -1.13252843e+00  -7.22753290e-01   1.18392578e+00
C     4.493952457460430e+00   2.695929131553460e+00   2.649199996186783e+00 -3.40777500e-01   8.74600670e-01  -1.37262253e+00
C     6.314528960150777e+00   9.183910001212596e-01   2.704263543822732e+00 -2.97871847e+00  -3.19135600e-02  -1.77298393e+00
C     5.770532181844559e-02   3.478854495300023e+00   7.086105300679153e+00 -5.41192510e-01   1.31014663e+00  -1.26595710e+00
C     1.741509020298505e+00   5.366350612629991e+00   7.093607743164980e+00 -1.30465780e-01  -1.65254703e+00   6.40728020e-01
C     3.889124641741300e-02   5.359844202321678e+00   1.679835279383991e+00 -8.60668400e-02  -9.21953410e-01   1.78354895e+00
C     1.800367186097462e+00   3.618330277211566e+00   1.759916991515257e+00  1.66246834e+00  -1.80058479e+00   3.67810880e-01
C     9.441169502568492e-01   4.389767363740816e+00   8.423077757137445e-01 -1.62830094e+00   2.44381634e+00  -1.82917280e-01
C     2.575603155843291e+00   6.292956887857411e+00   9.025849248361062e-01  2.69621061e+00  -1.52412860e+00   1.07896830e-01
C     8.947977900243484e-01   6.219986086294063e+00   2.628801026878395e+00  1.22608620e-01   4.32805370e-01   9.59565860e-01
C     2.693321406715314e+00   4.509941645712274e+00   2.661639949024462e+00  2.82647150e-01  -2.62366040e+00  -9.84760380e-01
C     3.618168134091605e+00   3.578429848034792e+00   7.094607684974934e+00 -1.05431971e+00  -1.12411824e+00   8.66421760e-01
C     5.366746765022604e+00   5.341875887043974e+00   6.262157798666379e-02 -4.46800340e-01   9.25658900e-02  -3.53429156e+00
C     3.570980576550164e+00   5.376090786556594e+00   1.758826985990706e+00 -1.02052235e+00   4.17099350e-01   9.34026450e-01
C     5.422526344069065e+00   3.574970676335222e+00   1.749315632188241e+00 -2.79211069e+00  -5.64547700e-02  -1.55496177e+00
C     4.480200431975551e+00   4.492963107200177e+00   8.391780794026109e-01 -2.77210920e-01  -1.28585050e+00   3.20308432e+00
C     6.227016245181017e+00   6.271868756976014e+00   8.646764178459082e-01 -1.09568698e+00  -2.91470540e-01   1.74521230e+00
C     4.368363832147770e+00   6.262965741981369e+00   2.761245299302688e+00  2.11580557e+00   5.92682170e-01  -2.85418374e+00
C     6.281766240295197e+00   4.437979387150252e+00   2.538195010721315e+00 -6.00638150e-01   1.37856595e+00   3.89728178e+00
C     7.093807134419470e+00   7.069570398822770e+00   3.564309677342424e+00 -1.42040010e-01  -6.64132370e-01  -8.23049960e-01
C     1.787773051573155e+00   1.788574668392013e+00   3.607321676352651e+00 -4.72900690e-01  -4.99744360e-01  -1.01401492e+00
C     7.010516609233311e+00   1.722777118262959e+00   5.232865169544548e+00  3.14806074e+00  -9.05321670e-01   4.21863472e+00
C     1.705013099051353e+00   7.009507213221271e+00   5.353949116358687e+00 -4.77508460e-01   2.98358925e+00   6.64399300e-01
C     7.757500508697082e-01   8.187451318340996e-01   4.446587686943072e+00  4.09974730e+00   5.71079870e-01  -1.16549950e-01
C     2.723614376215801e+00   2.638962019424102e+00   4.448213738617397e+00 -2.78289553e+00   8.76622140e-01   3.87032740e-01
C     9.333414345756437e-01   2.544004298023284e+00   6.181266366114470e+00 -2.65880553e+00   2.80490056e+00   2.04234130e-01
C     2.658422179357066e+00   9.441215707315521e-01   6.250133190962387e+00 -1.38505920e-01  -4.12059354e+00  -1.28565180e-01
C     3.478469360962471e+00   4.027248401670520e-02   3.639104784486969e+00  2.22957427e+00  -1.24660131e+00   9.98433500e-02
C     5.407576478288491e+00   1.880369710400740e+00   3.459074456349158e+00 -2.01850597e+00  -3.68810912e+00   3.72762903e+00
C     3.511321718027289e+00   1.756002241009970e+00   5.373516684557440e+00  3.15153853e+00   1.78306260e+00  -5.57595440e-01
C     5.335883131354183e+00   7.087308330123362e+00   5.326222287424020e+00 -1.78398090e+00  -4.15825840e-01   1.10809846e+00
C     4.459549398001058e+00   9.458420933424969e-01   4.497930899432391e+00 -8.52720220e-01  -1.90546475e+00  -1.64008011e+00
C     6.258597758449832e+00   2.625169618098742e+00   4.399718444566554e+00 -1.15357067e+00   3.29168791e+00  -4.55591650e-01
C     4.477146298196868e+00   2.657275804041139e+00   6.264173747321412e+00 -6.89591320e-01   1.22257555e+00  -2.58526844e+00
C     6.168778218171429e+00   8.703310969558921e-01   6.214122774980182e+00 -4.52461060e-01   8.20952210e-01  -6.58799590e-01
C     5.386947480424119e-02   3.489908163558349e+00   3.532497069254233e+00 -1.07150756e+00   2.58844526e+00  -6.41756530e-01
C     1.817220971792577e+00   5.323749409362974e+00   3.526874449130266e+00 -2.33219928e+00   2.74153700e-02   1.48178963e+00
C     7.028086781760070e+00   5.256112981386353e+00   5.265361039214972e+00  1.59696067e+00   2.19611012e+00   2.33332965e+00
C     1.729874238490993e+00   3.508642908962942e+00   5.365242338459307e+00  1.93354137e+00   5.96104200e-02  -1.34718315e+00
C     8.138998888078551e-01   4.387675497132203e+00   4.445890990442085e+00  3.16346278e+00   5.17822760e-01  -7.61457750e-01
C     2.619553750976264e+00   6.142566194097084e+00   4.529557124679486e+00  1.67235300e-01   2.11941465e+00  -1.50161253e+00
C     7.492603007235996e-01   6.208837094088403e+00   6.233649754085775e+00  3.05706850e+00  -1.22939723e+00  -1.38067525e+00
C     2.647890269319048e+00   4.359420014807285e+00   6.266950865870593e+00 -5.39773980e-01   2.93527312e+00  -1.59976381e+00
C     3.565512777870859e+00   3.525305051584223e+00   3.521918456879602e+00  5.85084260e-01   1.29442029e+00   1.19216973e+00
C     5.312130905843262e+00   5.376002073442296e+00   3.540064482722807e+00 -6.25401140e-01  -2.12860578e+00  -6.27346000e-03
C     3.509381829494291e+00   5.269293987282166e+00   5.381117365443874e+00  1.03583573e+00  -4.61160480e-01  -2.95017900e-01
C     5.413080672091609e+00   3.590656050604287e+00   5.304375545680617e+00 -3.65808950e+00  -2.98231087e+00  -3.14892800e-02
C     4.413309677531768e+00   4.404199167680845e+00   4.456475289554813e+00  1.43970075e+00   9.97098180e-01  -8.91797250e-01
C     6.185091692663198e+00   6.168268117764217e+00   4.461605367075441e+00 -1.44189720e-01   1.46002776e+00  -1.99639222e+00
C     4.420827403126228e+00   6.130536894834163e+00   6.283397765454939e+00 -3.47792700e-02   3.01772125e+00  -1.17643580e+00
C     6.203068822384951e+00   4.441227865203365e+00   6.172590607390987e+00  1.59615082e+00  -8.58190820e-01   2.54332696e+00
