64
Lattice="7.10842262195238 0 0 0 7.10842262195238 0 0 0 7.10842262195238 " PBC="1 1 1" Properties=species:S:1:pos:R:3:force:R:3 Energy="-510.91397438"
C     7.108155414393714e+00   2.007489632114200e-03   7.089099439370923e+00  1.41182830e-01  -5.57227380e-01  -4.67433710e-01
C     1.817965223640891e+00   1.743737155368744e+00   5.391240967686600e-03 -2.51199881e+00   5.85861900e-01  -2.28552250e-01
C     7.106476262802417e+00   1.759978905876277e+00   1.793263383952165e+00  6.24005210e-01   1.38327158e+00  -1.25560060e+00
C     1.777371367837535e+00   7.096694860024619e+00   1.767234543928737e+00 -1.70898230e-01  -8.05414920e-01  -5.75884620e-01
C     8.635758918558798e-01   8.162728224468635e-01   8.430341854212824e-01  1.40120425e+00   2.60879266e+00   2.32368544e+00
C     2.623026286510360e+00   2.680328845103156e+00   9.277510866903709e-01  1.20885097e+00  -1.43071170e-01  -1.19045836e+00
C     8.656268850344284e-01   2.665159613400529e+00   2.711101064456683e+00 -3.51430840e-01  -1.16828832e+00   3.75186240e-01
C     2.621253019403574e+00   9.213434834564764e-01   2.625983390320279e+00  9.21081010e-01  -1.10400749e+00   1.41289944e+00
C     3.547547305962202e+00   6.638186246841760e-02   7.043428037290102e+00  2.60574300e-01  -2.14765038e+00   1.78817199e+00
C     5.290346504966236e+00   1.732423461010978e+00   7.068156391395200e+00  1.13138343e+00   3.58086289e+00   1.58353670e+00
C     3.529102584200505e+00   1.805598914061555e+00   1.804200545163749e+00  1.22560733e+00  -3.03470400e-02  -6.61813260e-01
C     5.382360415307434e+00   1.710080338116020e-02   1.765320458969849e+00 -1.33140890e+00   3.19303890e-01   5.74114000e-01
C     4.463297598164358e+00   9.294903755370324e-01   9.110347068045003e-01 -1.45548640e+00  -1.29326659e+00  -1.19940448e+00
C     6.234227384507876e+00   2.700242806736181e+00   8.865191788726442e-01 -1.90810150e-01  -1.73497826e+00  -1.13620337e+00
C     4.506982338291342e+00   2.643220604331518e+00   2.690134700854767e+00 -1.77726955e+00   2.92714640e-01  -1.05292825e+00
C     6.272204772113262e+00   9.003169115149688e-01   2.685047344954086e+00 -8.00948750e-01  -1.07139392e+00  -6.71092840e-01
C     3.387518799561000e-02   3.613041539698061e+00   7.053996200283482e+00 -9.53612420e-01  -2.56149298e+00   2.43068612e+00
C     1.765723364363951e+00   5.279919301993411e+00   9.331368541726399e-03  1.22317920e-01   1.90416280e+00   8.24025810e-01
C     7.026156347429157e+00   5.302465725775302e+00   1.745361856442771e+00  2.51015388e+00   1.91426348e+00   1.82462814e+00
C     1.744036633213724e+00   3.533974768148479e+00   1.839477656268476e+00 -5.30525330e-01   3.92244250e-01  -1.14541997e+00
C     8.254607430201184e-01   4.446347493342742e+00   9.622961724336896e-01  2.21245878e+00  -1.05309400e+00  -2.98740374e+00
C     2.666765903659970e+00   6.228364570783579e+00   8.666674870217702e-01  9.44566180e-01  -6.10601920e-01  -5.18666100e-02
C     9.353234760547783e-01   6.195245150280927e+00   2.682794756910034e+00 -2.25868382e+00   7.86443790e-01  -9.31582320e-01
C     2.631535494891857e+00   4.427095965613675e+00   2.658251719382639e+00  2.98458372e+00   9.44361100e-02   1.34620000e-01
C     3.528756261850458e+00   3.580691819196703e+00   7.092643769973481e+00 -1.34327660e-01  -7.60595940e-01   3.71548710e-01
C     5.284983484436352e+00   5.327470952941448e+00   4.774514221175400e-03  1.45691228e+00  -1.32438550e-01  -7.64463500e-01
C     3.600305449974033e+00   5.300000809147591e+00   1.783874366102990e+00 -1.39797647e+00   1.48590722e+00  -8.20852900e-01
C     5.327889354696862e+00   3.533871553852037e+00   1.757534390421485e+00  1.37128259e+00  -2.23469410e-01   9.24626550e-01
C     4.478419629940789e+00   4.363248682314643e+00   8.520492291564188e-01 -1.87186514e+00   3.10498873e+00   1.66987624e+00
C     6.203145451180795e+00   6.239636538700565e+00   8.349414595210909e-01 -2.51814680e-01  -9.30180420e-01   1.63918073e+00
C     4.473067982887096e+00   6.285576141566839e+00   2.688113847388127e+00 -6.32264530e-01  -1.96550787e+00  -9.05320860e-01
C     6.225504212605517e+00   4.460159371746080e+00   2.689821717006809e+00 -1.88794416e+00  -7.44267240e-01  -6.05975800e-02
C     1.981117384194000e-04   3.296744242703600e-03   3.585417285301800e+00  6.87603810e-01  -1.49788842e+00  -6.92101860e-01
C     1.711692599450462e+00   1.655490353595016e+00   3.576447166797622e+00  1.04983656e+00   5.19147405e+00  -6.11296660e-01
C     4.804440680405600e-03   1.749953257697255e+00   5.352712748412390e+00  5.53866940e-01  -1.51293870e-01   2.77211200e-01
C     1.853878183148977e+00   7.048887945620297e+00   5.322161103412761e+00 -2.94611606e+00   1.71031891e+00   1.68110060e-01
C     8.755368080931966e-01   8.367902180761007e-01   4.483810302234666e+00  2.92397310e-01  -5.98307490e-01  -4.35008200e-01
C     2.596106192458836e+00   2.700779634812443e+00   4.433984595806264e+00  2.76125881e+00  -2.59027192e+00  -1.77185789e+00
C     9.174598678422659e-01   2.601577332096772e+00   6.224008316149364e+00 -4.91873390e-01   3.00081366e+00  -6.11915700e-02
C     2.625269136015422e+00   9.301394456064644e-01   6.138187547931616e+00  2.80714232e+00  -1.39165854e+00   2.37998955e+00
C     3.555608612634413e+00   1.039434784347596e-01   3.538971562744982e+00  1.00702268e+00  -2.32022858e+00  -5.17118160e-01
C     5.397891323552967e+00   1.754574372158291e+00   3.566456563142117e+00 -1.44254966e+00   4.80677380e-01  -7.12855800e-02
C     3.511267480762699e+00   1.811631903423376e+00   5.301336126336757e+00  9.38342950e-01   9.38798160e-01  -7.70965300e-02
C     5.335362865902625e+00   7.105456559577579e+00   5.348519276656174e+00 -2.39860780e-01   2.93684760e-01  -1.18209495e+00
C     4.474830018686141e+00   9.317430346653105e-01   4.439516583541827e+00 -1.40818007e+00  -5.31805840e-01   2.64702920e-01
C     6.215749679665222e+00   2.585906174672946e+00   4.493631938684493e+00  1.42547825e+00   3.28342957e+00  -9.92052040e-01
C     4.384989650729462e+00   2.706236486520913e+00   6.224861469032216e+00  1.49101734e+00  -1.70110712e+00  -8.89375070e-01
C     6.218055580878923e+00   9.141052610394353e-01   6.210049790987375e+00 -4.12752820e-01  -1.91802059e+00   5.48029340e-01
C     7.082178892360770e+00   3.583966314076605e+00   3.654580104867613e+00  7.40222250e-01  -1.21865652e+00  -2.77684560e+00
C     1.806448015143514e+00   5.317169284712093e+00   3.534064334273491e+00 -5.52912490e-01   8.94393400e-01   1.14838827e+00
C     7.070899887105390e+00   5.414787475446897e+00   5.392981891470463e+00  2.27455125e+00  -1.88629671e+00  -2.09589225e+00
C     1.785939860463684e+00   3.548127993006030e+00   5.299338801748990e+00 -1.33683307e+00   8.48349680e-01   1.36627316e+00
C     8.744939314106164e-01   4.483543238796832e+00   4.476569023195898e+00  5.41102900e-02  -4.66300010e-01   1.81866730e-01
C     2.736978352909853e+00   6.272103192754021e+00   4.404775518586875e+00 -1.17710815e+00  -2.03491386e+00   9.30725000e-02
C     9.393682396097843e-01   6.200122239040509e+00   6.236826721407331e+00 -1.34715343e+00   7.19778880e-01  -1.61916040e-01
C     2.653633235037972e+00   4.476674512187579e+00   6.177864630469670e+00 -3.16414700e-01  -1.60096953e+00   1.49201559e+00
C     3.603098562474109e+00   3.534286827901497e+00   3.515016107431356e+00 -2.25575046e+00  -2.40826170e-01   1.45719340e+00
C     5.308661995604703e+00   5.325754339962945e+00   3.575512622475770e+00  7.66524890e-01   6.87259360e-01  -6.83142100e-02
C     3.537893357201980e+00   5.328434641796043e+00   5.312924987734143e+00  1.68462564e+00   2.42661800e-02  -4.78138530e-01
C     5.384453206010988e+00   3.556994541792634e+00   5.290689699610330e+00 -2.06009267e+00  -9.12468860e-01   2.87444652e+00
C     4.454448962602756e+00   4.359629286769219e+00   4.453838633436603e+00 -3.68862620e-01   3.13255614e+00  -1.26787333e+00
C     6.216899395939780e+00   6.227005653631313e+00   4.456136146711613e+00 -5.09217940e-01   3.49552600e-01   7.08428500e-02
C     4.447747568261978e+00   6.194831937674026e+00   6.196338212427205e+00 -1.05601347e+00   1.37878793e+00   5.62644530e-01
C     6.235634212428600e+00   4.499748096590968e+00   6.221786223238352e+00 -5.98680920e-01  -1.28070018e+00  -4.84927190e-01
