64
Lattice="7.10842262195238 0 0 0 7.10842262195238 0 0 0 7.10842262195238 " PBC="1 1 1" Properties=species:S:1:pos:R:3:force:R:3 Energy="-509.10898802"
C     5.237727472785080e-02   7.064032440012207e+00   7.038891228721338e+00 -7.27997420e-01   1.55789788e+00   9.12797760e-01
C     1.800104743134332e+00   1.757959829515292e+00   3.050053544099120e-02 -1.65339164e+00   5.85719140e-01  -3.78063250e-01
C     7.086051347751467e+00   1.705935772307429e+00   1.692851725296152e+00  5.83290530e-01   2.38978728e+00   1.08723788e+00
C     1.820157461176899e+00   7.090850812536038e+00   1.785219563999599e+00 -8.54158400e-01  -1.30947870e-01   1.27197920e-01
C     9.383210267894059e-01   7.852888431834861e-01   8.540675946751415e-01 -1.47067323e+00   2.37404398e+00   8.10343740e-01
C     2.613035611770628e+00   2.696320947808275e+00   9.678729432317583e-01  1.24463629e+00  -1.78087600e-01  -2.30846182e+00
C     8.331903706928802e-01   2.684953869196633e+00   2.644671717725164e+00  9.23474300e-01  -1.13371775e+00  -5.01993220e-01
C     2.677098706780402e+00   9.606796460456754e-01   2.641072296847301e+00 -3.66936840e-01  -2.40677930e+00   7.28168250e-01
C     3.539642740008762e+00   2.653417778748360e-02   7.086744845462274e+00  2.03866400e-02   2.12947190e-01   9.45431460e-01
C     5.284622092230351e+00   1.798792030729096e+00   7.036843078911838e+00  8.45504670e-01  -8.40049820e-01   8.17377770e-01
C     3.534477120375034e+00   1.887040325271574e+00   1.841723206974134e+00  5.75345740e-01  -3.28572546e+00  -2.07672223e+00
C     5.370525531403170e+00   7.070329365105908e+00   1.689159326250419e+00 -4.75016020e-01   3.46087008e+00   1.61752699e+00
C     4.430658493778139e+00   9.629957123037238e-01   8.601751513902456e-01 -4.41421440e-01  -2.11613313e+00   4.82211620e-01
C     6.167244149485806e+00   2.650125086306550e+00   8.154510887919916e-01  2.22756838e+00   2.91585900e-01   7.19958830e-01
C     4.459781559083828e+00   2.641398715614012e+00   2.707184892266873e+00  8.13802310e-01   6.93977600e-01   6.07113200e-02
C     6.199628559089549e+00   9.547124095930902e-01   2.641319883207156e+00  8.71083010e-01  -4.57188111e+00  -9.39017770e-01
C     7.106676791404528e+00   3.619268588997406e+00   6.365521371983800e-03 -2.00279260e-01  -1.41552921e+00  -1.33435596e+00
C     1.805751247558302e+00   5.279562956767470e+00   5.288410526065680e-02 -5.15862750e-01   1.65234954e+00  -1.08607596e+00
C     7.556750834643400e-03   5.294641271744788e+00   1.700899810302290e+00 -8.98298720e-01   2.18628844e+00   2.91322420e+00
C     1.734736541731526e+00   3.569663243670225e+00   1.779564316215806e+00  8.32030700e-01  -5.80461680e-01   1.50515976e+00
C     9.134310271539283e-01   4.449899358873277e+00   9.175335821848352e-01 -9.16399540e-01  -8.25353790e-01  -1.17777722e+00
C     2.672911774772996e+00   6.192094484123064e+00   9.068339133729850e-01  1.61951622e+00   6.04356780e-01   3.88861060e-01
C     9.089341679202902e-01   6.194733770357644e+00   2.712704724599755e+00 -6.37664370e-01   9.20117000e-01  -2.45453924e+00
C     2.722435231071595e+00   4.376275080018472e+00   2.663106416610967e+00 -1.66086724e+00   3.38623854e+00   5.51694800e-01
C     3.545427574336918e+00   3.605333592714290e+00   9.168479037389099e-02 -7.08348950e-01  -2.51097272e+00  -2.14099220e+00
C     5.273437771164269e+00   5.256901305454910e+00   7.177225042538979e-02  1.68731235e+00   3.39407682e+00  -2.34624239e+00
C     3.620360655964517e+00   5.314668683802829e+00   1.829223259049542e+00 -7.33105360e-01  -9.18690000e-02  -7.94308520e-01
C     5.353498726701484e+00   3.470280315935779e+00   1.782077356864654e+00 -1.27268570e+00   1.32416200e+00   5.37203700e-01
C     4.460067459841604e+00   4.370573982908780e+00   9.713973702509804e-01 -2.36555300e-01   1.58468995e+00  -1.09496596e+00
C     6.237709871833640e+00   6.258023966575945e+00   7.695879725531087e-01 -3.11029710e-01  -2.72100332e+00   3.44088541e+00
C     4.558239183445829e+00   6.244412119185133e+00   2.655619968076036e+00 -3.20377559e+00  -6.45863360e-01   2.66317450e-01
C     6.149538063918553e+00   4.437333586955225e+00   2.615982408367749e+00  3.38712148e+00  -5.23057860e-01   1.65625784e+00
C     7.094540012791592e+00   2.503309218281820e-02   3.555927354304694e+00  8.23981700e-01   3.31937490e-01  -1.33437287e+00
C     1.751138373916461e+00   1.800321550024241e+00   3.521902178591802e+00  1.74019710e-01   5.35306570e-01  -5.11501790e-01
C     4.419747065056440e-02   1.805908485866656e+00   5.330952800509178e+00 -1.94672332e+00  -2.49106590e+00  -6.51707380e-01
C     1.802965527817751e+00   7.098098275902486e+00   5.250704964541283e+00 -1.54406912e+00   2.07636221e+00   3.20272354e+00
C     8.622041795428983e-01   9.370804648737636e-01   4.381812399071000e+00  1.58565654e+00  -1.66826132e+00   1.72481304e+00
C     2.648542111673302e+00   2.705146552080588e+00   4.391550369386591e+00 -1.77737800e-02  -4.29876660e-01   6.85856980e-01
C     8.661428143481880e-01   2.654117958376430e+00   6.188701562922312e+00  1.76634630e+00   1.07360559e+00   2.75829634e+00
C     2.647212907727588e+00   9.543815836043553e-01   6.217517188949684e+00  1.17616880e-01  -2.04613523e+00  -1.15920111e+00
C     3.570090388785461e+00   3.086690354282600e-03   3.501594694682534e+00  1.15554200e-02   1.12837249e+00   1.58397196e+00
C     5.345034870056303e+00   1.713708050515911e+00   3.577930054840380e+00 -1.98343638e+00   1.21868904e+00   2.80275660e-01
C     3.463608776970004e+00   1.837197061039301e+00   5.280234560536608e+00  2.05290452e+00  -1.37169500e+00   1.75895820e+00
C     5.295409834398463e+00   7.068294863467838e+00   5.324515981658315e+00  7.88386120e-01   1.38411581e+00   9.28166050e-01
C     4.352793969746279e+00   8.819921799270972e-01   4.499750442370432e+00  2.60555841e+00  -5.61862750e-01  -2.49415280e+00
C     6.215891990286074e+00   2.563335369001469e+00   4.459908657680273e+00 -3.90624090e-01   3.16943438e+00   2.97173500e-02
C     4.381614500585259e+00   2.680265722310291e+00   6.195154802229426e+00  3.87865280e-01   3.26475300e-01   1.05248438e+00
C     6.241708359557390e+00   8.822830565807076e-01   6.190672728514838e+00 -4.91422460e-01  -1.14601770e-01  -2.57882800e-01
C     7.073528866127170e+00   3.491792819647589e+00   3.572734224410517e+00 -8.16596370e-01   2.07952763e+00  -2.82512710e-01
C     1.793464694480763e+00   5.325623260649833e+00   3.532302796064029e+00 -2.27891970e-01  -1.24145461e+00   2.54566765e+00
C     7.095482163125647e+00   5.423941417760028e+00   5.397925230728864e+00  1.04678827e+00  -2.33429184e+00  -2.51894117e+00
C     1.819308217926487e+00   3.501868724374535e+00   5.368799606391033e+00 -2.21980204e+00   2.67783787e+00  -1.00414824e+00
C     8.051929241090696e-01   4.425195599910444e+00   4.506576305191287e+00  2.74329022e+00   1.08223340e-01  -1.33224892e+00
C     2.683214509265745e+00   6.265848776027589e+00   4.460910803101241e+00  6.40912330e-01  -2.62582853e+00  -2.28728374e+00
C     9.415485349957908e-01   6.175030928876433e+00   6.253693657684294e+00  1.87262090e-01   1.57586005e+00  -2.07998012e+00
C     2.665176673614816e+00   4.437897355953218e+00   6.269740139822455e+00  5.93718190e-01  -6.04543700e-02  -2.34168940e-01
C     3.616920108332211e+00   3.578456717872296e+00   3.545516856125025e+00 -1.67492664e+00  -1.45984730e+00   4.92206040e-01
C     5.377695441878832e+00   5.373223959713948e+00   3.594492608460754e+00 -2.88248380e-01  -2.06854064e+00  -1.70166806e+00
C     3.551606357446675e+00   5.372254584121259e+00   5.412058907424210e+00 -6.68725800e-01  -2.40715697e+00  -2.78031787e+00
C     5.310822813912730e+00   3.497291753217969e+00   5.357625734706203e+00  1.11099971e+00   2.31914502e+00  -1.37762426e+00
C     4.472659959428708e+00   4.385481340322087e+00   4.437967445000250e+00 -3.88101600e-02   3.27111161e+00   1.46605105e+00
C     6.275321104589870e+00   6.256703719242733e+00   4.434196568968792e+00 -2.11215246e+00  -8.21856000e-03   9.95789550e-01
C     4.416342912547949e+00   6.183315013513555e+00   6.260414102597694e+00  7.78327030e-01   1.20929949e+00   3.95790370e-01
C     6.218935390346600e+00   4.602153241286533e+00   6.226328576376758e+00 -1.31722168e+00  -6.23787919e+00   1.17088727e+00
