64
Lattice="7.10842262195238 0 0 0 7.10842262195238 0 0 0 7.10842262195238 " PBC="1 1 1" Properties=species:S:1:pos:R:3:force:R:3 Energy="-507.7568988"
C     2.563844545313740e-02   5.812308381582301e-02   4.099647686055220e-02 -1.30991399e+00  -3.83353700e-01  -8.86699020e-01
C     1.783837117968461e+00   1.694795594545817e+00   9.908380531059660e-02 -5.19600530e-01   1.16025175e+00  -3.13408098e+00
C     7.042135086299750e+00   1.843103662646937e+00   1.789293969676931e+00  1.19605566e+00  -1.02195537e+00  -1.49247680e-01
C     1.745224734970431e+00   1.530137727913340e-02   1.821025968252611e+00  1.59298666e+00  -1.69926167e+00   2.24840400e-01
C     8.293366104536734e-01   9.198676327521121e-01   9.964338033924300e-01  1.80885581e+00  -1.30449551e+00  -1.80781375e+00
C     2.722445040694811e+00   2.602018978394152e+00   8.104207424407224e-01 -1.40455647e+00   1.87678091e+00   2.11151802e+00
C     9.167131280460349e-01   2.710394913753613e+00   2.616642212155337e+00 -8.44594650e-01  -4.49947320e-01   1.42166505e+00
C     2.667719782891348e+00   8.344908566112091e-01   2.678428976989509e+00  4.25671650e-01   3.41324202e+00  -1.16891377e+00
C     3.500142159604363e+00   7.068068886712748e+00   7.060504814202806e+00  1.46178502e+00   1.32070363e+00   1.23773324e+00
C     5.265545716034641e+00   1.714308498974622e+00   6.524728713403941e-02  1.91697550e+00   2.51379171e+00  -3.10422386e+00
C     3.562546859616891e+00   1.762656364340326e+00   1.718248981969793e+00 -8.98419250e-01  -3.28525210e-01   2.40910744e+00
C     5.315799562757445e+00   4.139760514899880e-02   1.796641164212736e+00 -1.43882265e+00  -1.64738206e+00   6.78695520e-01
C     4.374357511932502e+00   8.053414901418275e-01   9.322427567754964e-01  1.63717421e+00   2.27782624e+00  -2.47339987e+00
C     6.169151054937847e+00   2.702273825247168e+00   8.490118712551190e-01 -2.81918250e-01  -2.45153108e+00   3.33252592e+00
C     4.405521618625070e+00   2.713620076180533e+00   2.618230233768645e+00  1.69985180e-01  -2.77661670e+00   2.47234141e+00
C     6.176124417528068e+00   9.068087495569100e-01   2.663531784620548e+00  9.18897400e-01   9.20402160e-01   2.16017280e-01
C     1.656930662186280e-02   3.500582526385672e+00   5.317512408271960e-02 -7.19860840e-01   2.50243418e+00  -5.00776760e-01
C     1.734193316074905e+00   5.433035080649342e+00   3.115116936339980e-02  1.67776080e-01  -4.12122282e+00  -1.62143375e+00
C     4.807639470584600e-02   5.312358446451329e+00   1.809026168943562e+00 -2.93014635e+00   1.40616329e+00   1.11847425e+00
C     1.823285451466604e+00   3.596496401713106e+00   1.771388563939413e+00 -1.16160812e+00  -8.89191190e-01  -2.05341361e+00
C     8.383426264920824e-01   4.493833888971127e+00   9.292511060316433e-01  3.02516883e+00  -1.92499989e+00  -1.75318441e+00
C     2.652418903201798e+00   6.211667525807234e+00   8.544441989055492e-01 -7.24474690e-01   1.89495351e+00   6.90325130e-01
C     9.660064136201986e-01   6.172519807501692e+00   2.755504608279002e+00 -2.30170666e+00   3.56432300e-02  -3.90722222e+00
C     2.652284696182732e+00   4.504853223548200e+00   2.592210563610398e+00  1.77024129e+00  -3.32965134e+00   1.70386239e+00
C     3.576160626281810e+00   3.492071540898519e+00   7.017879371214654e+00 -4.36517450e-01   3.14274201e+00   2.28646200e+00
C     5.434425772450719e+00   5.424263358220488e+00   7.093127427048546e+00 -2.73390857e+00  -3.27668979e+00   2.02074531e+00
C     3.571256952021629e+00   5.362213368496699e+00   1.703506966466627e+00 -1.17725272e+00  -6.50129360e-01   1.22696029e+00
C     5.285166313066138e+00   3.520395619501719e+00   1.816838183234490e+00  2.18547741e+00   2.90669634e+00  -3.25563170e+00
C     4.491470693871110e+00   4.437191205250146e+00   8.459025761169048e-01 -1.04649523e+00   5.08627720e-01   6.86401540e-01
C     6.197341850616922e+00   6.274731603101992e+00   9.671804407001178e-01  2.29114440e+00  -5.92077390e-01  -1.91987684e+00
C     4.346768088807079e+00   6.238806772528132e+00   2.684586008326048e+00  5.05794772e+00  -1.00256700e+00  -2.39455657e+00
C     6.212034675835557e+00   4.410749152619817e+00   2.674200745046680e+00 -3.96615420e-01   6.20503020e-01  -2.38766780e-01
C     4.573018873588880e-02   7.080283929058730e+00   3.457706724752844e+00 -1.68751157e+00   2.20470130e+00   3.22800073e+00
C     1.843209507059749e+00   1.847542446067770e+00   3.469217109164505e+00 -1.22600655e+00  -1.87619572e+00   3.24771310e+00
C     4.090541796679000e-03   1.824472558044144e+00   5.345096926585775e+00 -2.87369900e-02  -2.75206930e-01  -4.74121270e-01
C     1.756147821505228e+00   7.030740071587211e+00   5.240710522337563e+00  4.95594580e-01   3.70515394e+00   7.47299100e-01
C     8.869164686128760e-01   9.667543618482749e-01   4.394561355039970e+00  2.98017520e-01  -2.25788570e+00  -1.33123710e-01
C     2.746460135674218e+00   2.665360923929127e+00   4.502237608360944e+00 -2.40207526e+00   8.70220300e-01  -2.57354749e+00
C     9.101134552329482e-01   2.606508373784039e+00   6.333063176953261e+00 -3.44009800e-01   9.70939180e-01  -1.84160453e+00
C     2.652451033272040e+00   8.662114106264709e-01   6.159631455365144e+00 -5.30661280e-01  -9.24037130e-01   1.93482318e+00
C     3.577225823411417e+00   7.097989303783721e+00   3.538438075627351e+00 -2.23893353e+00   3.32220240e-01   1.30803630e+00
C     5.281982379490413e+00   1.817777987789080e+00   3.571589484031792e+00  5.40539890e-01  -2.18207181e+00   2.76259960e-01
C     3.584893536723158e+00   1.778133177489721e+00   5.346130988824306e+00 -7.50427640e-01  -1.63184349e+00  -1.04551140e-01
C     5.403685114493624e+00   7.045727540923445e+00   5.373393211256530e+00 -9.57258840e-01   2.80191593e+00  -2.34895465e+00
C     4.420184019794892e+00   8.131343116916812e-01   4.519736625577277e+00  1.80381660e+00   2.20017965e+00  -2.33659919e+00
C     6.172785093833870e+00   2.710097639519645e+00   4.441403443242079e+00  5.08360810e-01  -1.32149760e+00   6.76630690e-01
C     4.462069831409432e+00   2.662999932440120e+00   6.195833869842316e+00 -4.26692000e-02  -9.26917690e-01   2.49503340e-01
C     6.258415285241177e+00   9.856811768320608e-01   6.213158233114874e+00 -1.47636028e+00  -4.35421164e+00   1.56063080e+00
C     7.053124636586044e+00   3.501921326701923e+00   3.577208407775998e+00  1.96124945e+00   1.80999652e+00  -1.21075050e+00
C     1.743466324466922e+00   5.168933935774374e+00   3.543746645639967e+00  2.12127172e+00   4.56775682e+00   8.17432570e-01
C     4.657431392201380e-02   5.271878396494120e+00   5.278718120739083e+00 -1.78104946e+00   1.31218285e+00   1.63593179e+00
C     1.740540853137660e+00   3.500790305578855e+00   5.427371373842631e+00  2.05729092e+00   1.14792999e+00  -1.78038697e+00
C     8.542448076510581e-01   4.358238168462485e+00   4.465175216915205e+00  1.44940077e+00  -9.25520840e-01  -8.69866500e-02
C     2.688437636038469e+00   6.197043652288013e+00   4.349194406699963e+00 -1.72036873e+00  -1.21153098e+00   2.84361240e+00
C     8.683164989011577e-01   6.222814456570334e+00   6.181172037346303e+00  4.76597270e-01   7.08690100e-01   4.02184930e-01
C     2.655921578447803e+00   4.486486694435322e+00   6.228038436353773e+00 -5.82853600e-01  -9.55272540e-01  -7.35071000e-03
C     3.612341644406896e+00   3.582467503167178e+00   3.571912064250288e+00 -2.41552389e+00   6.10267640e-01  -4.69601310e-01
C     5.341992962764525e+00   5.360479482051229e+00   3.513153060946880e+00 -1.85946416e+00  -1.51671061e+00   2.43178750e-01
C     3.550943425953133e+00   5.383087820194138e+00   5.314400483017375e+00  2.49746000e-02  -1.08115108e+00   7.03713740e-01
C     5.320014075444616e+00   3.609956981870564e+00   5.321644107835609e+00  7.76968020e-01  -9.35295300e-01   1.93684362e+00
C     4.421920607440957e+00   4.492089908565537e+00   4.483323730706327e+00  1.84740612e+00  -1.91218130e-01  -1.68712925e+00
C     6.256871051511207e+00   6.175203237040741e+00   4.297788640091587e+00  3.42078810e-01   1.41467354e+00   4.98151207e+00
C     4.464063459617437e+00   6.254184920771562e+00   6.246338786052058e+00  7.47879710e-01  -1.61721539e+00  -1.21549237e+00
C     6.279503416122573e+00   4.434613477955455e+00   6.304649034635466e+00 -7.05129210e-01   9.41661870e-01  -4.00342191e+00
