64
Lattice="7.10842262195238 0 0 0 7.10842262195238 0 0 0 7.10842262195238 " PBC="1 1 1" Properties=species:S:1:pos:R:3:force:R:3 Energy="-512.55240738"
C     7.077198518220518e+00   2.057077988311320e-02   7.084821946059337e+00  1.25506120e+00  -2.77845450e-01   5.27553130e-01
C     1.751732638047493e+00   1.779663265458676e+00   3.331788766220200e-03  9.35455240e-01   2.86120530e-01  -1.62602673e+00
C     3.052342456182760e-02   1.768484560046464e+00   1.768535029847066e+00 -1.47311227e+00   2.70704070e-01   2.60053300e-02
C     1.803382934393997e+00   7.106924733185513e+00   1.697099007811602e+00 -2.07233390e-01  -8.02108000e-02   1.97471603e+00
C     8.704873400850796e-01   8.864921668666882e-01   8.441904414446516e-01  9.59472260e-01   1.51938740e-01   9.41082890e-01
C     2.668496022641452e+00   2.685942224277718e+00   8.738381794239214e-01 -3.47775110e-01  -1.06270926e+00   4.42308950e-01
C     8.763672851078911e-01   2.666625441228998e+00   2.684276507605173e+00  1.04972015e+00  -1.14853176e+00  -1.89930900e-02
C     2.673652472409999e+00   9.011075102787655e-01   2.645879225475624e+00 -6.45555360e-01  -6.71381930e-01   1.24852640e-01
C     3.644286682408497e+00   4.057487631496000e-02   7.062374898025676e+00 -2.89068409e+00  -1.18600353e+00   3.85764920e-01
C     5.297044131843028e+00   1.779229936015761e+00   6.024452146253580e-02  1.81814729e+00   7.03263980e-01  -2.55543127e+00
C     3.544245514739439e+00   1.799513677793478e+00   1.764973354693315e+00  9.61626900e-02  -1.35531658e+00  -2.55346910e-01
C     5.349182776823524e+00   7.018940516543369e+00   1.784416596580444e+00 -2.11854370e-01   2.47314127e+00   1.30342910e-01
C     4.461285061552184e+00   8.660339133136495e-01   8.856646753894940e-01  9.95700200e-02   2.79073160e-01   1.12676256e+00
C     6.180950609981690e+00   2.727904309266970e+00   8.813357170981402e-01  1.04592515e+00  -2.32917807e+00   1.31738848e+00
C     4.398194896346409e+00   2.661274931522925e+00   2.646827275800453e+00  9.90378920e-01   6.69991590e-01   3.16963450e-01
C     6.277881345164915e+00   8.246169021708981e-01   2.642936409595170e+00 -1.90048135e+00   1.59056722e+00  -4.89498470e-01
C     2.469572644527300e-02   3.566536746149271e+00   1.530500257466960e-02 -2.63302423e+00  -9.37675720e-01  -1.04281758e+00
C     1.735780413593273e+00   5.316429013580446e+00   1.074374103209420e-02  1.14508905e+00   3.39591680e-01   1.06903653e+00
C     2.936901672833960e-02   5.363558353140629e+00   1.787922541700854e+00 -3.77176680e-01  -2.95196806e+00  -3.74178440e-01
C     1.794300644980875e+00   3.495713825564782e+00   1.783822830038995e+00 -1.12007955e+00   2.34619140e+00   8.24671040e-01
C     8.756821753357756e-01   4.388629305279354e+00   9.085035396779706e-01  1.05954604e+00   1.62613331e+00   1.16784230e-01
C     2.683792139687846e+00   6.198941174622196e+00   8.663267092413675e-01 -9.63866000e-03   1.17196420e+00  -5.98327050e-01
C     9.464476598654948e-01   6.184537520035742e+00   2.624358689246252e+00  3.37356700e-02   1.58256808e+00   1.41160991e+00
C     2.650184015130070e+00   4.439086950478673e+00   2.696051041001394e+00  7.56170460e-01  -5.15534130e-01  -5.16158920e-01
C     3.555239330079305e+00   3.579288829824193e+00   2.569908029808600e-02 -3.39299670e-01  -4.29372800e-02  -1.24167968e+00
C     5.340373593007463e+00   5.329973544209046e+00   1.977634257110200e-02  4.22177290e-01  -8.18425080e-01  -4.38963040e-01
C     3.542020151954021e+00   5.339193239431412e+00   1.777292037841097e+00  8.36964700e-02  -6.65144140e-01   3.58873710e-01
C     5.286108036894835e+00   3.577648916725759e+00   1.805394760163909e+00  1.69989269e+00  -4.10290220e-01  -9.68848160e-01
C     4.472569682461433e+00   4.427991769032247e+00   8.817650658243882e-01 -1.76873965e+00   1.51993970e+00   1.18250128e+00
C     6.260228004093502e+00   6.190476749303205e+00   8.927785004106851e-01 -1.38433055e+00   8.68305320e-01  -4.46397730e-01
C     4.401078143645308e+00   6.217891731737533e+00   2.694568437295540e+00  1.29951028e+00  -7.79822090e-01  -3.83590060e-01
C     6.211243437313725e+00   4.451034218544560e+00   2.664707162300765e+00 -4.05304110e-01   8.41507700e-02   8.53418450e-01
C     3.571961041282140e-02   7.061263922654396e+00   3.518451679167828e+00 -1.22164350e-01   1.01406350e+00   1.71090380e-01
C     1.781522899900294e+00   1.727138490961460e+00   3.576951793719415e+00 -7.38595420e-01   1.11181793e+00  -5.06655820e-01
C     7.084441076775358e+00   1.794258349866286e+00   5.267737811402196e+00 -3.49732610e-01  -9.39710810e-01   1.62768777e+00
C     1.770332252338081e+00   7.099130418866910e+00   5.344907131701821e+00  8.17320900e-02   1.28101946e+00   2.69643920e-01
C     8.339835284888197e-01   8.648065730640804e-01   4.446025126376925e+00  2.36445553e+00  -3.61018940e-01  -7.91270380e-01
C     2.673809995055259e+00   2.629386192228473e+00   4.461443792629288e+00 -1.37909136e+00   1.80188305e+00  -5.39166880e-01
C     8.375941806744226e-01   2.619418975283388e+00   6.204369592640185e+00  1.43054203e+00   2.45807422e+00   2.18292660e-01
C     2.680906404441031e+00   9.772758935892680e-01   6.160819414953398e+00 -5.85613700e-02  -2.84463031e+00   2.12555414e+00
C     3.560199871720445e+00   3.037336576031940e-02   3.583255116393474e+00 -6.43206130e-01  -4.12608760e-01  -1.34946502e+00
C     5.316441382235804e+00   1.795062241380382e+00   3.479538112303388e+00  7.85679430e-01  -1.47992992e+00   1.65342487e+00
C     3.584457292826969e+00   1.842176297831932e+00   5.323073753792943e+00 -5.86063970e-01  -1.88150953e+00   1.97455500e-02
C     5.357952793230949e+00   7.075169347899413e+00   5.287901563006088e+00 -1.41918410e-01   2.16215500e+00   5.18794590e-01
C     4.432000066379212e+00   9.091916349875867e-01   4.415810349525258e+00  1.36493212e+00   6.61802000e-02   6.15233680e-01
C     6.194010914861416e+00   2.672563177727711e+00   4.411462909335092e+00  7.45361090e-01  -7.18685000e-03  -3.09374600e-01
C     4.439847338446335e+00   2.667395638819876e+00   6.236695499925766e+00  3.87921000e-01   6.18612050e-01   4.85450700e-02
C     6.241910807433608e+00   9.242624861211534e-01   6.188557688448483e+00 -2.04774662e+00  -1.24237788e+00   5.36849580e-01
C     4.775722653020800e-03   3.561626745392958e+00   3.576176193727348e+00 -2.57041950e-01   7.47045340e-01  -1.22191351e+00
C     1.832305684350253e+00   5.348231030118932e+00   3.608699644077538e+00 -1.40199961e+00  -4.18851320e-01  -1.82500835e+00
C     7.084417903317617e+00   5.364473917974085e+00   5.362127498751449e+00  9.24025720e-01  -6.93659760e-01  -9.67561890e-01
C     1.745999624120237e+00   3.560698101061881e+00   5.344421697521101e+00  7.86966930e-01  -3.01696080e-01   1.46206420e-01
C     8.935395281363825e-01   4.482825927870248e+00   4.457683579231761e+00 -3.74587900e-01  -1.00174749e+00   5.70230290e-01
C     2.693344224751923e+00   6.255234834792535e+00   4.481194331626280e+00 -4.94341650e-01  -4.22963250e-01  -3.00937010e-01
C     8.933510838527262e-01   6.214411945612364e+00   6.269926878084683e+00 -9.35782070e-01   7.27058670e-01  -1.47594701e+00
C     2.625474071839557e+00   4.495599692234162e+00   6.259198775582353e+00  9.27163480e-01  -2.02377663e+00  -9.21053290e-01
C     3.513004992503705e+00   3.523744041976870e+00   3.580295169214506e+00  7.31511720e-01   6.25026620e-01  -5.05926670e-01
C     5.279645059048732e+00   5.289158261041078e+00   3.576725532627421e+00  1.31766729e+00   1.19289457e+00  -3.27483730e-01
C     3.549468570427936e+00   5.362700579783073e+00   5.389827386764387e+00  5.80787900e-02  -1.24552481e+00  -1.00874735e+00
C     5.365710072667703e+00   3.537080153654252e+00   5.320447262719079e+00 -2.04097397e+00   3.81487770e-01   1.23324166e+00
C     4.405461907875062e+00   4.402450993305909e+00   4.484027535629934e+00  6.04096310e-01   8.51182480e-01  -4.44636970e-01
C     6.260477296474786e+00   6.242783792815570e+00   4.401513534530783e+00 -1.80860166e+00  -1.97819723e+00   1.11095239e+00
C     4.490564085650155e+00   6.197313061505311e+00   6.222261136953594e+00 -2.95570250e-01   1.47388588e+00  -2.68076900e-01
C     6.184407293733344e+00   4.449908741991136e+00   6.225390051338239e+00  2.07842774e+00   2.16784000e-03  -2.75797460e-01
