64
Lattice="7.10842262195238 0 0 0 7.10842262195238 0 0 0 7.10842262195238 " PBC="1 1 1" Properties=species:S:1:pos:R:3:force:R:3 Energy="-513.93922234"
C     7.089950175390085e+00   4.563280334599479e-02   1.613569284204280e-02 -3.46661870e-01  -1.31131275e+00  -1.61533960e-01
C     1.765923821881835e+00   1.759792878456311e+00   1.735876803804000e-04  1.75306480e-01   6.89915360e-01  -1.51770090e-01
C     7.104921153185840e+00   1.818448027705241e+00   1.790109874425254e+00  4.07374010e-01  -1.31349070e+00   7.72133040e-01
C     1.767534448279075e+00   3.574967904050400e-03   1.722419422436721e+00  6.35463930e-01   1.14924660e-01   1.84885517e+00
C     8.646280094878660e-01   9.144345942594200e-01   9.048768224572465e-01  4.79426890e-01  -4.22529640e-01  -6.83619010e-01
C     2.664564283006103e+00   2.654434567519925e+00   8.598527133402024e-01  6.33300840e-01  -2.53699800e-02   2.54466390e-01
C     9.136262955232997e-01   2.662387115326049e+00   2.699163321677108e+00 -3.64576290e-01   5.75323400e-01  -1.02205802e+00
C     2.654237948550255e+00   8.920845761945208e-01   2.664402637475725e+00  4.90074750e-01   2.66689700e-02  -2.44991820e-01
C     3.564096851169182e+00   1.813664272534660e-02   7.101267850464517e+00  4.55897010e-01  -7.47031630e-01  -8.28240310e-01
C     5.342836519276841e+00   1.772672558317263e+00   7.014008550761160e-02 -7.47226790e-01  -3.06175500e-02  -1.89198539e+00
C     3.573182339372482e+00   1.763384124648161e+00   1.760357216128113e+00 -1.12525283e+00   5.19401860e-01   1.88065830e-01
C     5.312895558864496e+00   7.084765434099508e+00   1.817164744169653e+00  7.42535460e-01   1.01335070e-01  -7.55444910e-01
C     4.458692761991122e+00   8.599605481113478e-01   9.008172733831907e-01 -4.14444190e-01   4.29500920e-01   5.06372130e-01
C     6.202034617977968e+00   2.666163180506020e+00   9.359556991626009e-01  7.53984000e-01   8.56784180e-01  -1.34498282e+00
C     4.413535725371084e+00   2.691219730483484e+00   2.628818371429588e+00  1.20160327e+00  -8.00723910e-01   1.26274080e+00
C     6.237914238983965e+00   8.927724582514581e-01   2.670552062800061e+00 -6.47035850e-01  -4.04711360e-01   6.86535300e-02
C     7.101524606689551e+00   3.529784495182442e+00   7.081628345028850e+00  1.38167920e-01   4.87638960e-01   1.26893360e+00
C     1.745457109305879e+00   5.289447218420581e+00   8.135802941268599e-03  7.92350020e-01   1.25195992e+00  -1.05038619e+00
C     1.002159637812840e-02   5.318155365097939e+00   1.784229645065538e+00  2.50196890e-01   5.64517020e-01  -1.09836290e-01
C     1.801115845167800e+00   3.522389460962403e+00   1.769231442011147e+00 -5.39817660e-01   9.90748380e-01   2.54933060e-01
C     8.983479495334552e-01   4.418669072766117e+00   8.740931585433008e-01 -7.81670470e-01  -5.03118450e-01   1.04018215e+00
C     2.668042434194069e+00   6.232785938568992e+00   8.150007702190145e-01 -8.13864440e-01  -3.05347120e-01   1.79197107e+00
C     9.495503441706723e-01   6.222532607613452e+00   2.680116303266818e+00 -2.10935870e+00  -4.58439700e-02  -1.04803811e+00
C     2.650391154565217e+00   4.472060790486069e+00   2.656217715334152e+00  4.29814590e-01  -1.16179284e+00  -6.43769500e-02
C     3.562977487859210e+00   3.563642125374180e+00   7.053776550024524e+00 -1.15705800e-01  -5.50248110e-01   1.68278905e+00
C     5.330022450156672e+00   5.327052693354488e+00   7.089904752569542e+00  6.64140600e-01  -2.10465290e-01   5.07228750e-01
C     3.524561084072813e+00   5.361102464209646e+00   1.743575296585686e+00  3.90776260e-01  -6.83973070e-01   6.87985470e-01
C     5.335561688483307e+00   3.580988382588409e+00   1.776119290277249e+00 -7.04525740e-01  -8.57273200e-02   2.87685640e-01
C     4.437769546514509e+00   4.460280357099073e+00   8.864190211979284e-01 -3.09734500e-02  -2.50709940e-01  -9.22685900e-01
C     6.218043780897374e+00   6.208378316492508e+00   9.089985702292273e-01 -1.43430460e-01   5.91122320e-01  -4.53346520e-01
C     4.393897286198809e+00   6.202294715161633e+00   2.683864503430118e+00  1.01404256e+00   9.09987570e-01  -3.52940810e-01
C     6.214307878305207e+00   4.473760840839867e+00   2.673388536678119e+00  4.19824490e-01  -1.06140176e+00  -2.58091840e-01
C     1.876054897870400e-02   7.102743203579299e+00   3.563755433630743e+00 -2.84438970e-01  -1.08147650e-01  -8.37139510e-01
C     1.777937127193861e+00   1.782027740074767e+00   3.577843687505547e+00  2.18374740e-01  -1.03726356e+00   7.50976400e-02
C     7.077179823069028e+00   1.816094144638855e+00   5.327280447215233e+00  3.56835410e-01  -1.65209796e+00  -1.19718860e-01
C     1.750571335044064e+00   7.091713703957880e+00   5.361664669354662e+00  9.42338950e-01   5.88866470e-01  -2.14733000e-01
C     8.537285940003938e-01   8.602524910283512e-01   4.464138026970720e+00  1.07019662e+00   1.25146915e+00   2.60148840e-01
C     2.689040359192418e+00   2.659767448337901e+00   4.478410104654478e+00 -4.28158320e-01   1.21853250e-01  -1.20139689e+00
C     8.561019541447594e-01   2.637240857055121e+00   6.223302805204328e+00  1.25266867e+00   5.63493730e-01  -4.76543700e-01
C     2.696802045851197e+00   9.133231212985569e-01   6.224063051003538e+00 -1.31380040e+00  -8.13173030e-01   1.36918570e-01
C     3.547966489644104e+00   1.243888657428560e-02   3.574492563829800e+00 -4.19822920e-01  -4.70494000e-03  -2.59991010e-01
C     5.335620688391052e+00   1.771230330451891e+00   3.533529212218657e+00  2.29717600e-02   9.08070450e-01   4.01055060e-01
C     3.593789443295184e+00   1.805829226954444e+00   5.363177412772424e+00 -6.22881070e-01  -1.56764267e+00  -1.05609145e+00
C     5.353022249133264e+00   7.086429444750625e+00   5.309517636435472e+00 -5.46091450e-01   1.11523146e+00   8.70170750e-01
C     4.459618065363568e+00   8.917836055807900e-01   4.461985525517158e+00 -1.37176410e-01   3.57127000e-02  -9.61286380e-01
C     6.241471791252597e+00   2.699940343353700e+00   4.407064359586288e+00 -6.29784140e-01  -1.11413985e+00   4.43316090e-01
C     4.484596067271081e+00   2.638767319728540e+00   6.210770300704138e+00 -3.99883950e-01   1.50847276e+00   1.25326422e+00
C     6.186413930354743e+00   9.372309501806290e-01   6.228569009018130e+00  1.10662256e+00  -1.60984891e+00  -7.88844000e-03
C     3.788810581727860e-02   3.574672691258991e+00   3.558902726760747e+00 -1.41316647e+00  -2.34014960e-01  -8.15855600e-01
C     1.775528438189074e+00   5.326892540592859e+00   3.563759769768541e+00  9.60245940e-01   4.08080440e-01   3.92688300e-02
C     7.096731539485338e+00   5.333101605582977e+00   5.309931346631956e+00  4.49621920e-01  -6.97513250e-01   5.26087310e-01
C     1.776024250666819e+00   3.523987505451605e+00   5.318997997515313e+00 -3.40835600e-01   7.75651980e-01   7.44685180e-01
C     8.866769147705820e-01   4.426758884213034e+00   4.431653744029166e+00  7.67384480e-01   8.79034380e-01   6.12710700e-01
C     2.680553684510627e+00   6.240340130371492e+00   4.471399920435086e+00 -9.37234970e-01  -5.90981090e-01  -3.85313130e-01
C     8.480909751046979e-01   6.198977925167141e+00   6.247646167140329e+00  7.12905400e-01   8.19598750e-01  -5.60591550e-01
C     2.635812632782311e+00   4.427407741029787e+00   6.212636545978793e+00  9.11377190e-01   4.93917970e-01  -4.82707460e-01
C     3.552090938616680e+00   3.562950618021707e+00   3.561792229471552e+00 -4.20072580e-01  -5.92490000e-03  -6.54569760e-01
C     5.298818891718563e+00   5.321951049524340e+00   3.554493301125336e+00  6.30679570e-01   1.49345850e-01  -1.12552820e-01
C     3.572541301820610e+00   5.358886129120955e+00   5.338508129659297e+00 -1.22441788e+00  -1.44281361e+00  -3.12526470e-01
C     5.361221885709662e+00   3.527830887393787e+00   5.319561766513306e+00 -6.97835260e-01   8.93917080e-01  -3.00226880e-01
C     4.427718236929830e+00   4.434504079331333e+00   4.438870214672990e+00  7.21600870e-01   5.50124500e-02   5.99963020e-01
C     6.227222673773902e+00   6.202680276004542e+00   4.415090977156114e+00 -4.19584530e-01   4.62403100e-01   5.05762080e-01
C     4.459187152784343e+00   6.201756607569299e+00   6.199799445569335e+00  1.50503450e-01   1.01479213e+00   5.91388390e-01
C     6.247051334335486e+00   4.416823441917060e+00   6.190008375336773e+00 -1.25222602e+00   6.32364940e-01   6.35860440e-01
