64
Lattice="7.10842262195238 0 0 0 7.10842262195238 0 0 0 7.10842262195238 " PBC="1 1 1" Properties=species:S:1:pos:R:3:force:R:3 Energy="-509.12970471"
C     6.068680751795219e-02   7.086659970896191e+00   5.057109562433500e-02 -2.23936479e+00   3.09551590e-01  -4.00241049e+00
C     1.813512365543271e+00   1.779030900182401e+00   2.518457266885040e-02 -2.26535490e-01  -1.05967352e+00  -5.10924720e-01
C     1.372913636404180e-02   1.780116285232249e+00   1.711002584866739e+00 -1.37066000e-01  -1.00139597e+00   2.40917045e+00
C     1.677695857428050e+00   7.067862955709447e+00   1.820190586426308e+00  3.93381274e+00   1.95520310e+00  -1.40244684e+00
C     9.205451365120244e-01   8.798923518851491e-01   8.261901382651566e-01 -8.27476820e-01  -2.97007300e-01   3.17337252e+00
C     2.669835462715738e+00   2.593111271840578e+00   9.723449940704525e-01  2.68959870e-01   2.98544143e+00  -3.07056741e+00
C     9.344848954382967e-01   2.633985768168971e+00   2.626690536202517e+00 -1.49094550e+00   1.41580808e+00   4.08813680e-01
C     2.712834950902154e+00   8.719044752186027e-01   2.673077969693851e+00 -1.52560942e+00  -8.84122040e-01   9.86470510e-01
C     3.487452345711592e+00   7.036090012619475e+00   6.001193387440940e-02  2.38551405e+00   2.89993883e+00  -2.41188932e+00
C     5.319995380293125e+00   1.800293969344476e+00   7.033340119328929e+00  3.49579650e-01  -1.08808892e+00   1.93889747e+00
C     3.588381710787019e+00   1.741744877761036e+00   1.801867703028317e+00 -1.77385317e+00   1.27983710e-01  -1.93508450e-01
C     5.322196787694314e+00   4.063920753967100e-02   1.746087981813404e+00  1.26950554e+00  -4.89166550e-01   1.18780455e+00
C     4.433236434325509e+00   8.855611056719206e-01   9.115574602039750e-01 -6.84430200e-02  -6.43323500e-02  -2.30683692e+00
C     6.181370362337401e+00   2.618640887343403e+00   9.311730102554127e-01  1.14773987e+00   2.19091933e+00  -3.33633485e+00
C     4.363257923264050e+00   2.704087183857530e+00   2.606166529740244e+00  3.72226160e+00  -1.51193992e+00   2.81984767e+00
C     6.205786443436804e+00   9.229380448185949e-01   2.670531164037558e+00  5.64276830e-01  -3.83442160e-01   3.49914780e-01
C     1.666164503169660e-02   3.597482553183178e+00   4.544243978823120e-02 -2.18397050e-01  -1.32575976e+00  -1.55044249e+00
C     1.738352809570998e+00   5.363217717528679e+00   7.524407511722400e-03  2.40127706e+00   4.82752300e-02  -2.54738394e+00
C     7.082538507461115e+00   5.272852961235322e+00   1.750326094463674e+00  5.31674800e-02   2.37729996e+00   1.38828597e+00
C     1.766319192347960e+00   3.620763632442845e+00   1.730511792915781e+00  1.58763464e+00  -3.23385232e+00   1.94483223e+00
C     9.491639303170492e-01   4.514816815197749e+00   8.433905306472230e-01 -3.11487301e+00  -2.56854009e+00   2.30450517e+00
C     2.628189560364623e+00   6.197504633494920e+00   8.774444954717260e-01 -6.90370370e-01  -4.29368690e-01   2.75648793e+00
C     8.063891294675632e-01   6.267939434204357e+00   2.719174881952706e+00  1.24090294e+00  -2.92732916e+00  -2.52516216e+00
C     2.681249172579768e+00   4.377232158040029e+00   2.676532734171397e+00 -1.73326086e+00   3.07940412e+00  -1.08628836e+00
C     3.610246721176555e+00   3.552191807133658e+00   2.502321147537640e-02 -2.69525989e+00   9.48103290e-01  -1.45654830e-01
C     5.321217957899540e+00   5.339541338887114e+00   3.479906968353140e-02  8.22800280e-01   8.83405480e-01  -2.36662377e+00
C     3.573519065351991e+00   5.295805133780361e+00   1.793807320451047e+00 -7.46332150e-01   1.28004206e+00  -1.48201750e-01
C     5.308388818923416e+00   3.517766285058808e+00   1.727311652136483e+00  5.62467200e-02   1.03405501e+00   2.32726029e+00
C     4.462821333848818e+00   4.485831511122437e+00   8.825700946861031e-01  7.88468000e-02  -2.41970148e+00   4.71868700e-01
C     6.218109178385478e+00   6.240762015253989e+00   8.526888450237664e-01 -3.54141800e-02  -6.95576370e-01   2.19113519e+00
C     4.496423629500046e+00   6.261106320792430e+00   2.645599366877074e+00 -1.80339843e+00  -1.02809391e+00   1.94132230e-01
C     6.219024956471613e+00   4.360027074099034e+00   2.657287532938462e+00 -3.03444510e-01   1.38755118e+00  -1.42133100e-01
C     4.258876352743220e-02   4.723099000364940e-02   3.584217881153128e+00 -3.99917148e+00  -6.12766750e-01  -1.07272859e+00
C     1.848166067984223e+00   1.806134889127103e+00   3.551250367641865e+00 -7.53983700e-01  -3.02274480e-01  -9.70491160e-01
C     5.902038000314560e-02   1.805875787122605e+00   5.324894505162830e+00 -8.82372840e-01  -6.85063220e-01   9.21917310e-01
C     1.728695519852145e+00   1.717551290289640e-02   5.223109570340860e+00  1.40672578e+00  -7.79742440e-01   3.11765121e+00
C     8.859910230719782e-01   9.344681906451399e-01   4.358952707104248e+00  1.80854805e+00   6.00034560e-01   2.64973106e+00
C     2.729999090328858e+00   2.698058814970412e+00   4.489413232027976e+00 -6.09899940e-01  -1.94722534e+00  -1.61123809e+00
C     9.319848632028428e-01   2.665827236452999e+00   6.270933928317258e+00  2.64061240e-01   4.93583930e-01  -7.88664100e-01
C     2.667916046439886e+00   8.704081522570928e-01   6.228559696984497e+00 -6.56994500e-01  -1.53692970e-01  -6.68116320e-01
C     3.567236570356210e+00   7.063173316054354e+00   3.609401742979716e+00 -4.75567940e-01   1.13814528e+00  -3.79357541e+00
C     5.307867913713823e+00   1.793023616857192e+00   3.667436398018146e+00  5.00245690e-01  -4.39169830e-01  -4.59677896e+00
C     3.576434371636906e+00   1.758852363059459e+00   5.340379350829785e+00 -1.98475051e+00  -5.11023440e-01  -3.28086420e-01
C     5.299266935596301e+00   7.613120626019999e-03   5.359199397305819e+00  2.36153436e+00  -1.87974640e-01  -7.06042590e-01
C     4.395758982082988e+00   8.625952849554508e-01   4.421230095267650e+00  2.16961268e+00   8.28495000e-01   2.92820698e+00
C     6.237737665766084e+00   2.683800811963442e+00   4.489940534817928e+00 -2.55041519e+00  -1.72926855e+00   6.44763880e-01
C     4.348125299937915e+00   2.692516448937825e+00   6.167906725558217e+00  4.51164124e+00  -6.41271370e-01   1.73563005e+00
C     6.289308063442340e+00   8.811976004466335e-01   6.205439125907590e+00 -2.03605721e+00   6.62173750e-01   3.29486310e-01
C     7.072127511691863e+00   3.441378535826252e+00   3.594472633793192e+00  1.85179875e+00   3.06354614e+00  -2.32104614e+00
C     1.677475211989925e+00   5.322527400430370e+00   3.501466529822695e+00  2.87024254e+00  -1.45761530e+00   2.24302527e+00
C     7.081992936025030e+00   5.316240071707206e+00   5.357360803795156e+00  2.37009350e-01  -1.11299577e+00  -1.19805918e+00
C     1.893282231174196e+00   3.514094429354447e+00   5.385734357019791e+00 -3.43943672e+00   2.50832821e+00  -2.90030070e-01
C     8.471259356498068e-01   4.354981302470679e+00   4.455326639543647e+00  1.49044800e+00   1.73193829e+00   6.96491500e-02
C     2.660235324714749e+00   6.189596726582848e+00   4.405382009204812e+00 -2.39507808e+00   1.41017843e+00  -8.97661500e-02
C     8.437266168686965e-01   6.179829185229159e+00   6.171757997849507e+00  2.02184206e+00   2.21441809e+00   1.09039088e+00
C     2.700291997020712e+00   4.509622477536636e+00   6.262484501769995e+00 -5.36017850e-01  -1.86722939e+00  -1.10252409e+00
C     3.587415320731830e+00   3.544688795974022e+00   3.538450373198483e+00 -1.83110738e+00   1.36916449e+00   6.58414650e-01
C     5.346772097460404e+00   5.401407149380819e+00   3.514642986328032e+00  1.02398144e+00  -2.63119976e+00   7.73448040e-01
C     3.524408252986483e+00   5.412661132988577e+00   5.282167767152344e+00  1.22613931e+00  -3.05500383e+00   2.17797335e+00
C     5.267327371080117e+00   3.565841329164356e+00   5.323666596239452e+00  1.87528959e+00   1.77803252e+00   1.65352460e-01
C     4.415733223139831e+00   4.517853035751429e+00   4.390391056741495e+00  1.22938819e+00  -1.22103627e+00   6.21121090e-01
C     6.249244922471792e+00   6.206762500946756e+00   4.473161103223418e+00 -1.28446766e+00   1.49072975e+00  -9.48587610e-01
C     4.463404437756337e+00   6.214614038067451e+00   6.209505072562004e+00 -1.85483829e+00   5.52580010e-01   1.06935698e+00
C     6.230822592241348e+00   4.482072932662112e+00   6.250597442043699e+00 -1.78985712e+00  -2.02454416e+00   1.90631870e-01
