64
Lattice="7.10842262195238 0 0 0 7.10842262195238 0 0 0 7.10842262195238 " PBC="1 1 1" Properties=species:S:1:pos:R:3:force:R:3 Energy="-506.22808114"
C     6.399080235172820e-02   5.662327772722919e-02   1.735116202583660e-02 -1.59042614e+00  -9.75038600e-02  -4.38007650e-01
C     1.788453967375925e+00   1.757340401568185e+00   1.123656086391618e-01 -6.30705990e-01  -1.10247622e+00  -3.34246929e+00
C     7.070978648428019e+00   1.848432989253604e+00   1.812822350959547e+00 -4.56754710e-01  -1.47131005e+00  -9.07815660e-01
C     1.775126030384556e+00   7.086486667552715e+00   1.820084457676592e+00 -8.69822350e-01  -1.44377458e+00  -3.14589180e-01
C     8.127107207877553e-01   9.316071216248160e-01   9.861272303514659e-01  3.78693915e+00  -1.72181861e+00  -1.41364516e+00
C     2.737921782759980e+00   2.606275146437877e+00   8.475913951629644e-01 -3.70524220e+00   1.91364118e+00   1.66651195e+00
C     8.922602964016872e-01   2.696233869631180e+00   2.622123659006072e+00  1.46716000e-01  -8.46190000e-03   2.58690074e+00
C     2.641619503220589e+00   8.296236485590690e-01   2.682636736675191e+00  3.74316910e-01   2.22915624e+00  -1.77848920e+00
C     3.471759934104131e+00   7.011776292805801e+00   7.083342754396342e+00  3.88436719e+00   3.02430473e+00  -9.65133920e-01
C     5.200655342800351e+00   1.693002423855696e+00   1.039670783978580e-02  3.74779368e+00   1.96914968e+00  -1.35214206e+00
C     3.471411337058847e+00   1.691307349397731e+00   1.726650426664371e+00  3.13985628e+00   6.84939630e-01   1.78466451e+00
C     5.367991591991818e+00   7.091051127885470e+00   1.832632600706547e+00 -2.05473671e+00   9.17798050e-01  -1.69649179e+00
C     4.364529406818090e+00   7.291013828470893e-01   8.654946683736964e-01  1.45611597e+00   3.79599744e+00   1.30898535e+00
C     6.192924747885081e+00   2.679808153146241e+00   8.384218143200691e-01 -2.83585068e+00  -2.80995595e+00   3.73735018e+00
C     4.378780798992023e+00   2.640132989882294e+00   2.658057375108208e+00  1.96380074e+00  -1.09533209e+00   2.45546820e-01
C     6.222108945625299e+00   9.407274410989546e-01   2.702160943495962e+00 -2.72886770e-01  -1.80796604e+00  -7.61160280e-01
C     7.101196552985638e+00   3.475004076019447e+00   7.159752539739020e-02  5.64819600e-02   3.30954651e+00  -2.14029058e+00
C     1.775508321353060e+00   5.403084666034912e+00   7.098263120223043e+00 -1.61600813e+00  -2.17464078e+00  -5.21558500e-02
C     7.067792795578187e+00   5.302864721536961e+00   1.833424123565284e+00  5.22317460e-01   4.50482480e-01  -6.63330950e-01
C     1.791758246546606e+00   3.556021114399052e+00   1.797280282490501e+00 -1.42831740e-01   7.86418480e-01  -1.45359613e+00
C     7.588590170400641e-01   4.421806232921002e+00   9.601961311390629e-01  5.16665146e+00   1.36828020e-01  -1.76412218e+00
C     2.701191212482141e+00   6.160782877661132e+00   8.711432342402270e-01 -3.56355471e+00   1.84775870e+00   2.87132550e-01
C     9.138319421896963e-01   6.130555874322558e+00   2.745715101899416e+00 -3.59821700e-01   1.61734651e+00  -3.32855242e+00
C     2.688582150270333e+00   4.503739191555193e+00   2.625179569890410e+00 -7.14702830e-01  -3.88313940e+00   1.24393651e+00
C     3.540382868971957e+00   3.518391541912463e+00   7.078645721981724e+00  4.78981330e-01   2.63994885e+00   6.88744030e-01
C     5.448084961936179e+00   5.486687961816352e+00   7.073771689843869e+00 -2.58656868e+00  -5.22827154e+00   2.34521384e+00
C     3.553643702453793e+00   5.311457240631565e+00   1.729167519114113e+00  6.01979600e-02   5.08266340e-01   9.32303850e-01
C     5.304405116718716e+00   3.521304289165234e+00   1.820688176009708e+00 -4.46682260e-01   1.23414420e-01  -2.77047921e+00
C     4.397508293805544e+00   4.401827655726360e+00   8.918590259447882e-01  2.44215989e+00   8.54062510e-01  -1.98930700e-01
C     6.246391104042541e+00   6.269796154192701e+00   9.441488670744129e-01  8.86401670e-01  -3.70447950e-01  -7.40894160e-01
C     4.379785858866264e+00   6.218559141537324e+00   2.663645945887825e+00  4.23064496e+00  -9.46699710e-01  -1.82096867e+00
C     6.187343854201892e+00   4.395840018100856e+00   2.658818331749679e+00 -8.61449130e-01   1.32906008e+00   1.42565550e+00
C     8.891748144792501e-02   7.087009492036416e+00   3.518344626323171e+00 -2.37080891e+00   2.69231853e+00   1.20517084e+00
C     1.827052204612942e+00   1.811849492239774e+00   3.491363115500211e+00 -9.02929650e-01   9.33166880e-01   1.85176826e+00
C     3.491792250973780e-02   1.805402081839208e+00   5.323113703128068e+00 -6.00154490e-01   8.13565630e-01   1.38951798e+00
C     1.792728332981557e+00   7.056468794007623e+00   5.202873241742017e+00  1.90356270e-01   4.78649719e+00   2.07404103e+00
C     9.330359145714360e-01   1.037807026651842e+00   4.402877854084239e+00 -2.11987120e-01  -5.16548679e+00  -1.41709520e-01
C     2.745950177435460e+00   2.738291136399314e+00   4.439883164896340e+00 -2.64986371e+00  -1.02882630e+00  -6.57800190e-01
C     9.327736137767579e-01   2.611438846797498e+00   6.346291240606819e+00 -4.07931130e-01   2.15291652e+00  -2.85539196e+00
C     2.677093730884568e+00   8.914987710864065e-01   6.152912076715136e+00 -1.64926367e+00  -1.56354513e+00   1.72241676e+00
C     3.580679663794022e+00   7.100927996779055e+00   3.468082107324770e+00 -2.02173636e+00  -2.33793340e-01   3.79134739e+00
C     5.270306937505516e+00   1.729379350108189e+00   3.582351493710020e+00  1.02554277e+00   8.97257540e-01   3.23928130e-01
C     3.539276585159606e+00   1.830762943389034e+00   5.297463884198738e+00  5.10715060e-01  -2.82054617e+00   1.22094968e+00
C     5.429596239038465e+00   7.078980031097544e+00   5.350734900902602e+00 -1.88910805e+00   1.75266700e+00  -2.03373312e+00
C     4.414651179048614e+00   8.319650208016446e-01   4.490682227634099e+00  1.54234955e+00   1.33084315e+00  -1.96381705e+00
C     6.147003626917619e+00   2.657270259471495e+00   4.487469860367894e+00  1.14779961e+00   8.74329690e-01  -1.33824385e+00
C     4.379756998670428e+00   2.653240636856669e+00   6.232029815654903e+00  1.62501236e+00   3.99383680e-01  -1.57072543e+00
C     6.284706426059282e+00   9.291141978119819e-01   6.185626814718032e+00 -1.87620238e+00  -1.91159588e+00   1.53992126e+00
C     7.036690532162413e+00   3.551361116866285e+00   3.611968523303571e+00  1.55627946e+00  -6.22753720e-01  -1.62380476e+00
C     1.768610379126838e+00   5.222002362433568e+00   3.558153356848147e+00  1.09142813e+00   2.28476534e+00  -2.18199140e-01
C     8.095100113346480e-02   5.354562644315020e+00   5.288587596873144e+00 -2.39101796e+00  -1.01837269e+00   1.40090426e+00
C     1.815893900373649e+00   3.547427600125281e+00   5.408603218851724e+00 -8.60744230e-01   1.15124429e+00  -1.55019168e+00
C     8.637051940633376e-01   4.406071668367405e+00   4.458215004906831e+00  1.47010831e+00  -1.04853099e+00   7.68833610e-01
C     2.671335979646594e+00   6.204727146297971e+00   4.337568723673406e+00 -2.54371850e-01   2.99444500e-02   1.76521915e+00
C     9.162819311299055e-01   6.276092866033723e+00   6.135015272168988e+00  4.08023680e-01  -3.06053590e-01   2.17078761e+00
C     2.675888711082025e+00   4.594694089094463e+00   6.200383189234889e+00 -1.15995702e+00  -4.81302638e+00   1.27653130e+00
C     3.629208154178500e+00   3.593634550766294e+00   3.558718121025306e+00 -2.95682580e+00   1.29379300e-01  -8.29320030e-01
C     5.332313565851324e+00   5.360430433935151e+00   3.504584497236506e+00 -1.01681471e+00  -1.28272671e+00   1.53948872e+00
C     3.525645331775042e+00   5.424137610224340e+00   5.315241409413322e+00  2.69850729e+00  -1.56767794e+00  -2.74389210e-01
C     5.261552843964760e+00   3.605471922618475e+00   5.261607507734708e+00  2.48848425e+00  -1.67603599e+00   5.60379319e+00
C     4.415947115576467e+00   4.475991606026476e+00   4.482843841095250e+00  1.05052569e+00   1.53803686e+00  -2.38303283e+00
C     6.271155853271455e+00   6.204908908664364e+00   4.334149359140507e+00 -2.93343130e-01   7.27021780e-01   3.49985064e+00
C     4.519405657420090e+00   6.275712352170874e+00   6.231514881520310e+00 -1.54962799e+00  -1.48378006e+00  -1.38718328e+00
C     6.297000727317477e+00   4.478905632795319e+00   6.328465022697287e+00 -1.35445425e+00   9.16078000e-02  -4.65433933e+00
