64
Lattice="7.10842262195238 0 0 0 7.10842262195238 0 0 0 7.10842262195238 " PBC="1 1 1" Properties=species:S:1:pos:R:3:force:R:3 Energy="-512.62313571"
C     7.097979067655149e+00   7.107453528744215e+00   7.100574779259068e+00  7.95182070e-01  -3.83585490e-01  -7.34546780e-01
C     1.773861442000458e+00   1.801404731463077e+00   7.104111006259838e+00  2.89904760e-01  -1.94420139e+00   9.67009290e-01
C     3.845585553193800e-03   1.778637164653479e+00   1.770011307056788e+00 -3.62249130e-01  -2.49515100e-02   3.48383160e-01
C     1.774385190579100e+00   2.191455609519800e-03   1.775527514094134e+00  6.94026790e-01  -5.88102300e-02  -3.23727910e-01
C     8.703560475192882e-01   8.415648744657285e-01   8.857218981915850e-01  3.16755510e-01   2.20986508e+00  -2.01202410e-01
C     2.706428911521236e+00   2.666778769904912e+00   9.314909699992051e-01 -1.05203708e+00   1.18444380e-01  -2.45500607e+00
C     9.616574806612826e-01   2.656054932456154e+00   2.633263836767684e+00 -2.06389993e+00  -6.92230680e-01   9.41750700e-01
C     2.670330990856578e+00   9.120381317415392e-01   2.649348704387993e+00  6.07937530e-01  -1.92129276e+00   6.98956780e-01
C     3.533093821333182e+00   4.092389986560200e-03   5.629444209682800e-03  5.79111030e-01  -2.53229990e-01   5.83984000e-03
C     5.307606465929859e+00   1.737653909459000e+00   7.100927285936793e+00  1.12808086e+00   1.16780112e+00   4.81650550e-01
C     3.552833413359339e+00   1.771130812535211e+00   1.786653901515862e+00  4.89387400e-02   1.00571970e-01  -2.38107090e-01
C     5.324430325165744e+00   7.038706836238576e+00   1.803702671243444e+00  4.36411700e-01   2.72773992e+00  -1.43165107e+00
C     4.443911934500451e+00   8.554584997291970e-01   8.966977292222221e-01 -3.68296660e-01   4.16329140e-01   1.53062470e-01
C     6.190805656017832e+00   2.691160090817702e+00   9.436536943547038e-01  1.29880472e+00  -1.41689625e+00  -2.64924911e+00
C     4.376042776767251e+00   2.685120774959751e+00   2.667128362129364e+00  2.51238138e+00  -8.35273820e-01  -1.31324840e-01
C     6.193630187745889e+00   9.113791098804391e-01   2.673077187767363e+00  1.11622980e+00  -1.53420130e+00  -8.24301750e-01
C     1.108935253987860e-02   3.565937079617048e+00   3.948551054844500e-02 -4.57181410e-01  -7.73458700e-02  -1.30261721e+00
C     1.774579819190435e+00   5.342603931688714e+00   1.822471608160840e-02  3.77001090e-01   3.61375380e-01  -1.24677664e+00
C     7.857650364148001e-03   5.347124888475035e+00   1.759643743749744e+00  8.25291530e-01   1.76509480e-01   5.76210910e-01
C     1.822088606350074e+00   3.563779886604555e+00   1.765243048247518e+00 -9.47448730e-01  -2.38919520e-01   6.48548610e-01
C     9.248088394837265e-01   4.480724607059550e+00   9.078865285945547e-01 -9.81406780e-01  -1.56081255e+00  -7.95689360e-01
C     2.663978051392632e+00   6.229768128829898e+00   8.883064495719908e-01  1.63175160e-01  -6.81942980e-01   3.19388630e-01
C     9.181394330447379e-01   6.234171441221856e+00   2.641812070389364e+00 -1.06075946e+00   3.72742900e-02   1.07066664e+00
C     2.650908221226596e+00   4.428997255411846e+00   2.660888446585075e+00  8.83020560e-01   5.80681220e-01   8.98760060e-01
C     3.613984685211282e+00   3.542544469206473e+00   2.640096594758480e-02 -2.76042351e+00   2.85702410e-01  -1.07092166e+00
C     5.319177058681111e+00   5.299949628504725e+00   5.458721223618260e-02  3.10467000e-03   1.53870518e+00  -1.69380186e+00
C     3.546300346466202e+00   5.269330879995564e+00   1.788928596754263e+00  2.28687800e-02   2.29515136e+00  -4.38935130e-01
C     5.310463696401968e+00   3.567889621142309e+00   1.745048588257907e+00  5.51905470e-01  -5.78123400e-01   2.76415324e+00
C     4.432459483733143e+00   4.402659127920222e+00   8.925181188901147e-01  7.49399280e-01   1.49378156e+00   4.82060070e-01
C     6.231613901847407e+00   6.236339012531372e+00   8.616471635463951e-01 -6.69157340e-01  -1.52812956e+00   1.60563422e+00
C     4.442923081829783e+00   6.205474454768011e+00   2.670546518230417e+00 -6.66646070e-01  -4.01114550e-01   6.83332700e-02
C     6.263991131944303e+00   4.461305533809329e+00   2.655015254563752e+00 -1.59364604e+00  -5.90792300e-01  -5.72686600e-02
C     2.479744797296520e-02   4.081578075755180e-02   3.532720131556049e+00 -9.47926930e-01  -1.27231737e+00   6.90161650e-01
C     1.815510827478657e+00   1.714125172755252e+00   3.542605175135647e+00 -6.08569960e-01   3.78745925e+00   6.80405500e-02
C     2.559359130640520e-02   1.811999977546639e+00   5.278046588054172e+00 -1.59887634e+00  -1.50550630e+00   1.06161645e+00
C     1.762687001641818e+00   1.145038932474840e-02   5.287387979471793e+00 -2.18273790e-01  -2.47267700e-02   1.85988557e+00
C     9.082099618237647e-01   9.143954268507837e-01   4.419194740618866e+00 -6.91736180e-01  -8.51498760e-01  -3.29062480e-01
C     2.657312199164953e+00   2.693925053964204e+00   4.466649219429688e+00  1.29216501e+00  -1.56572326e+00  -1.14605648e+00
C     9.113175509405500e-01   2.607311412287421e+00   6.214672327132934e+00 -1.13453268e+00   3.47858935e+00   4.29363920e-01
C     2.630720229901569e+00   9.016014034824029e-01   6.217974047271472e+00  1.28208854e+00  -5.52274890e-01  -2.76167330e-01
C     3.565406435868464e+00   2.093593955310260e-02   3.576458255936909e+00 -5.83597250e-01  -1.40725759e+00  -1.05996964e+00
C     5.290309541168613e+00   1.731012794542039e+00   3.528368852817669e+00  1.78679680e-01   2.38286912e+00   3.37472700e-02
C     3.542151871025170e+00   1.772212927710654e+00   5.329326393413721e+00  3.89422800e-01   6.03723660e-01   2.24575900e-01
C     5.365137204888757e+00   7.092356660783859e+00   5.347961194396277e+00 -1.11538042e+00  -2.72744900e-02  -5.03457760e-01
C     4.465071505029179e+00   8.845276121071988e-01   4.418747265414937e+00 -1.20914131e+00  -5.11431230e-01   1.89971948e+00
C     6.134195173451318e+00   2.660500255625797e+00   4.369844943084873e+00  3.17239538e+00   1.46844750e-01   1.95923305e+00
C     4.419272435678103e+00   2.671026905431076e+00   6.236148222468252e+00  1.39917625e+00  -8.87704290e-01  -1.03910664e+00
C     6.231501304433106e+00   8.574553978116074e-01   6.207578334610853e+00  9.71415100e-02   1.79120772e+00  -3.06589600e-02
C     1.550275889195800e-02   3.498903019373245e+00   3.538634552428568e+00 -1.93659050e-01   1.95232082e+00  -3.35490800e-01
C     1.792725987202093e+00   5.341804518480869e+00   3.548483556305483e+00 -1.05456398e+00  -6.93036560e-01   6.54150130e-01
C     7.073899357114124e+00   5.329271160969964e+00   5.340469912133964e+00  1.41797139e+00   2.61668680e-01  -3.41781030e-01
C     1.816757858058884e+00   3.537803364571611e+00   5.357452075941596e+00 -1.75332394e+00   1.14334440e+00  -2.28900740e-01
C     8.783623350004204e-01   4.431115423184154e+00   4.478923190599190e+00  9.79038000e-03  -6.45908320e-01  -1.11975682e+00
C     2.639801168714393e+00   6.216395977449833e+00   4.479952063689209e+00  1.30158622e+00   1.24986672e+00  -1.67090216e+00
C     9.058950329133354e-01   6.214761111331458e+00   6.183855680138032e+00 -1.33351993e+00   4.32290090e-01   1.18880781e+00
C     2.659959020327510e+00   4.488616946526084e+00   6.209596344708445e+00  7.02585780e-01  -1.94896541e+00   1.90241564e+00
C     3.568334821650999e+00   3.579006554361953e+00   3.564034794639709e+00 -2.03197170e+00  -6.65474930e-01  -1.67873700e-01
C     5.315455586186864e+00   5.355345423813934e+00   3.540858706782140e+00  1.10449859e+00  -9.97886060e-01   7.68417620e-01
C     3.528939445901376e+00   5.384645346674407e+00   5.380913566967359e+00  7.82054200e-01  -1.59103800e+00  -1.73343192e+00
C     5.325744459255503e+00   3.570207535590238e+00   5.308412063465383e+00 -1.03458791e+00   1.39805890e-01   3.56566910e-01
C     4.401705035436165e+00   4.471400844530026e+00   4.412413021102481e+00  1.38226368e+00   1.91795210e-01   1.63197793e+00
C     6.218643305261145e+00   6.211899829058456e+00   4.457370382131124e+00  3.71090200e-01   7.51409820e-01  -1.17135929e+00
C     4.458906867680437e+00   6.195889813128335e+00   6.256581454373668e+00 -8.76838310e-01   1.39389935e+00  -3.09477400e-01
C     6.187288266337004e+00   4.508955352073749e+00   6.225763243525789e+00  1.09761717e+00  -3.35349414e+00   3.07778740e-01
