64
Lattice="7.10842262195238 0 0 0 7.10842262195238 0 0 0 7.10842262195238 " PBC="1 1 1" Properties=species:S:1:pos:R:3:force:R:3 Energy="-509.76594495"
C     6.048770060036599e-02   7.070690330806552e+00   4.919156404647160e-02 -1.60871310e+00   9.00038600e-02  -3.69125885e+00
C     1.744045376573547e+00   1.823238678045764e+00   3.539105911932500e-02 -1.82541700e-01  -2.18579370e+00  -2.29384398e+00
C     7.037232691555641e+00   1.752269252871077e+00   1.797294641504193e+00  1.81477985e+00   1.03773316e+00  -8.19713080e-01
C     1.782327502256652e+00   7.093229930502726e+00   1.699365741616668e+00  5.46360780e-01  -9.98560390e-01   2.49999026e+00
C     8.613466194380216e-01   8.113026133509595e-01   8.668390132595908e-01  1.79391831e+00   3.81695201e+00   2.02285728e+00
C     2.620926884973769e+00   2.622598288384410e+00   8.649653041411850e-01  8.22819980e-01   1.51278959e+00   1.55115347e+00
C     7.810532184811331e-01   2.693523357001947e+00   2.728711754992376e+00  3.58550238e+00  -2.53655227e+00  -1.70129755e+00
C     2.721758509238171e+00   8.255877705323378e-01   2.600855187442805e+00 -2.92243606e+00   2.51436077e+00  -6.08538370e-01
C     3.589951250501514e+00   3.643727676053660e-02   7.081976231231873e+00 -3.62085030e-01  -1.56414861e+00   5.79422400e-02
C     5.268824262715436e+00   1.790114850321088e+00   1.579626566193780e-02  2.93051112e+00  -5.62869930e-01  -5.29169690e-01
C     3.551176440046617e+00   1.741245937577338e+00   1.698257112024853e+00 -4.69010060e-01   3.82289520e-01   3.15207457e+00
C     5.336500000269147e+00   3.320841795385400e-03   1.694089372758520e+00  4.98152050e-01  -2.03001238e+00   3.75727509e+00
C     4.428957590413627e+00   8.356919667813106e-01   9.263136214681544e-01  7.21229090e-01   2.19747832e+00  -3.43038388e+00
C     6.205250965960839e+00   2.703523841364895e+00   8.780126716917426e-01 -1.28170375e+00  -2.25067212e+00   1.40768639e+00
C     4.424166371399294e+00   2.635052315898875e+00   2.677280753483700e+00 -3.62024500e-01  -2.10180540e-01  -9.99185600e-02
C     6.208696418404752e+00   8.844447989836758e-01   2.661035306596404e+00 -1.48810345e+00  -5.48386580e-01  -6.58967810e-01
C     7.089088918905445e+00   3.617826645468940e+00   5.586566204438959e-02 -4.73018100e-02  -1.04589345e+00  -9.68804950e-01
C     1.807959976634789e+00   5.332463553568606e+00   7.104028548557447e+00  9.29783500e-02  -1.55911911e+00   4.71543510e-01
C     7.080509834729593e+00   5.369230234633354e+00   1.792683549919051e+00  1.00730485e+00  -2.44624192e+00   8.32334640e-01
C     1.711160391848903e+00   3.493216992119506e+00   1.793782583140329e+00  1.33317155e+00   1.43175145e+00   1.84774185e+00
C     8.767846205999114e-01   4.405662081056041e+00   1.013739400429272e+00 -3.67112220e-01   2.43661502e+00  -4.51336833e+00
C     2.692211781944331e+00   6.170194500294237e+00   8.643774375905110e-01 -5.08325300e-01   1.78572171e+00  -8.72979480e-01
C     8.807339180391309e-01   6.233079232086293e+00   2.660948797093119e+00  1.96809150e-01   3.10263400e-02   7.12043600e-02
C     2.632924267419126e+00   4.466248091141241e+00   2.686035557866718e+00  3.68799160e-01  -3.34946069e+00  -1.00746928e+00
C     3.538345523964838e+00   3.522902546907115e+00   7.081848563961618e+00 -2.32681050e-01   5.16373690e-01  -4.04376250e-01
C     5.299500020774011e+00   5.307634757451887e+00   1.072262901691280e-02  7.06770130e-01  -2.91439630e-01  -5.03689140e-01
C     3.525259557679454e+00   5.252557135139150e+00   1.722389140556359e+00  8.69970330e-01   1.32066623e+00   2.12130951e+00
C     5.302810271019693e+00   3.477881423327571e+00   1.859532435753603e+00  7.62888440e-01   2.86053587e+00  -3.41751809e+00
C     4.394694922301000e+00   4.370024217503349e+00   8.503306969038076e-01  1.09506305e+00   8.52807820e-01   2.18941783e+00
C     6.241595406721959e+00   6.190481583030586e+00   8.616483719782406e-01 -1.21368405e+00   5.66925450e-01   4.35948690e-01
C     4.449764938601533e+00   6.158182474498282e+00   2.682051215903982e+00  1.47344730e+00   4.98765880e-01  -2.70398704e+00
C     6.226128900785363e+00   4.410080889809311e+00   2.650869195986411e+00 -1.38133725e+00   1.26573850e+00   2.99471735e+00
C     7.079335665481222e+00   2.221382068750000e-02   3.524624135781453e+00  2.13299446e+00  -2.67605470e-01   1.23801509e+00
C     1.782869377312974e+00   1.797657455394718e+00   3.532613789553654e+00 -4.56298320e-01  -9.75076230e-01   5.29313020e-01
C     7.095929282908445e+00   1.850824475875650e+00   5.335255670889516e+00  2.25530888e+00  -2.06216265e+00   1.59805553e+00
C     1.846069794153585e+00   1.057413406838100e-02   5.335120539775509e+00 -8.23368720e-01   1.42904511e+00  -1.25066515e+00
C     8.925850802311949e-01   9.327055861722845e-01   4.450362046101612e+00  4.44887490e-01  -8.42972960e-01  -3.17066980e-01
C     2.656609602673193e+00   2.689189493898986e+00   4.430482915739426e+00 -9.41836360e-01  -9.56268000e-03   6.50060270e-01
C     9.018865933979173e-01   2.731180012578719e+00   6.267951305270132e+00 -1.06557541e+00   1.11986280e-01  -5.74455880e-01
C     2.727946177876202e+00   1.012378208581769e+00   6.199174686305263e+00 -3.16761226e+00  -5.04985026e+00   2.01231622e+00
C     3.571782690958604e+00   7.070095355833257e+00   3.421865204892089e+00  5.82378210e-01   1.14711272e+00   3.48545662e+00
C     5.316584261530466e+00   1.762158348251569e+00   3.540773192458021e+00  7.93884120e-01   7.79955460e-01   4.86380870e-01
C     3.508844290575767e+00   1.814695846825274e+00   5.350989240263946e+00  3.15592960e+00   1.23541095e+00  -3.00149312e+00
C     5.417686574528239e+00   4.482926725303000e-03   5.366143828615976e+00 -1.13812779e+00   3.53632910e-01  -1.28322201e+00
C     4.457908063218100e+00   9.528000306556316e-01   4.411215394059463e+00 -6.40945550e-01  -3.17265429e+00   1.42193830e+00
C     6.252575431721941e+00   2.671726160964206e+00   4.465900133853992e+00 -3.00424402e+00   7.55983600e-02  -3.12676100e-01
C     4.439154551577790e+00   2.674787332081283e+00   6.209074941909267e+00 -8.72995300e-02  -6.21804530e-01  -3.04702400e-02
C     6.298620523579896e+00   9.034540005856274e-01   6.241764942601446e+00 -2.24323420e+00  -1.07103000e-03   2.74925310e-01
C     7.087598851355841e+00   3.539336722414971e+00   3.650921968418910e+00  5.33754550e-01   1.84452210e+00  -2.89775554e+00
C     1.782488010439412e+00   5.300497119214919e+00   3.581346647088457e+00 -1.23587087e+00   1.87718391e+00  -1.26168367e+00
C     1.525908216454440e-02   5.359374051249592e+00   5.311463496043471e+00  3.64720400e-02   2.32846440e-01   2.63846152e+00
C     1.775120912320270e+00   3.642693755983581e+00   5.366718615669028e+00 -3.57858460e-01  -2.66147766e+00  -1.11299275e+00
C     8.435903484070713e-01   4.475121961603144e+00   4.505973155531980e+00  2.18527928e+00  -1.06564005e+00  -1.59235195e+00
C     2.723444555999408e+00   6.230013582662966e+00   4.333388260330584e+00 -1.76199291e+00   6.12696270e-01   3.20916925e+00
C     9.746122965493278e-01   6.220333830328633e+00   6.225797150701687e+00 -1.47028543e+00   1.49900000e-03  -1.57466280e-01
C     2.701312055666682e+00   4.447196878761606e+00   6.172064513032881e+00 -9.21049150e-01   1.67427227e+00   1.88050952e+00
C     3.553885744244004e+00   3.526115482847128e+00   3.581219619576237e+00 -6.93600350e-01   1.46973678e+00  -1.22088345e+00
C     5.363786960012089e+00   5.345590322199829e+00   3.631313100284734e+00 -1.40152323e+00  -1.55197184e+00  -2.68203481e+00
C     3.556661298940209e+00   5.401856899279986e+00   5.285715865218890e+00  8.88327620e-01  -2.19199686e+00   9.53999330e-01
C     5.342145083008593e+00   3.552101387997932e+00   5.309443637755997e+00 -1.34412594e+00   4.17687620e-01   1.66786378e+00
C     4.381345020283735e+00   4.442333935763037e+00   4.474269235225649e+00  3.29390037e+00  -2.57176100e-02  -1.16778119e+00
C     6.289284961068824e+00   6.213603433623565e+00   4.455420115301100e+00 -1.98088910e+00   1.65370907e+00  -4.69481180e-01
C     4.508114994351613e+00   6.190116423360597e+00   6.203487792814173e+00 -1.95443257e+00   2.71390392e+00   5.96408600e-02
C     6.169155959749456e+00   4.473953763429773e+00   6.223016549025422e+00  2.16396333e+00  -6.19131810e-01   3.12690000e-02
