64
Lattice="7.10842262195238 0 0 0 7.10842262195238 0 0 0 7.10842262195238 " PBC="1 1 1" Properties=species:S:1:pos:R:3:force:R:3 Energy="-504.56349702"
C     4.451813159495260e-02   1.120059935388160e-02   6.021935764646100e-02 -2.12227353e+00   4.68722990e-01  -4.11162164e+00
C     1.833728435137646e+00   1.806017457985421e+00   7.072226318766281e+00 -1.44663959e+00  -1.05506751e+00  -1.03898420e-01
C     2.652038744760080e-02   1.820656401360597e+00   1.717920643928975e+00 -1.75719876e+00  -5.30095710e-01   2.28764282e+00
C     1.648200381861301e+00   1.003396503348720e-02   1.814161791033833e+00  4.54103706e+00   2.82091115e+00  -2.40190916e+00
C     8.769332577168956e-01   1.010969319218485e+00   7.858178519948666e-01  5.26800770e-01  -3.68026432e+00   4.08934713e+00
C     2.651819947511836e+00   2.626265950119425e+00   9.078637105579443e-01  1.35456731e+00   2.26035457e+00  -1.53624115e+00
C     8.969351505377303e-01   2.685556947771714e+00   2.711721700835636e+00 -8.61280810e-01   1.63168100e-01  -1.66548361e+00
C     2.681815287357224e+00   9.808097037263485e-01   2.675566699537339e+00 -2.52172127e+00  -4.01711723e+00   1.84225864e+00
C     3.577985998126400e+00   7.012716381697296e+00   7.045104061175445e+00 -1.10812306e+00   1.64966001e+00   2.42933081e+00
C     5.275827765017565e+00   1.800249754955779e+00   7.099151033292507e+00  2.62884920e-01  -2.33443154e+00   9.60161470e-01
C     3.576502967915189e+00   1.744527327627183e+00   1.760579994093024e+00 -2.20023900e+00   1.14734855e+00   7.59379140e-01
C     5.363434453334362e+00   2.020889008752900e-02   1.831791461057922e+00  2.35044730e-01  -6.00332390e-01  -8.71452400e-01
C     4.443001558815507e+00   8.584638697287067e-01   9.954428181949758e-01  4.10120130e-01  -7.51902550e-01  -5.04219557e+00
C     6.133029249973187e+00   2.613569027804033e+00   8.785805635748544e-01  2.30282737e+00   3.21842329e+00  -4.29876290e-01
C     4.363390068840555e+00   2.724828423715070e+00   2.537722016280180e+00  4.05213784e+00  -1.85546890e+00   3.11788142e+00
C     6.226935635668506e+00   8.926298632937010e-01   2.674909170444990e+00  1.41281617e+00   7.52449800e-01   1.22248247e+00
C     7.099324194467530e+00   3.530104587453020e+00   7.079341778724674e+00  7.83139190e-01  -5.03530230e-01   8.15889710e-01
C     1.683891416415190e+00   5.295055479530856e+00   6.064373047687500e-02  3.38210333e+00   1.84220337e+00  -3.71121128e+00
C     7.099178400719595e+00   5.247989191679312e+00   1.733926110468620e+00  7.30630100e-02   1.61453116e+00   2.01453589e+00
C     1.785313181925504e+00   3.634430783361640e+00   1.721539044295234e+00  1.21707378e+00  -5.24053852e+00   3.64576011e+00
C     9.302867321231509e-01   4.390230903979867e+00   8.759186725563430e-01 -3.63521939e+00   1.08169210e+00   3.25790460e-01
C     2.598793815967232e+00   6.229005679419676e+00   8.455895922689461e-01  1.32346174e+00  -1.54636971e+00   2.41978101e+00
C     8.397872001369188e-01   6.279348950099040e+00   2.726831079619803e+00  1.53614516e+00  -2.07659086e+00  -3.66371180e+00
C     2.703882816707205e+00   4.359938360984736e+00   2.655435006919463e+00 -1.75968850e-01   4.49567492e+00  -1.14762017e+00
C     3.576981009336384e+00   3.571245365292758e+00   7.090792168049423e+00 -2.22385906e+00   1.47546946e+00   1.05343584e+00
C     5.396229800849769e+00   5.350123931978413e+00   2.108685136532520e-02  4.41012890e-01  -2.41745020e-01  -4.19305049e+00
C     3.636355886375589e+00   5.275273734558563e+00   1.765019985945702e+00 -2.20367167e+00   3.37144545e+00   7.69326430e-01
C     5.280113077594033e+00   3.601114530636641e+00   1.724562825109329e+00  1.88437323e+00  -2.08105911e+00   3.51522100e-01
C     4.541221335356643e+00   4.538644745409572e+00   8.422816167185030e-01 -3.25921925e+00  -3.17857833e+00   9.06086960e-01
C     6.264979558109615e+00   6.192394104136497e+00   8.086921162279909e-01 -5.47125000e-02   1.67106374e+00   5.06144924e+00
C     4.538470233634252e+00   6.282397681476533e+00   2.732873309931029e+00 -3.62152602e+00  -2.06088251e+00  -8.58442990e-01
C     6.207228813470628e+00   4.359230504260236e+00   2.647245108882057e+00 -7.32807350e-01   2.15525495e+00   4.30831720e-01
C     6.309009412154801e-02   7.066337488215194e+00   3.633148139584088e+00 -3.73886383e+00   3.08471493e+00  -1.50808828e+00
C     1.775083095511931e+00   1.821181998129120e+00   3.614631196248571e+00 -4.02103890e-01  -5.96547120e-01  -1.65818754e+00
C     7.089675932445404e+00   1.777799508131938e+00   5.301692258310019e+00  2.90658730e-01   4.15544040e-01   3.97261719e+00
C     1.691910427972812e+00   7.100644015295386e+00   5.267306685570293e+00  2.53490112e+00  -1.04746482e+00   4.57181057e+00
C     7.922105986254849e-01   9.155673924881432e-01   4.526913644475560e+00  4.66781364e+00  -1.53535558e+00  -4.24794017e+00
C     2.689272733527866e+00   2.675872077373095e+00   4.448184523000429e+00  6.20411950e-01  -1.09125489e+00  -7.81715090e-01
C     9.047792238146740e-01   2.670500526736066e+00   6.195987980444716e+00  7.09212990e-01  -1.64268920e-01  -5.36727360e-01
C     2.658592141741910e+00   8.311547317071908e-01   6.231617456058716e+00  1.00433510e+00   7.57058290e-01  -2.31908684e+00
C     3.498926334999438e+00   1.300756038388560e-02   3.676539799446449e+00  2.88278735e+00   1.68308157e+00  -5.67387654e+00
C     5.329219980327100e+00   1.845051868034401e+00   3.652868325616491e+00  3.85900970e-01  -1.75624473e+00  -5.35308071e+00
C     3.592633187271815e+00   1.761815082523249e+00   5.307553081675983e+00 -3.97193504e+00   8.24495730e-01   1.60465076e+00
C     5.281593975278457e+00   7.243958914095540e-02   5.312157135922731e+00  3.98685092e+00  -2.62659168e+00   2.93154870e-01
C     4.414085206439609e+00   9.609751431739887e-01   4.416486076179515e+00  9.58348340e-01  -2.08939585e+00   2.11735014e+00
C     6.246267701825858e+00   2.671009703048336e+00   4.518420643297636e+00 -3.42379526e+00  -8.16182670e-01  -1.09894231e+00
C     4.314532458488771e+00   2.683524436491977e+00   6.223052517643879e+00  4.53759251e+00  -2.35382249e+00   5.58764360e-01
C     6.249904015417119e+00   8.807812601337802e-01   6.206603698785425e+00 -2.81715538e+00   9.38972160e-01   9.22390130e-01
C     7.040571588744481e+00   3.489711828925585e+00   3.601923255878118e+00  2.13218427e+00   2.75461768e+00  -1.65386195e+00
C     1.776316833341859e+00   5.452776876286511e+00   3.479511953308147e+00  8.73608220e-01  -6.25651909e+00   1.73524649e+00
C     2.704506012118300e-02   5.318888385638513e+00   5.354843995682319e+00 -1.69485580e+00  -1.10731092e+00  -2.82645400e-01
C     1.851448950802818e+00   3.548369821543563e+00   5.297092824537974e+00 -3.08098983e+00   1.51995324e+00   8.12617780e-01
C     8.290693337631614e-01   4.427775459731920e+00   4.437579964883233e+00  3.10893521e+00   7.55143670e-01  -4.67726830e-01
C     2.692048217139845e+00   6.160448852882217e+00   4.412044520473860e+00 -2.57303681e+00   3.25466202e+00   5.89665690e-01
C     8.129853191535660e-01   6.178578102848038e+00   6.251443841925063e+00  3.06621084e+00   1.37696408e+00  -2.27993530e-01
C     2.627367044783262e+00   4.471993615892309e+00   6.226676320411328e+00  1.24488503e+00  -3.98669560e-01  -1.93935870e-01
C     3.609355893653817e+00   3.476776916620875e+00   3.483511507295289e+00 -3.27484589e+00   3.12227631e+00   3.33586330e+00
C     5.346083646729657e+00   5.355939545776513e+00   3.548646197015028e+00  2.02798568e+00  -1.94759527e+00   2.04409084e+00
C     3.569136580638309e+00   5.340708470797091e+00   5.258264771997653e+00 -2.55490860e-01  -1.87421689e+00   3.84521277e+00
C     5.284479710525273e+00   3.451307082952284e+00   5.409240133518476e+00  1.92597380e+00   4.62356945e+00  -1.06960713e+00
C     4.456101386525001e+00   4.411103720740103e+00   4.547797194953953e+00  5.77606850e-01  -6.23375570e-01  -5.42045930e+00
C     6.329056585627725e+00   6.188550793278542e+00   4.460363881064858e+00 -4.33310208e+00   9.76771540e-01  -4.74315920e-01
C     4.557345939059399e+00   6.150595370699052e+00   6.153725067010186e+00 -3.89823357e+00   2.94580359e+00   9.46832390e-01
C     6.266718633703598e+00   4.434681718812607e+00   6.221559535641000e+00 -1.83129705e+00  -1.19623317e+00   8.48159450e-01
