64
Lattice="7.10842262195238 0 0 0 7.10842262195238 0 0 0 7.10842262195238 " PBC="1 1 1" Properties=species:S:1:pos:R:3:force:R:3 Energy="-514.3367441"
C     7.096068323654892e+00   7.074571387388619e+00   7.078841274688001e+00  1.20181220e+00   1.14204910e+00   7.58742910e-01
C     1.753423305283434e+00   1.794680874506819e+00   7.103529324036844e+00  3.51281670e-01  -4.03774410e-01   2.01726590e-01
C     3.619182292746800e-03   1.750457529197918e+00   1.767379697918637e+00 -5.64099970e-01   7.69444940e-01  -5.76144600e-02
C     1.798733172989802e+00   7.090736935605666e+00   1.797828270790276e+00 -5.71044330e-01   4.40635070e-01  -5.46234590e-01
C     8.779415874655425e-01   8.703831306094704e-01   8.893144238995068e-01  5.96788760e-01  -7.65016800e-02  -2.57948720e-01
C     2.666586131651910e+00   2.694330376221996e+00   8.774805351744094e-01 -5.24935380e-01  -1.23037223e+00   6.86938010e-01
C     8.915476059498061e-01   2.645346733537159e+00   2.647984100497632e+00  1.88383640e-01   2.48511840e-01  -1.46065050e-01
C     2.688869330544181e+00   9.080759680573776e-01   2.671718981457360e+00 -7.76150990e-01  -1.17879151e+00  -2.38716240e-01
C     3.567037605607076e+00   3.525784727942620e-02   7.100508102254891e+00 -7.34860440e-01  -7.42751960e-01   5.32581530e-01
C     5.341194544735847e+00   1.809998245736848e+00   7.086177593337198e+00  1.42998220e-01  -9.11075470e-01  -3.81659100e-02
C     3.537484267480199e+00   1.802571650120376e+00   1.794167930730560e+00  8.18002310e-01  -5.41452950e-01  -5.54054300e-01
C     5.356539709898319e+00   7.090859982401218e+00   1.749310016534371e+00 -5.97454790e-01   7.51483810e-01   4.87224960e-01
C     4.443206068134285e+00   9.240979972217266e-01   8.710480524613452e-01  4.11940460e-01  -5.24077870e-01   4.35290430e-01
C     6.218282055223597e+00   2.683897770847980e+00   8.584576854010273e-01 -1.40857090e-01  -8.33321630e-01   1.62201927e+00
C     4.438586446442000e+00   2.643847425038149e+00   2.721332430386328e+00 -6.14724430e-01   9.85727490e-01  -1.87845482e+00
C     6.209862270798658e+00   8.824458394587056e-01   2.665839818361036e+00  1.84070800e-02   6.66894100e-02  -5.61543760e-01
C     7.092843943154461e+00   3.581348282025659e+00   1.584510052533720e-02 -1.21933890e-01  -2.56421260e-01  -6.10272780e-01
C     1.777207021106561e+00   5.347536323976280e+00   7.079628674661619e+00  4.62745250e-01  -1.41309500e-02   1.21154042e+00
C     1.989434238659400e-03   5.358375673292613e+00   1.764868576543896e+00  5.22743040e-01  -1.83614597e+00   5.28402610e-01
C     1.770859981633389e+00   3.554207471451785e+00   1.747321150969521e+00 -5.17177100e-02   5.15657590e-01   1.21440743e+00
C     8.790431086347378e-01   4.461726139175755e+00   8.884243072190303e-01  4.13875770e-01  -3.83683800e-02  -5.11882010e-01
C     2.683160556338059e+00   6.210915241441359e+00   9.211283825879955e-01 -3.14162820e-01   5.85045710e-01  -1.51281983e+00
C     8.781134691244942e-01   6.192898091300256e+00   2.654330215875863e+00  7.45564430e-01   1.29585405e+00   1.23733463e+00
C     2.665689190885718e+00   4.434697215173919e+00   2.685035189551406e+00 -2.41347530e-01   1.22191750e-01  -4.10863960e-01
C     3.559165596229235e+00   3.541678592247131e+00   3.136200517830900e-02 -5.46317600e-02   5.26934560e-01  -1.54321920e+00
C     5.335534676477351e+00   5.320360539963115e+00   2.525082316766880e-02 -3.40106990e-01   1.34317650e-01  -3.04437760e-01
C     3.550879094728423e+00   5.309867868417959e+00   1.776375691081152e+00  5.78707240e-01   2.37667550e-01   4.41823590e-01
C     5.305890919214748e+00   3.530960939126051e+00   1.801114921072859e+00  1.14996758e+00   2.28161940e-01  -5.79537950e-01
C     4.439740712107035e+00   4.405703807496820e+00   8.864941572250218e-01 -7.56897000e-03   1.04533179e+00   1.18098473e+00
C     6.269127607045290e+00   6.193620591375351e+00   8.810864958010829e-01 -2.13983229e+00   9.71553810e-01  -2.91637470e-01
C     4.472730190644193e+00   6.209615679617971e+00   2.656825130047030e+00 -8.07527290e-01  -2.35975500e-01  -7.73225000e-02
C     6.231724651071826e+00   4.434231471323857e+00   2.648749251108449e+00 -3.54866700e-01  -1.02545100e-01   5.56166450e-01
C     7.092702272291644e+00   4.944192269114800e-03   3.534998096668854e+00  9.72805910e-01  -2.23877270e-01   7.99851600e-01
C     1.790429611274702e+00   1.770962200750665e+00   3.538893227927709e+00 -2.76925440e-01   3.62669880e-01   1.71112580e-01
C     4.980374140250600e-03   1.763783973420536e+00   5.296813179192103e+00 -4.85344190e-01   8.21093050e-01   1.25583842e+00
C     1.774098650063288e+00   3.281766796243260e-02   5.318041132746436e+00  1.33256510e-01  -6.67140260e-01   2.77972250e-01
C     9.150055427642584e-01   9.139868347185861e-01   4.441794975159989e+00 -9.73866520e-01  -8.01301160e-01  -1.25975491e+00
C     2.651642663451693e+00   2.644656221363853e+00   4.434027601763115e+00  1.17636270e-01   1.17986973e+00   5.01859860e-01
C     8.595846547232021e-01   2.688363921695899e+00   6.233006726175570e+00  1.05610530e-01  -5.98089460e-01  -3.53580420e-01
C     2.639738543511110e+00   9.062347444303451e-01   6.204545810436935e+00  9.40138640e-01   1.20360730e-01   4.72710370e-01
C     3.559822485563549e+00   7.104776852206654e+00   3.550577128935525e+00  4.83222480e-01  -1.30215950e-01   2.03723020e-01
C     5.300764182652752e+00   1.765256412082043e+00   3.558783731766089e+00  9.39472890e-01  -5.17081420e-01   8.81050400e-02
C     3.550090273070281e+00   1.781697553844068e+00   5.306027614181731e+00  3.41118000e-03  -7.55659900e-02   1.08452279e+00
C     5.340209033023811e+00   7.106820879131035e+00   5.330867144016606e+00  1.77381500e-02  -2.78497770e-01   2.44728190e-01
C     4.453799750364872e+00   8.749232090526381e-01   4.449159372078536e+00 -6.86819930e-01   3.06727000e-03  -6.64949400e-02
C     6.175173381665737e+00   2.642482892232014e+00   4.430781967079049e+00  1.61386697e+00   8.31466380e-01   1.06051900e-02
C     4.443076197253018e+00   2.692042814738654e+00   6.221259986711793e+00 -2.84490160e-01  -7.75337430e-01  -7.42914800e-01
C     6.248490150158001e+00   8.634999028180720e-01   6.201098438718913e+00 -1.14322862e+00   1.02686847e+00   1.69274440e-01
C     1.663107881443060e-02   3.532863081934937e+00   3.533259376496002e+00 -7.58352130e-01   3.03556240e-01   6.10328180e-01
C     1.781040309088622e+00   5.334139008780140e+00   3.597379765392093e+00 -5.44932780e-01  -6.04524750e-01  -1.05051372e+00
C     8.933154706554001e-04   5.331435106983944e+00   5.349834121588195e+00 -1.37078140e-01   3.08788750e-01  -5.88220260e-01
C     1.746738402483134e+00   3.551731821105918e+00   5.359775534959170e+00  1.34141042e+00  -2.89875580e-01  -4.59963720e-01
C     8.884669577547504e-01   4.429583487025318e+00   4.478631816355996e+00 -3.27125910e-01   1.79085190e-01  -9.04890900e-01
C     2.657542938563199e+00   6.227419150575119e+00   4.464730727248776e+00  6.08970330e-01   6.24452200e-02  -5.83929500e-01
C     8.949228982624605e-01   6.250028839318326e+00   6.190100358325476e+00  1.18337450e-01  -1.10692574e+00   6.27788030e-01
C     2.683397693316662e+00   4.432994321451072e+00   6.240452727785793e+00 -6.80914260e-01   3.01267550e-01  -5.35307390e-01
C     3.545689306457787e+00   3.552504222307807e+00   3.568186539955146e+00 -9.36745400e-02   1.39135300e-02   2.62325560e-01
C     5.338102025475016e+00   5.302824132443802e+00   3.556679709754795e+00  4.10036640e-01   1.23605796e+00  -1.42029870e-01
C     3.566331525988231e+00   5.326108979167457e+00   5.342204864842827e+00 -3.88142130e-01   6.11096710e-01   4.37310990e-01
C     5.314955508655546e+00   3.577041075507523e+00   5.311398382892272e+00  3.32631310e-01  -5.01495450e-01   9.87860510e-01
C     4.437901621006788e+00   4.461499806999534e+00   4.449877820352739e+00 -6.68624600e-02  -6.12676640e-01  -4.18678680e-01
C     6.238327593759318e+00   6.229967520084388e+00   4.454153323305991e+00 -6.58784570e-01  -8.10611740e-01  -6.26990190e-01
C     4.454072927046157e+00   6.227753246438258e+00   6.247293660462602e+00 -1.55171800e-01  -1.61144900e-02  -5.94590020e-01
C     6.193797591098591e+00   4.463498837608730e+00   6.238553286177503e+00  8.51068140e-01  -4.87929710e-01  -8.25325270e-01
