64
Lattice="7.10842262195238 0 0 0 7.10842262195238 0 0 0 7.10842262195238 " PBC="1 1 1" Properties=species:S:1:pos:R:3:force:R:3 Energy="-513.35181807"
C     7.083903608941060e+00   7.091947784314757e+00   2.022872258663880e-02  5.74584180e-01   3.23954800e-02  -8.27891350e-01
C     1.733995062168034e+00   1.788403568659549e+00   5.533835925443800e-03  1.14189068e+00  -1.47824420e-01   1.17780270e-01
C     1.149986394618360e-02   1.736391382517462e+00   1.782869306228748e+00 -6.44973170e-01   1.02972145e+00  -4.46973500e-02
C     1.798007331956074e+00   7.100537460040312e+00   1.777418567763732e+00 -2.42917130e-01   3.38639500e-01  -1.17570358e+00
C     8.934063162964835e-01   9.014590217773243e-01   8.759041713741982e-01 -6.75400830e-01  -1.36082442e+00   6.15223360e-01
C     2.634352847113067e+00   2.629171091359992e+00   9.157291801869745e-01  7.00927740e-01   1.55712436e+00  -1.19170042e+00
C     8.874740532831887e-01   2.675815636497492e+00   2.663430987187797e+00 -2.97779300e-02  -2.73617600e-01   8.58806000e-03
C     2.705781831810138e+00   8.778754080509503e-01   2.616968915258953e+00 -1.16952331e+00  -4.15907300e-01   2.60851837e+00
C     3.569660613553856e+00   4.464188923276680e-02   7.102508341295934e+00 -4.72152610e-01  -9.81274060e-01   9.54121860e-01
C     5.376797861354605e+00   1.833470470480766e+00   7.089061124973001e+00 -8.83783800e-01  -1.68386414e+00   8.43631790e-01
C     3.553207600726056e+00   1.762173702444428e+00   1.765289750584131e+00  4.06690170e-01   1.27042247e+00   5.79496220e-01
C     5.274071202703937e+00   1.570620194734240e-02   1.782293381828076e+00  1.06061197e+00  -6.49301660e-01  -1.27179021e+00
C     4.455914221757417e+00   9.404453788893931e-01   8.932261888672929e-01 -2.84600170e-01  -7.12109100e-01  -1.03713448e+00
C     6.209961006788851e+00   2.670242775331864e+00   9.292227434253894e-01  1.38707279e+00   2.73482300e-01  -9.25529300e-01
C     4.439041954163489e+00   2.693992299642189e+00   2.674021754965108e+00  6.61464600e-02  -1.05979051e+00   5.95335100e-02
C     6.202067601058925e+00   8.205910470200611e-01   2.631487513039171e+00  9.87176010e-01   1.98557518e+00   1.70953735e+00
C     7.099486337587493e+00   3.572320869635164e+00   3.212104254567260e-02  1.89377250e-01   1.77408000e-02  -8.33850090e-01
C     1.816805129069307e+00   5.343348610042385e+00   7.073373618177149e+00 -1.44675029e+00  -3.42587790e-01   2.15686590e-01
C     3.749685823627380e-02   5.330685239481761e+00   1.787862333361262e+00 -1.45364244e+00   6.75940170e-01  -5.74245160e-01
C     1.746608815938771e+00   3.612641833094138e+00   1.783030951759127e+00  1.33958007e+00  -2.73412026e+00   3.64189200e-02
C     9.388869993984104e-01   4.478309378305952e+00   8.809237129230850e-01 -1.91751371e+00  -2.11476160e-01  -1.68467410e-01
C     2.658181061661796e+00   6.208955875830383e+00   8.354761550705674e-01  9.74827820e-01   5.63320190e-01   1.79528167e+00
C     9.130685686845347e-01   6.239282183832958e+00   2.661762356061978e+00  6.29244000e-02  -1.32178723e+00   2.54113860e-01
C     2.652847327833105e+00   4.405898080687026e+00   2.697330272736088e+00 -3.88274310e-01   1.86113294e+00  -1.20327482e+00
C     3.582282968515963e+00   3.480986879917570e+00   7.081991158919375e+00 -1.07218711e+00   2.05650134e+00   1.33959072e+00
C     5.302456698078574e+00   5.286486204978219e+00   7.107057589604281e+00  1.68228420e-01   2.05049858e+00   5.56025900e-02
C     3.532786524223320e+00   5.276733591312032e+00   1.760714769785899e+00  3.58191880e-01   1.41926821e+00   1.56602670e-01
C     5.353190434412454e+00   3.568605439300143e+00   1.799095560374970e+00 -1.16585009e+00  -5.04179770e-01  -5.49216400e-02
C     4.451311091605609e+00   4.415452013940984e+00   8.991773602847567e-01 -5.65108770e-01  -5.50324270e-01  -6.31991220e-01
C     6.157882783400624e+00   6.221398885289788e+00   8.752541772098253e-01  1.75509539e+00  -7.31580010e-01   9.18993530e-01
C     4.410412000134952e+00   6.231671408986402e+00   2.630931065716478e+00  1.89354710e-01  -8.92006680e-01   1.06896280e+00
C     6.210790986213961e+00   4.441351267420049e+00   2.682838615877599e+00  1.17502770e+00   7.49392610e-01  -5.83986600e-01
C     1.448852915253640e-02   7.051810360327832e+00   3.544802815072846e+00 -1.03589469e+00   1.53666624e+00   9.92628400e-02
C     1.793089369766427e+00   1.770267352439560e+00   3.564421919335595e+00 -4.42201010e-01   4.42033500e-02  -1.23521792e+00
C     7.104798675064097e+00   1.746800672265285e+00   5.303714746713861e+00  9.11251400e-02   7.61032510e-01   7.27177800e-01
C     1.798006834366491e+00   5.549666382618540e-02   5.341870982232366e+00 -8.72916560e-01  -1.86686527e+00  -5.58840500e-01
C     8.665326402446687e-01   8.797694472580494e-01   4.413914391044051e+00  1.37158065e+00   2.82842700e-02   6.00433010e-01
C     2.666687853179602e+00   2.643860859956901e+00   4.458207256726176e+00 -3.90980710e-01   2.75858900e-01   4.39946770e-01
C     8.552729698988150e-01   2.670972454913807e+00   6.224360325237506e+00  1.78179310e-01  -5.93474250e-01   4.37191440e-01
C     2.679206780592589e+00   9.207475133040158e-01   6.253421973771757e+00 -4.61891050e-01   3.72689700e-02  -1.14434952e+00
C     3.558789702841090e+00   7.076730641843670e+00   3.587372599111883e+00 -2.66544200e-02   1.07924969e+00  -1.74888625e+00
C     5.373041059999935e+00   1.796320645436801e+00   3.558947509823254e+00 -1.69980959e+00  -1.19913573e+00  -7.38480110e-01
C     3.587063809233271e+00   1.774908939157742e+00   5.342561707658351e+00 -9.07992630e-01   5.97289850e-01  -3.46141000e-01
C     5.308795207444602e+00   3.776050963124960e-02   5.377312653320746e+00  3.10467110e-01  -2.09931902e+00  -1.78351265e+00
C     4.420812404354500e+00   8.889294317304076e-01   4.451851829314313e+00  1.54517509e+00   1.44420820e-01   1.01735850e-01
C     6.269524825701295e+00   2.664970671527289e+00   4.412460292112904e+00 -1.40892474e+00  -2.94990200e-02   8.98423550e-01
C     4.495121508644515e+00   2.685139185774336e+00   6.183853760863924e+00 -6.95659420e-01  -8.66192770e-01   4.20770770e-01
C     6.219846547958032e+00   8.538928696471419e-01   6.226218466910374e+00  3.65936510e-01   2.04149363e+00   1.88653500e-02
C     6.446344137173200e-03   3.563074517827973e+00   3.542901596358901e+00  4.32540050e-01  -1.30986540e-01   6.70821740e-01
C     1.808886772775984e+00   5.354838095691544e+00   3.574844075328359e+00 -1.17306138e+00  -1.16994060e+00  -2.05622880e-01
C     7.102476282309917e+00   5.334160689469130e+00   5.336157587551542e+00 -1.30724730e-01  -4.62385600e-02  -4.84745220e-01
C     1.755172617005990e+00   3.534822376461688e+00   5.380552956687847e+00  4.93022680e-01   3.87445880e-01  -1.77609607e+00
C     8.944574387493029e-01   4.441325108424807e+00   4.469306134552365e+00 -8.76615900e-02   1.71515130e-01  -7.19311920e-01
C     2.673078467283435e+00   6.207561487649243e+00   4.447360301397639e+00 -2.23697600e-02   9.39614460e-01   9.93551120e-01
C     8.861533083603927e-01   6.218364655094441e+00   6.194207533831085e+00  2.53657180e-01   6.87944230e-01   9.47939000e-01
C     2.660459595448410e+00   4.423509695317658e+00   6.216675054121893e+00  8.08691540e-01  -5.20648860e-01   4.98532320e-01
C     3.493962736736571e+00   3.539606202716496e+00   3.549782407286609e+00  2.41889694e+00   2.65885220e-01   1.04839959e+00
C     5.324873535316101e+00   5.369902904665884e+00   3.523334525749732e+00 -5.18298400e-01  -1.20191574e+00   6.99316440e-01
C     3.540180705432644e+00   5.316445860542055e+00   5.360560660237550e+00  5.22482890e-01   8.18454200e-01  -9.26895960e-01
C     5.356194311643214e+00   3.565407928637215e+00   5.302350284991952e+00 -2.08335780e-01   3.55541230e-01  -3.72934480e-01
C     4.436499768981899e+00   4.481267548379266e+00   4.439911527502593e+00 -2.26950780e-01  -1.22716498e+00  -4.18565420e-01
C     6.202131008188695e+00   6.197900003961045e+00   4.435750825574655e+00  4.95848220e-01   1.19386360e+00   4.29104070e-01
C     4.424378699982953e+00   6.240330249664050e+00   6.245938866195456e+00  8.73689500e-02  -7.33912040e-01  -5.10906200e-01
C     6.199456037672562e+00   4.465635487279850e+00   6.198883454230521e+00  8.19039930e-01  -9.74141530e-01   1.13432262e+00
