64
Lattice="7.10842262195238 0 0 0 7.10842262195238 0 0 0 7.10842262195238 " PBC="1 1 1" Properties=species:S:1:pos:R:3:force:R:3 Energy="-507.35185743"
C     7.015520370083981e+00   2.339929232783740e-02   6.640276123092040e-02  1.72149703e+00  -2.21864910e-01  -9.98073520e-01
C     1.704653768287912e+00   1.779887465108111e+00   4.830322447165020e-02  1.45461446e+00  -1.71600477e+00  -2.42373133e+00
C     2.481202023933620e-02   1.821747544232767e+00   1.807911070687163e+00 -1.19816359e+00  -6.17806230e-01   1.23566729e+00
C     1.707150459564734e+00   6.975843429714379e-02   1.719793642205119e+00  3.07355813e+00  -3.25101378e+00   3.56801842e+00
C     8.313601651209088e-01   9.250215234885170e-01   9.281667161609622e-01  6.18776700e-02  -5.72371540e-01  -6.44521240e-01
C     2.654278111138059e+00   2.618711260727341e+00   8.256144271171628e-01  1.35814038e+00   7.86112220e-01   1.18458024e+00
C     9.476606411013716e-01   2.741201040283038e+00   2.620658115514507e+00 -1.05510410e-01  -2.99660717e+00   1.27861349e+00
C     2.700299674117141e+00   8.029822757584758e-01   2.728572714245929e+00 -2.00695353e+00   3.77182187e+00  -3.04223790e+00
C     3.600375325768387e+00   1.045620533711520e-02   5.481788055020160e-02 -1.03694394e+00   2.33935820e-01  -2.59364100e+00
C     5.365777602682593e+00   1.777734608233418e+00   3.133485100390060e-02  2.00710050e-01   2.19678882e+00   3.37506110e-01
C     3.575298801123361e+00   1.760651149403450e+00   1.769280419042999e+00 -1.36285592e+00  -1.55304170e-01   3.80776390e-01
C     5.243107624613479e+00   4.083831445725720e-02   1.808198961803273e+00  2.61224872e+00  -1.39268566e+00   1.47078298e+00
C     4.478998539878962e+00   9.213507340475490e-01   9.058472643133288e-01 -1.15812357e+00  -5.26501050e-01  -2.71281890e-01
C     6.268795288287805e+00   2.722238327765021e+00   9.861061183362844e-01 -1.84105882e+00  -6.74204700e-01  -2.23998621e+00
C     4.377807727019571e+00   2.704605387866528e+00   2.619187027453298e+00  1.29111195e+00  -4.75950040e-01   2.99179087e+00
C     6.188419998302334e+00   8.749775884856812e-01   2.737663249429290e+00  6.86825400e-02   1.63946785e+00  -1.75119590e+00
C     5.327741428422140e-02   3.598079731767485e+00   2.158628913860640e-02 -2.81014755e+00  -1.80905214e+00  -3.44671850e-01
C     1.751788439165060e+00   5.338258339688430e+00   6.923471415219268e+00  1.53292296e+00   1.84157240e-01   5.14318423e+00
C     5.691372787548239e-02   5.352343252604603e+00   1.787647801166591e+00 -6.16043330e-01  -1.06486430e-01   3.08536890e-01
C     1.827340948739766e+00   3.526190689958448e+00   1.699088086629130e+00 -6.09348980e-01   3.51526796e+00   9.76651130e-01
C     9.463850346622126e-01   4.499764588131447e+00   8.378826404643421e-01 -3.35166800e-01  -1.07253735e+00  -5.38560980e-01
C     2.619980256333463e+00   6.287592587811454e+00   8.092438009075290e-01  2.68143810e-01  -1.80839691e+00   6.98806960e-01
C     9.273357415566842e-01   6.235846043422676e+00   2.737102750305703e+00 -1.98861473e+00   3.45364780e-01  -2.22310019e+00
C     2.624560639532886e+00   4.530934808067467e+00   2.621623723643208e+00  5.67929490e-01  -3.67847982e+00   9.44659070e-01
C     3.641101682569380e+00   3.455096369798328e+00   7.021645982192540e+00 -1.71782198e+00   2.71555629e+00   1.04478878e+00
C     5.326502927949058e+00   5.372177315567379e+00   6.742338855070000e-03  7.05808570e-01  -3.81161659e+00   1.69268930e-01
C     3.495328406890325e+00   5.330086852465609e+00   1.691677484963554e+00  1.86343300e-01   1.07074437e+00   1.48184211e+00
C     5.277999103791070e+00   3.557746968326962e+00   1.814157170559131e+00  2.90763860e+00   1.53167199e+00  -1.49372138e+00
C     4.445840520641483e+00   4.413137795872816e+00   8.300815731442494e-01 -5.63089760e-01   4.02583810e-01   1.10668068e+00
C     6.167369755313501e+00   6.204583840497952e+00   9.956770407203048e-01  7.80320920e-01   1.65710380e+00  -2.73530051e+00
C     4.373608142019901e+00   6.223006739402206e+00   2.675622784991811e+00  9.97809560e-01  -1.61961890e-01  -1.16393925e+00
C     6.300356400383699e+00   4.484013389868919e+00   2.663299623537779e+00 -2.93927342e+00  -1.84492837e+00   5.81843470e-01
C     7.058830851760023e+00   7.078570088365048e+00   3.569722883336007e+00  1.96988152e+00   1.69133800e+00  -3.54570000e-03
C     1.815769716230478e+00   1.788831566785499e+00   3.526784243247218e+00 -2.54549200e-02  -1.21258520e+00   2.17834026e+00
C     7.084871136343868e+00   1.854647954234496e+00   5.305251587684305e+00 -1.45193325e+00  -4.36490712e+00   1.33368325e+00
C     1.704531361250396e+00   2.486028642892600e-02   5.395195312105879e+00  1.97818383e+00   3.00928460e-01  -2.21663174e+00
C     8.376393902422858e-01   9.292850842917667e-01   4.462857942225312e+00  1.05190432e+00  -8.67895020e-01  -9.00293080e-01
C     2.719319538353023e+00   2.574455927516650e+00   4.590897978162704e+00 -1.68177392e+00   2.59284961e+00  -5.55726126e+00
C     7.709983546851429e-01   2.555102038501854e+00   6.244279404934818e+00  4.95250384e+00   5.67464635e+00   7.89784520e-01
C     2.710966786353392e+00   8.772730403181316e-01   6.241084879809390e+00 -1.65917640e+00  -2.10242000e-03   1.44216848e+00
C     3.531470399775227e+00   7.075900378081655e+00   3.610524873753675e+00  2.81949110e-01  -1.52974660e-01  -8.21487720e-01
C     5.325970507094819e+00   1.830286394736589e+00   3.604253538981407e+00 -8.38790030e-01  -2.57135868e+00  -2.04916322e+00
C     3.641398245961086e+00   1.753854075694206e+00   5.404128324643981e+00 -1.71444675e+00  -1.76309600e+00  -1.90680930e+00
C     5.350147531941511e+00   7.039226035426741e+00   5.386956792457752e+00  5.82617720e-01   2.82235661e+00  -2.44856737e+00
C     4.450886292269838e+00   8.676414120049364e-01   4.450818051412686e+00  3.56881740e-01  -3.21186770e-01   1.31278847e+00
C     6.227666879103425e+00   2.659232255198841e+00   4.442123952958843e+00  1.60618584e+00   1.06661486e+00  -3.05901197e+00
C     4.557386954657916e+00   2.612132131255626e+00   6.152284971671600e+00 -1.07232876e+00   1.78470995e+00   1.72783875e+00
C     6.193217188391667e+00   9.798996123783099e-01   6.274991984622563e+00  1.07070722e+00  -4.75679481e+00  -1.70675951e+00
C     5.468921810077960e-02   3.529034556596032e+00   3.556814556531896e+00 -3.46603760e-01   1.34405588e+00  -1.68560940e+00
C     1.737521834966721e+00   5.299713486705289e+00   3.637162336921828e+00  2.96905899e+00   2.43317766e+00  -3.67270421e+00
C     7.080583406903711e+00   5.252729727640363e+00   5.261968757772256e+00  1.02442758e+00   1.74006634e+00   1.47123326e+00
C     1.765995474781845e+00   3.468287540738488e+00   5.317942965430054e+00  1.27661956e+00   8.33661670e-01   1.77150798e+00
C     9.468927892899591e-01   4.396293393295560e+00   4.419206398431963e+00 -2.37206901e+00  -1.42073915e+00   2.01699021e+00
C     2.672411483989000e+00   6.195363292264871e+00   4.484025118766242e+00 -2.24005391e+00   1.40479537e+00   2.04814960e-01
C     8.083592287966962e-01   6.227194382251874e+00   6.183058470541199e+00 -4.69878000e-03  -2.75503660e-01   2.03532530e-01
C     2.732766754675955e+00   4.403223110170893e+00   6.171630188410798e+00 -2.23230263e+00   4.39694000e-03  -2.47322330e-01
C     3.519096342015236e+00   3.591748970582112e+00   3.555750354581456e+00  1.39301170e-01  -6.89708290e-01  -1.29018780e-01
C     5.314348804784929e+00   5.354705594693907e+00   3.529799280701491e+00  2.58478680e-01  -5.47084200e-01  -9.89915680e-01
C     3.547331920756816e+00   5.383323393319765e+00   5.322682719464617e+00  1.59953243e+00  -3.44834132e+00   6.54738800e-01
C     5.424185592077026e+00   3.566171231058150e+00   5.166429496316896e+00 -4.10631089e+00   5.36232170e-01   6.19052641e+00
C     4.415730024349652e+00   4.467958093286708e+00   4.408943115684754e+00  1.69148328e+00  -1.15524870e-01  -7.34959260e-01
C     6.239976463470254e+00   6.171536001811083e+00   4.372392672836107e+00 -1.75439449e+00   2.97316540e-01   3.34690916e+00
C     4.490102677937890e+00   6.170898305217843e+00   6.208046708577284e+00 -1.70887854e+00   2.22249062e+00   1.50509725e+00
C     6.218455500735525e+00   4.377301322992122e+00   6.200259929186658e+00  9.15768590e-01   2.60768424e+00  -4.08035170e-01
