64
Lattice="7.10842262195238 0 0 0 7.10842262195238 0 0 0 7.10842262195238 " PBC="1 1 1" Properties=species:S:1:pos:R:3:force:R:3 Energy="-513.72611332"
C     7.086809745360794e+00   7.091489575392671e+00   7.101183189151113e+00  6.32317080e-01   3.71300260e-01   6.61040260e-01
C     1.750406988313089e+00   1.764857913909966e+00   4.406667567435640e-02  3.35913910e-01  -2.59272810e-01  -1.34995906e+00
C     7.098954769743969e+00   1.793256062276866e+00   1.794856097124402e+00  8.28395790e-01  -7.97490470e-01   1.15808890e-01
C     1.798561860004660e+00   7.093843956048642e+00   1.736823005938948e+00 -1.75346780e-01  -5.95862130e-01   2.01719821e+00
C     8.745540686659816e-01   8.384983720316866e-01   9.225215623372891e-01 -2.18688050e-01   1.59914517e+00  -9.88861450e-01
C     2.671928395587745e+00   2.663901067175658e+00   8.612615316192602e-01 -4.33989580e-01  -2.34968160e-01   6.40442380e-01
C     9.254953709403662e-01   2.661152737738087e+00   2.658090002768033e+00 -8.76857550e-01   7.45199200e-02   1.37892340e-01
C     2.660396188318640e+00   8.602957102378808e-01   2.662528715104640e+00  5.84057100e-01   1.15003962e+00  -9.74495100e-01
C     3.545791241238157e+00   4.144501832787420e-02   4.705917942892400e-03  7.85001860e-01  -7.01608270e-01  -6.40369040e-01
C     5.366429587205300e+00   1.754313066542780e+00   4.787963356772440e-02 -4.65398550e-01   1.88553361e+00  -1.66541665e+00
C     3.550023738234558e+00   1.802332878204570e+00   1.755799793133753e+00  3.77493750e-01  -9.27525710e-01   8.45884250e-01
C     5.312515969096588e+00   7.105621546066589e+00   1.755042106366687e+00  1.10308640e-01   1.31589840e-01   1.32276530e+00
C     4.461759548762068e+00   9.104475510960881e-01   8.754854852818801e-01 -8.25354060e-01  -5.78294130e-01   8.22199820e-01
C     6.249787224033472e+00   2.679862888000415e+00   9.232869972850107e-01 -1.07720195e+00  -9.69513600e-02  -6.24498040e-01
C     4.427637343080414e+00   2.656482859497878e+00   2.692233178296418e+00  1.53698650e-01   9.27998710e-01  -6.74282160e-01
C     6.198162233671496e+00   9.141307091924149e-01   2.672363573220541e+00  8.41161190e-01  -1.49372498e+00  -8.33398800e-01
C     7.106021608091642e+00   3.563858790095638e+00   7.096605364983834e+00 -3.68378960e-01   5.68611000e-03   1.05751596e+00
C     1.803301969460355e+00   5.326019413042444e+00   7.094839348468120e+00 -6.37994310e-01  -5.86287700e-02   1.07565740e-01
C     4.415752131543999e-04   5.356293545222989e+00   1.773065511919697e+00  7.70675910e-01  -3.64582330e-01   5.26143860e-01
C     1.796724830346974e+00   3.523467808673857e+00   1.768804367980138e+00 -8.18422520e-01   1.89938578e+00  -1.01278200e-01
C     8.600668901137429e-01   4.457883894581192e+00   8.916800358632166e-01  1.67395139e+00  -5.30206060e-01  -5.48516610e-01
C     2.705179250824640e+00   6.238833642365636e+00   8.516390731712448e-01 -1.52951241e+00  -5.33212230e-01   5.52048560e-01
C     9.343823208998903e-01   6.200701717652491e+00   2.686683348420078e+00 -1.44526681e+00   9.67982250e-01  -9.78271840e-01
C     2.632655426875638e+00   4.486639099016295e+00   2.654705824927104e+00  9.20565960e-01  -1.78845543e+00   4.04456880e-01
C     3.549146558883250e+00   3.529417558406797e+00   7.070612067073506e+00  7.93434810e-01   1.66001780e-01   8.49812490e-01
C     5.289427954595280e+00   5.340587201107194e+00   1.748778590859300e-02  7.83364350e-01  -1.24396636e+00  -3.18965000e-03
C     3.534127883571714e+00   5.337568609441611e+00   1.744219817264642e+00 -3.23297810e-01  -4.43847230e-01   8.89794460e-01
C     5.337177788365963e+00   3.559936433578148e+00   1.817949371858449e+00  2.91017000e-02   1.83711140e-01  -7.87810090e-01
C     4.395551558310936e+00   4.410501708428415e+00   9.064487079512072e-01  1.46915442e+00   6.31472190e-01  -6.89435550e-01
C     6.205207106993273e+00   6.205200425076010e+00   9.234384777710430e-01 -2.70482800e-01   7.94438610e-01  -1.80959418e+00
C     4.388734794271034e+00   6.188005079674005e+00   2.649503099327299e+00  1.69527262e+00   1.42738469e+00  -1.80027940e-01
C     6.269949411784387e+00   4.507609301166426e+00   2.662918896422252e+00 -2.06061983e+00  -2.19852341e+00   6.60830050e-01
C     1.654819460668140e-02   7.106958853614089e+00   3.551181415942451e+00 -9.13981240e-01   1.52696730e-01  -7.78578200e-02
C     1.775147639989321e+00   1.759223422720223e+00   3.518177151886244e+00  6.36569770e-01   1.45346400e-02   1.61201634e+00
C     7.097097978671399e+00   1.807709049316303e+00   5.346052654007034e+00 -5.31531200e-02  -1.47175845e+00  -8.10229120e-01
C     1.784924137955512e+00   7.088800601283978e+00   5.342084305995193e+00 -1.15887430e-01   1.79824055e+00   5.33599700e-02
C     8.863279623041662e-01   8.772539186612838e-01   4.439693512180839e+00  1.14935710e-01   5.54344580e-01   4.84933280e-01
C     2.673493528080216e+00   2.666606319572151e+00   4.452404509173017e+00 -6.73306060e-01  -3.61767700e-01  -3.31694660e-01
C     8.563469814724707e-01   2.646277794731927e+00   6.253673469764053e+00  9.56207570e-01   7.00437430e-01  -7.25422590e-01
C     2.674101866888036e+00   9.011730499353217e-01   6.231595277780142e+00 -9.27636010e-01   1.24955260e-01   2.21589700e-02
C     3.564267737648966e+00   7.103182006507631e+00   3.540142177782044e+00 -7.57891220e-01   7.49479800e-02   6.66809640e-01
C     5.325360746602476e+00   1.758793505320166e+00   3.521715795750706e+00 -5.26030000e-04   6.28245760e-01   1.99262446e+00
C     3.566452013751640e+00   1.777733470885798e+00   5.350311167830223e+00  3.85861100e-01  -1.45808470e-01  -6.56620550e-01
C     5.323757299712082e+00   7.064763683447127e+00   5.340324900312516e+00  2.05989800e-01   1.65431801e+00   8.32271600e-02
C     4.467402641143182e+00   8.604713593608210e-01   4.458602200686943e+00 -7.89749800e-01   5.93687880e-01  -7.83215060e-01
C     6.235073997641918e+00   2.674254413637461e+00   4.399325562048347e+00  1.07888000e-03   1.56865030e-01   7.29106300e-01
C     4.495138142353445e+00   2.666111360105120e+00   6.211318928761949e+00 -8.72021020e-01  -2.71654590e-01   1.36241970e-01
C     6.207534902148645e+00   9.134679198673262e-01   6.230813564544620e+00  5.46945920e-01  -1.68277736e+00  -2.31249760e-01
C     4.924942660659840e-02   3.578826071511631e+00   3.564451632542145e+00 -1.02527636e+00  -4.90772970e-01  -1.36735813e+00
C     1.767971331933300e+00   5.317681446561863e+00   3.591011045229930e+00  9.98981540e-01   1.08309793e+00  -9.74837860e-01
C     7.100354204905169e+00   5.338255709572060e+00   5.301357309436165e+00  3.30866080e-01  -3.41382140e-01   1.14478917e+00
C     1.742956224059711e+00   3.531013399284987e+00   5.333998972854526e+00  1.30231021e+00   1.02711920e-01   3.48145390e-01
C     8.993908262160354e-01   4.441753106550757e+00   4.440872515156592e+00 -3.07320200e-01  -1.29425520e-01   9.79220750e-01
C     2.677695103438220e+00   6.257297343615728e+00   4.472162014424176e+00 -2.01410530e-01  -1.85155384e+00  -8.86076350e-01
C     9.019677005000115e-01   6.232391918703166e+00   6.227140073903056e+00 -6.65035740e-01  -9.71005210e-01  -6.72319850e-01
C     2.683701578383667e+00   4.403184156014935e+00   6.199961162183939e+00 -1.03375538e+00   1.18566472e+00   5.12800900e-02
C     3.542185209527258e+00   3.586857309556159e+00   3.580190817570445e+00 -2.35224580e-01  -9.45946170e-01  -1.12061634e+00
C     5.292300965765606e+00   5.348579342827312e+00   3.538199872385355e+00  1.29447628e+00  -5.23708610e-01  -1.82615470e-01
C     3.567452524235405e+00   5.344957103912839e+00   5.336472135252476e+00 -8.22849960e-01  -7.23323430e-01  -1.23665670e-01
C     5.360611201122377e+00   3.566404245151634e+00   5.279817722634172e+00 -7.21060220e-01  -4.33630610e-01   1.23742518e+00
C     4.430931457206748e+00   4.448198171171859e+00   4.425047886888400e+00  7.40732660e-01   5.38212720e-01   6.05620230e-01
C     6.198212419135194e+00   6.208334031019586e+00   4.421119914717041e+00  4.32241300e-01   4.85274610e-01   5.78211280e-01
C     4.401461216540300e+00   6.221916307372298e+00   6.237507281788970e+00  1.56664067e+00   8.67559100e-02  -9.86085600e-02
C     6.225217885342383e+00   4.431905240021462e+00   6.214068111210234e+00 -6.36378850e-01   1.03752652e+00  -4.61342210e-01
