64
Lattice="7.10842262195238 0 0 0 7.10842262195238 0 0 0 7.10842262195238 " PBC="1 1 1" Properties=species:S:1:pos:R:3:force:R:3 Energy="-511.69206007"
C     5.064772442017860e-02   7.087292407256692e+00   7.101369358739531e+00 -7.36416060e-01   1.39139130e-01   4.77076000e-03
C     1.811498478330798e+00   1.779611160720871e+00   7.101482098322284e+00 -8.81451220e-01   7.77156990e-01   1.68667127e+00
C     7.079332466691043e+00   1.783444519787159e+00   1.793832271014443e+00  9.20369410e-01  -3.23007200e-01  -1.51034094e+00
C     1.762141145868828e+00   7.085386212646913e+00   1.854928665843760e+00 -9.94731900e-02   1.20331238e+00  -2.73645842e+00
C     8.924066588234330e-01   8.752147254642844e-01   8.994753453609872e-01  2.05893520e-01   7.47999460e-01   9.56025000e-03
C     2.706341549007236e+00   2.718288532736218e+00   9.372512091850959e-01 -1.45139687e+00  -1.34848442e+00  -1.27861454e+00
C     8.799727481449814e-01   2.630214749969061e+00   2.680709358966004e+00 -7.21708190e-01   2.30915322e+00  -1.43883929e+00
C     2.636039462548115e+00   9.324774058061827e-01   2.652777736375655e+00  7.05955750e-01  -1.83476879e+00   1.71203924e+00
C     3.489340911433273e+00   7.088461174103873e+00   8.267166591286200e-03  1.36346514e+00   5.08058820e-01   7.95994780e-01
C     5.336599731438505e+00   1.804723156394771e+00   7.081003443596327e+00 -1.53749620e+00  -2.44814398e+00  -1.70450200e-02
C     3.550813199650735e+00   1.797633926515846e+00   1.817553077297383e+00  7.59050690e-01  -3.27649600e-02  -1.01859534e+00
C     5.365199759007814e+00   1.703533480883000e-02   1.774158645150200e+00 -1.32064545e+00   2.95068340e-01  -8.25841840e-01
C     4.417035841584946e+00   8.939438552150080e-01   8.664161331979270e-01  6.67479200e-01   3.78634330e-01   7.96843690e-01
C     6.181260537207922e+00   2.648673901828677e+00   8.229984565087766e-01  2.41013482e+00   1.02374058e+00   2.48374707e+00
C     4.487827627278359e+00   2.644413824152511e+00   2.728881077619185e+00 -8.23353400e-01   5.58961400e-01  -2.66756044e+00
C     6.215145605910974e+00   9.268615386837040e-01   2.671351404923680e+00  5.76757600e-02  -1.59502208e+00   4.86164920e-01
C     7.089259734301003e+00   3.534187025647912e+00   7.090635356246427e+00  1.64125697e+00   1.76203182e+00  -7.72113800e-02
C     1.795580089968249e+00   5.370680992605869e+00   4.815074880645120e-02 -3.18017370e-01  -1.39555473e+00  -2.30281874e+00
C     7.063194570237988e+00   5.350190537898362e+00   1.763405378831795e+00  1.35733561e+00  -6.79533150e-01   2.28798590e-01
C     1.766508276389652e+00   3.613743069926428e+00   1.743231391099331e+00  2.64731200e-01  -1.75117801e+00   1.63825776e+00
C     8.644707711795115e-01   4.489797655523266e+00   8.561008167971402e-01 -2.61838800e-02  -1.20066139e+00   1.37906195e+00
C     2.672061323090739e+00   6.188671494294629e+00   9.605626414093502e-01 -4.90135610e-01   1.23280422e+00  -9.38574530e-01
C     8.156659053235680e-01   6.220358496555124e+00   2.652625473963135e+00  1.81616450e+00  -1.32551170e-01   9.82194630e-01
C     2.699408988762855e+00   4.441159908683118e+00   2.681820263253058e+00 -8.05770090e-01   2.26986450e-01  -1.47196593e+00
C     3.533832031022270e+00   3.578927793039323e+00   2.428613913390860e-02  9.43133300e-01  -9.24973510e-01  -3.42986310e-01
C     5.352739262828763e+00   5.321330910734972e+00   7.088979804618228e+00 -9.77225380e-01   1.93418357e+00   1.31732207e+00
C     3.581731283836425e+00   5.328016097872176e+00   1.801233276309482e+00  8.85886400e-02  -2.51852070e-01  -7.44976300e-01
C     5.394276832819149e+00   3.575587616334412e+00   1.763258803157371e+00 -3.04752991e+00  -1.74060803e+00  -9.71792900e-02
C     4.454838148741200e+00   4.440743710538717e+00   8.883869880002754e-01  4.36093600e-01   4.93521030e-01   1.00983980e-01
C     6.264449483034841e+00   6.240977826964732e+00   8.836262641189828e-01 -1.88702976e+00  -5.97721900e-01  -4.08793690e-01
C     4.451171695438031e+00   6.232066068610265e+00   2.630560503645298e+00  3.57224870e-01   2.29030210e-01   1.34272941e+00
C     6.198908475878144e+00   4.430577742097176e+00   2.655984985577573e+00  1.92173380e+00   8.08148400e-01  -2.23293100e-01
C     2.003779035506560e-02   2.728432962657220e-02   3.588486204599532e+00 -1.29408718e+00  -2.66086170e-01  -7.43793790e-01
C     1.767739952777019e+00   1.806903238528099e+00   3.555110454377203e+00  3.92587050e-01  -7.19028190e-01  -1.09622379e+00
C     4.389593136302400e-03   1.716099110632600e+00   5.380956288587305e+00  1.40929433e+00   2.25405342e+00  -1.93604281e+00
C     1.775111529202411e+00   7.090519488957720e+00   5.265598176193576e+00 -3.93195100e-02   6.64949500e-02   2.52207381e+00
C     9.332112082732451e-01   8.940683947793104e-01   4.437358253181716e+00 -1.54512345e+00   2.31681700e-01   3.46259030e-01
C     2.679511376501856e+00   2.684032404372402e+00   4.337513349061196e+00 -3.40823280e-01  -8.03642450e-01   4.58666247e+00
C     9.790495872014104e-01   2.729155533816543e+00   6.228143001250513e+00 -3.57386634e+00  -3.56194767e+00   3.27129850e-01
C     2.606147621336074e+00   8.573712340877865e-01   6.235824433817911e+00  1.54374642e+00   3.22321630e-01  -1.36025130e+00
C     3.527313252058598e+00   7.081421774267513e+00   3.578909737645868e+00  5.35641180e-01   6.80172360e-01  -1.37900498e+00
C     5.317872378793437e+00   1.740212230759938e+00   3.570814026208176e+00  3.75628600e-01   1.07411747e+00   1.02439505e+00
C     3.498857809805382e+00   1.718218771173658e+00   5.322407836761902e+00  1.44218781e+00   1.98573411e+00   2.75845000e-02
C     5.323239735461120e+00   1.144946522980780e-02   5.327782586189110e+00 -8.99819720e-01  -1.13426654e+00   1.49973175e+00
C     4.423666862541786e+00   8.440559500886812e-01   4.464544770913037e+00 -1.73619950e-01   9.25648560e-01  -5.14389480e-01
C     6.219784846849691e+00   2.660428602725788e+00   4.460197117470193e+00 -6.34427800e-01  -1.29977334e+00   1.49999765e+00
C     4.406243692194809e+00   2.675628827151038e+00   6.233759010541444e+00  4.16396800e-02  -4.93188020e-01  -5.08645990e-01
C     6.246368357090157e+00   8.057911689567687e-01   6.204817210012567e+00 -5.80425640e-01   3.12827893e+00   1.17658664e+00
C     7.083520464961842e+00   3.513664796291294e+00   3.556396936702971e+00  2.32705850e-01   8.15068940e-01   1.40709600e-02
C     1.755875284581977e+00   5.326009603419229e+00   3.471489245370762e+00 -5.73661460e-01  -6.45128280e-01   2.99426888e+00
C     1.885445124151420e-02   5.319884915405611e+00   5.328403222568062e+00 -4.72401980e-01   6.52381010e-01   1.24435010e-01
C     1.780349796915315e+00   3.550907244081998e+00   5.320918551138785e+00  6.00849880e-01   8.15348610e-01  -1.34803881e+00
C     8.484055228056330e-01   4.411400426300262e+00   4.415420807965682e+00  1.23769597e+00   8.46968620e-01   8.66503300e-02
C     2.606541072528092e+00   6.193797306761685e+00   4.423194152437556e+00  2.14426856e+00  -5.55468150e-01  -6.98236180e-01
C     9.450477271147120e-01   6.220466971084306e+00   6.201034107494203e+00 -1.22864056e+00  -2.77223400e-01   3.30984290e-01
C     2.655756876295697e+00   4.421860114764461e+00   6.215747049548852e+00  9.29067980e-01   9.50407630e-01   1.29923360e-01
C     3.600131009282938e+00   3.543376936579501e+00   3.549291926125829e+00 -9.79683400e-02   8.75960960e-01  -3.62895900e-01
C     5.364589785262790e+00   5.361604532099295e+00   3.506492255699261e+00 -6.67663150e-01  -2.07503470e-01   1.59647109e+00
C     3.577615222802540e+00   5.267551570729552e+00   5.298366085197669e+00 -1.41790442e+00   2.53767203e+00   6.29855320e-01
C     5.309194345374714e+00   3.569701558068147e+00   5.415574164578253e+00  1.08907998e+00   4.94345400e-02  -3.99348714e+00
C     4.504539173436847e+00   4.474132113753310e+00   4.382110952821040e+00 -1.62897449e+00  -1.32090452e+00   2.53720995e+00
C     6.204258132573504e+00   6.262058209665473e+00   4.506074024048958e+00  1.38165966e+00  -1.52889745e+00  -2.85726818e+00
C     4.394439943181621e+00   6.244491235928893e+00   6.247892118562980e+00  1.34632771e+00  -1.83817522e+00  -1.47393002e+00
C     6.232158975693908e+00   4.483705026495664e+00   6.222014048183323e+00 -3.02565740e-01  -1.92631804e+00  -1.27727800e-02
