64
Lattice="7.10842262195238 0 0 0 7.10842262195238 0 0 0 7.10842262195238 " PBC="1 1 1" Properties=species:S:1:pos:R:3:force:R:3 Energy="-514.44461974"
C     1.772762408779180e-02   7.108053479613343e+00   7.100703939298072e+00 -4.69946430e-01   2.79518880e-01  -4.12948810e-01
C     1.779377009279769e+00   1.778025484887028e+00   3.126426436728400e-03  1.38288980e-01  -6.04091600e-02  -1.67392380e-01
C     9.008930491683199e-03   1.793236727367340e+00   1.753198323707511e+00 -7.18544650e-01  -6.31494890e-01   7.72982000e-01
C     1.748085732906528e+00   7.081016380925495e+00   1.797994678963811e+00  1.23618224e+00   1.58688350e+00  -4.03295950e-01
C     8.761066192504158e-01   8.924297611969479e-01   8.912796895012582e-01  7.47250500e-01  -4.53382370e-01  -9.56722300e-02
C     2.677196163254522e+00   2.669061426576646e+00   8.886053587431617e-01 -3.13237350e-01   4.69719090e-01  -4.34879470e-01
C     8.906633892601042e-01   2.651742678957957e+00   2.663949049028342e+00  5.96927400e-02   5.98595590e-01  -3.28934240e-01
C     2.670386791974145e+00   9.200265770818954e-01   2.667904601879468e+00 -4.83713010e-01  -1.57483676e+00   9.17920900e-02
C     3.556355281346418e+00   7.108336892423202e+00   7.080170549717941e+00 -5.16577600e-02   1.34015690e-01   1.06432344e+00
C     5.313695469661925e+00   1.794907704272623e+00   7.099604337402985e+00  5.09178380e-01  -1.28073197e+00   1.07706690e-01
C     3.565626654801232e+00   1.800517173814744e+00   1.767688061291893e+00 -7.59450530e-01  -1.12150059e+00   5.50170060e-01
C     5.347719934532555e+00   7.092094502157633e+00   1.763000625247813e+00  1.96394310e-01   8.39009380e-01   4.63661620e-01
C     4.441959890564774e+00   8.828063786539919e-01   9.030097952561037e-01  2.31630430e-01   1.99785930e-01  -9.69876090e-01
C     6.207534973232871e+00   2.668080393170860e+00   8.638647070669303e-01  2.36670070e-01   5.79769100e-02   4.85310910e-01
C     4.419783246927575e+00   2.659705889398012e+00   2.669420117582052e+00  1.23633625e+00   7.38644100e-02   4.26608500e-02
C     6.233906439226582e+00   8.988343078091156e-01   2.661523797398851e+00 -6.69783000e-01  -1.87263760e-01   1.76482170e-01
C     2.119731625284000e-03   3.559436427131057e+00   7.104506376725964e+00 -4.36773400e-01  -4.38466100e-02  -5.81418540e-01
C     1.743655763929745e+00   5.333028388829991e+00   2.472401796730060e-02  1.45803800e+00  -3.25401920e-01  -7.37018610e-01
C     7.098122515623619e+00   5.331620494645874e+00   1.759499016265201e+00  1.57851790e-01  -4.48080830e-01   8.30893020e-01
C     1.767292690825769e+00   3.559459387336120e+00   1.740096576723911e+00  7.23886860e-01  -5.90271490e-01   1.85396304e+00
C     8.723387998406847e-01   4.417420265080235e+00   8.810778946097128e-01  3.03148300e-01   1.14317735e+00   3.91850560e-01
C     2.678617634525843e+00   6.221083626746592e+00   8.999271567027145e-01 -1.06830573e+00  -4.56995000e-03  -1.90639430e-01
C     8.656649150954453e-01   6.217675848942563e+00   2.691887495704407e+00  6.22285550e-01  -1.21552670e-01  -8.97801280e-01
C     2.679028288100601e+00   4.430629349245399e+00   2.675991356704658e+00 -8.19224310e-01   7.01636840e-01  -6.46216080e-01
C     3.575967277186546e+00   3.582075260407007e+00   1.067948089160940e-02 -1.61635709e+00  -5.28691240e-01  -5.66320810e-01
C     5.327142543816405e+00   5.322602323204785e+00   3.641858160904600e-02  7.42710270e-01   4.78522970e-01  -1.91613508e+00
C     3.561883928123350e+00   5.343027735845319e+00   1.781311068906218e+00  1.12930260e-01  -4.83243450e-01   3.31313810e-01
C     5.323174266888790e+00   3.531111708769822e+00   1.770529653234238e+00  1.11931750e-01   7.89750070e-01   3.50329870e-01
C     4.445026250830362e+00   4.449926939553043e+00   8.862222600598068e-01  1.76561210e-01  -2.41127170e-01   8.88301180e-01
C     6.248098973661222e+00   6.221332848043648e+00   8.495609969025140e-01 -1.02841187e+00  -7.75111400e-02   1.55935031e+00
C     4.475163616959698e+00   6.221388720245441e+00   2.669840651864251e+00 -8.82700410e-01  -2.00191130e-01   3.28771800e-02
C     6.216309254693869e+00   4.426801534748754e+00   2.660897758618707e+00 -2.12011140e-01   1.03136620e-01  -2.05860430e-01
C     4.665613186637000e-03   9.571562142056199e-03   3.568770994462962e+00 -2.00219800e-01   2.74936870e-01  -4.33791620e-01
C     1.780205353767677e+00   1.774867781390772e+00   3.567863391062841e+00 -5.92630600e-02   3.15546750e-01  -6.06504710e-01
C     8.905147521431199e-03   1.799969540936099e+00   5.317740730806514e+00 -3.69854010e-01  -6.02086950e-01   8.58812470e-01
C     1.758466517879645e+00   7.104025634104172e+00   5.304924244822654e+00  9.65110280e-01  -7.56272000e-03   1.64097608e+00
C     8.797728593009070e-01   9.055932803731164e-01   4.471083382375818e+00  5.32886190e-01  -5.50833110e-01  -1.42091213e+00
C     2.671006646426609e+00   2.677098564611949e+00   4.428220233735253e+00  6.36348500e-02  -6.30371150e-01   3.22350150e-01
C     8.931578058416884e-01   2.672429468298228e+00   6.219409451051129e+00  2.07897640e-01  -1.04172920e-01  -1.48988680e-01
C     2.656586215962772e+00   8.996706137303585e-01   6.212785183095776e+00  1.78545360e-01  -4.94306060e-01  -4.71537690e-01
C     3.554851565625384e+00   7.108225574524973e+00   3.567450747129750e+00  1.75735920e-01   1.96792780e-01  -1.06826531e+00
C     5.305311724939671e+00   1.777652648120609e+00   3.589758470080060e+00  8.92559090e-01  -3.23506830e-01  -1.86039973e+00
C     3.565514199555383e+00   1.790139800884484e+00   5.305109987905715e+00 -1.30890231e+00  -5.74139510e-01   1.13992154e+00
C     5.336275018693224e+00   7.097603529688134e+00   5.313666609466088e+00  4.68750370e-01   2.94433810e-01   6.37595240e-01
C     4.423664019172739e+00   8.825675356539600e-01   4.434970036434075e+00  8.72928690e-01  -3.15537600e-02   7.09373320e-01
C     6.211575258481627e+00   2.664481683135259e+00   4.442683385819037e+00 -2.99680640e-01  -6.12565600e-02   3.57650320e-01
C     4.398536953642884e+00   2.660073750268597e+00   6.233209102967560e+00  1.67245628e+00   3.96572050e-01  -5.09330990e-01
C     6.243905928410363e+00   8.881068450648212e-01   6.201831601427940e+00 -1.10397603e+00   3.80162250e-01   2.35329890e-01
C     7.101934833758952e+00   3.533225256067427e+00   3.548188414598300e+00 -7.41883700e-02   7.40043820e-01   7.46919200e-02
C     1.755351322750657e+00   5.336056434697658e+00   3.556267705579740e+00  9.09023150e-01  -8.27530470e-01   3.08566080e-01
C     4.774087715818200e-03   5.347713323699518e+00   5.339871738370491e+00 -2.67385860e-01  -9.75359520e-01  -4.25986300e-02
C     1.797288883681871e+00   3.534027157223188e+00   5.313282114886571e+00 -7.41378800e-01   1.39771241e+00   1.01262580e+00
C     8.687186934529973e-01   4.436249907926806e+00   4.456146169587507e+00  8.04240520e-01  -1.40136280e-01  -5.51550230e-01
C     2.686834757821885e+00   6.212292640492437e+00   4.447746146577453e+00 -1.27891860e+00   5.66466760e-01  -6.39151400e-01
C     8.891227097414454e-01   6.195307420063078e+00   6.232819632492211e+00  1.98193090e-01   1.31818978e+00  -4.89520940e-01
C     2.656039151757938e+00   4.473563866449068e+00   6.227446233665301e+00  3.12920510e-01  -9.57537250e-01  -1.82923120e-01
C     3.566937590100812e+00   3.534232377384228e+00   3.560383624445172e+00 -6.13778420e-01   1.14069796e+00  -3.08687060e-01
C     5.333418712316055e+00   5.315935475797938e+00   3.562316546724002e+00  6.96458350e-01   1.28859750e-01  -4.17002000e-03
C     3.556060850481498e+00   5.344843937824729e+00   5.325056648282792e+00  1.98119530e-01  -6.54060380e-01   7.52876500e-01
C     5.313051375488326e+00   3.528890966459107e+00   5.357237117241568e+00  7.05749540e-01   1.18130563e+00  -4.77155980e-01
C     4.450715547958506e+00   4.431611448914578e+00   4.466772621646371e+00 -3.38414010e-01  -5.93147000e-03  -6.63110000e-01
C     6.256520961697173e+00   6.222273718861631e+00   4.443070297262244e+00 -1.47782820e+00  -2.81085800e-02  -1.34844370e-01
C     4.469879855342025e+00   6.205400385004311e+00   6.220472302401271e+00 -8.45014190e-01   6.19013420e-01  -7.70858600e-02
C     6.218887408493916e+00   4.463593095292672e+00   6.214754500498421e+00 -3.50742660e-01  -1.05136026e+00   6.07950060e-01
