64
Lattice="7.10842262195238 0 0 0 7.10842262195238 0 0 0 7.10842262195238 " PBC="1 1 1" Properties=species:S:1:pos:R:3:force:R:3 Energy="-506.28750626"
C     7.092498189478223e+00   1.706803355288200e-02   6.328571791205040e-02  1.70299479e+00  -1.03039190e+00  -1.52938437e+00
C     1.821912815058682e+00   1.779768612281904e+00   8.170747946868520e-02 -1.46877865e+00  -2.57605140e-01  -3.95752055e+00
C     7.580947905241880e-02   1.759630664252123e+00   1.756792200015731e+00 -4.05451928e+00   3.51663150e-01   2.28987840e+00
C     1.780940293582359e+00   7.094161062781720e+00   1.753263010353353e+00  1.36200322e+00   2.82097320e-01   1.89194557e+00
C     9.251482666638315e-01   9.153037410931675e-01   9.517847346528170e-01 -2.04625710e-01  -1.93796244e+00  -2.86875844e+00
C     2.690133421338696e+00   2.670776262449495e+00   9.169465686448756e-01 -1.10127960e-01  -7.34120570e-01  -2.24212751e+00
C     9.069134566221028e-01   2.642295727464429e+00   2.614542241944937e+00 -3.43991020e-01   1.72210990e+00   1.77718513e+00
C     2.665575527208024e+00   8.687521741235376e-01   2.669890410822591e+00  2.77190550e-01   1.45890912e+00  -7.13404390e-01
C     3.542043609748667e+00   1.475886246477500e-02   1.967817525471980e-02  7.49302370e-01  -1.20800409e+00  -2.29748509e+00
C     5.344039406552597e+00   1.698935610963932e+00   2.916990981075340e-02 -7.87915090e-01   1.71019738e+00  -1.79037412e+00
C     3.609754605078572e+00   1.797043998522612e+00   1.661716052294064e+00 -2.14901342e+00  -1.79626274e+00   4.13484021e+00
C     5.305112973443215e+00   7.086479559130095e+00   1.726866309459340e+00  2.06521485e+00  -1.61512597e+00   4.42854120e+00
C     4.490056615359312e+00   8.298996686094036e-01   8.929141291142747e-01 -1.81274871e+00   2.09291830e+00  -1.97840703e+00
C     6.163669465918661e+00   2.603630031296749e+00   8.728710785264704e-01  1.21957347e+00   5.72141830e-01   1.80413902e+00
C     4.335062222773368e+00   2.692770717214942e+00   2.579241886298243e+00  3.17091203e+00  -1.18338552e+00   3.48260429e+00
C     6.219588156795795e+00   8.233366041728100e-01   2.734661717977995e+00 -4.54386210e-01   2.41601534e+00  -3.91266846e+00
C     7.033623318886109e+00   3.457806029416846e+00   7.106067670670220e+00  2.71884334e+00   1.27774317e+00   1.84371547e+00
C     1.752167104838028e+00   5.375817112285724e+00   8.404458665768880e-02  1.19775828e+00  -1.58753856e+00  -2.40590843e+00
C     1.242559382398620e-02   5.227796579879583e+00   1.821574240889291e+00  1.40093830e-01   2.94086019e+00  -1.10279131e+00
C     1.835986496667115e+00   3.498986543339029e+00   1.752569157221415e+00 -2.01720100e+00   2.93420690e+00   1.79831475e+00
C     8.526003451621474e-01   4.431161201425826e+00   9.085379444434515e-01  1.67459440e+00  -1.89559314e+00  -6.47919820e-01
C     2.765316221852935e+00   6.208860338630370e+00   9.438283482984772e-01 -4.99943573e+00   1.93974896e+00  -2.44396707e+00
C     9.447288432759787e-01   6.197755205392276e+00   2.640443343613883e+00 -2.32439877e+00   2.23085810e-01   5.04280650e-01
C     2.720814581798461e+00   4.481395286733747e+00   2.642504430752552e+00 -1.76645238e+00  -2.09978663e+00   1.75420735e+00
C     3.483963887310826e+00   3.591272350845442e+00   5.049638610259879e-02  2.05360865e+00   2.33671000e-01  -1.91240388e+00
C     5.368555076652906e+00   5.457505541181788e+00   7.076872028369582e+00 -6.87869410e-01  -4.38667790e+00   9.23651350e-01
C     3.550949041607003e+00   5.373681955383354e+00   1.798885293233870e+00  6.64198650e-01  -1.42589076e+00  -3.91565030e-01
C     5.203290292897132e+00   3.591677744187460e+00   1.783426393309478e+00  4.12825955e+00  -7.74003140e-01  -1.84955406e+00
C     4.409693907281879e+00   4.562987894092894e+00   8.637437217139380e-01  5.35447880e-01  -2.13966898e+00   4.32257900e-01
C     6.272164893862363e+00   6.170713059724366e+00   9.639805842577247e-01 -1.60027318e+00   2.09777577e+00  -2.34298536e+00
C     4.377533270822212e+00   6.198621153435844e+00   2.666327811573899e+00  2.42994332e+00   5.88978720e-01   3.73395000e-03
C     6.246492825570233e+00   4.395077355437956e+00   2.636197269530279e+00 -3.29172830e+00   1.51389420e-01   1.54030894e+00
C     8.206034156754201e-03   7.097230550753262e+00   3.525494277794367e+00  6.74896380e-01  -1.84780200e-02   7.49561710e-01
C     1.793215259931027e+00   1.881697492661930e+00   3.536007634849347e+00  2.99074780e-01  -3.60597742e+00   5.00858330e-01
C     1.778107942589420e-02   1.779235978174988e+00   5.356390930612883e+00 -8.66634080e-01   3.44331170e-01  -9.65153380e-01
C     1.737975992087912e+00   6.298204609772399e-03   5.307590045473606e+00  1.58946677e+00   1.49833400e-01   1.92422320e-01
C     9.429799580587802e-01   9.830792098162360e-01   4.430237675159035e+00 -2.66677217e+00  -2.77663636e+00  -3.15872210e-01
C     2.631632524860620e+00   2.669149713185587e+00   4.498477394963417e+00  2.59139816e+00   2.45987970e+00  -2.01397141e+00
C     8.807610722135394e-01   2.613544859167125e+00   6.251666904226878e+00 -1.60849030e-01   2.30019582e+00  -2.15691740e-01
C     2.614621003267567e+00   8.425120006956172e-01   6.161502747619858e+00  2.50486347e+00   2.10020957e+00   3.69187079e+00
C     3.547477714504752e+00   7.088973122700965e+00   3.557346906301908e+00 -5.22635090e-01   3.59032490e-01  -6.30039790e-01
C     5.229731990106330e+00   1.687543581788893e+00   3.543193468191678e+00  4.63243194e+00   5.16821069e+00  -2.67397734e+00
C     3.573403126979060e+00   1.773590682182862e+00   5.329665323004243e+00 -1.70663502e+00  -2.94406410e-01   4.17316240e-01
C     5.336334871611684e+00   7.087564375506134e+00   5.283503937352225e+00 -1.47713700e-01   1.21105962e+00  -9.40989960e-01
C     4.462397956197570e+00   8.585334611861566e-01   4.334832691806968e+00 -2.60520906e+00  -1.38701140e-01   5.30982580e+00
C     6.154480976671596e+00   2.771084920061744e+00   4.459843757781752e+00  1.14099764e+00  -4.54289492e+00   1.91208190e-01
C     4.420552449339286e+00   2.696101439717769e+00   6.293040838328553e+00 -2.61796660e-01  -1.70767700e+00  -1.50721295e+00
C     6.212754687962738e+00   8.509130899690641e-01   6.210038630763862e+00  4.03009260e-01   4.09531480e-01   1.90916700e-01
C     7.065532814774611e+00   3.528117356825373e+00   3.526218128469762e+00  1.61486009e+00   8.92081160e-01   3.94415760e-01
C     1.772028464143665e+00   5.338305610698853e+00   3.514424046911336e+00  2.95246162e+00   1.25180149e+00  -4.18171000e-02
C     1.065527671258830e-01   5.308922590377952e+00   5.344221240003217e+00 -3.58770059e+00   1.25459670e-01  -3.28151400e-01
C     1.796559488436833e+00   3.717979486457358e+00   5.227468952681027e+00  1.01074052e+00  -6.74880841e+00   5.44582941e+00
C     9.989444982618140e-01   4.522197419319869e+00   4.421736783632004e+00 -5.28457607e+00  -1.14518514e+00  -1.56673795e+00
C     2.697648587901012e+00   6.229978467055224e+00   4.469666318326521e+00 -2.06389622e+00  -2.59178310e-01  -1.62794439e+00
C     9.124251142689722e-01   6.212281906774281e+00   6.212391589735307e+00 -1.09228385e+00   1.51066167e+00   1.74987496e+00
C     2.621835838974188e+00   4.445536493406027e+00   6.250817874229146e+00  6.70130160e-01   1.53591854e+00  -4.68930490e-01
C     3.617307019775417e+00   3.556772972259569e+00   3.632910149594770e+00 -2.99002644e+00  -4.14169910e-01  -3.03915259e+00
C     5.277312785587109e+00   5.289764538406337e+00   3.534814557196806e+00  2.48094137e+00   1.52736257e+00  -5.14313330e-01
C     3.530724655158163e+00   5.322790909656893e+00   5.323658563721891e+00  1.01908427e+00   7.69490240e-01   1.00546931e+00
C     5.291630712596766e+00   3.586494566749861e+00   5.394317137575405e+00  1.41375953e+00  -1.82650680e-01   6.78230000e-04
C     4.481768265668618e+00   4.451867396759851e+00   4.460779937040806e+00 -1.74177159e+00  -4.41350590e-01   9.62010920e-01
C     6.163635914163895e+00   6.234522241878154e+00   4.342746498709814e+00  2.89343155e+00  -1.74808370e+00   3.27876854e+00
C     4.425148186731568e+00   6.269958510565341e+00   6.125631301299873e+00  8.79961940e-01  -1.10369919e+00   2.92999381e+00
C     6.239175273156753e+00   4.359676415611189e+00   6.327211523452476e+00 -1.08240262e+00   4.08898033e+00  -4.38866965e+00
