64
Lattice="7.10842262195238 0 0 0 7.10842262195238 0 0 0 7.10842262195238 " PBC="1 1 1" Properties=species:S:1:pos:R:3:force:R:3 Energy="-502.83655101"
C     6.993710876475108e+00   7.078954014270754e+00   7.090998596642308e+00  2.00141756e+00   1.88894041e+00   8.03242240e-01
C     1.780737348116558e+00   1.857624321869717e+00   7.025089231025442e+00  7.29119090e-01  -3.37187035e+00   2.60309780e+00
C     1.117819360578336e-01   1.737812356199200e+00   1.743423958268106e+00 -3.04703545e+00   3.26534070e-01   7.44860610e-01
C     1.799979492727767e+00   2.910600509139960e-02   1.763393792102925e+00  7.45056550e-01   1.40090850e-01   5.54701700e-01
C     9.576947483033111e-01   8.660415904100791e-01   8.606593771391200e-01 -2.56920986e+00   1.88796834e+00  -9.38490150e-01
C     2.684279279889994e+00   2.670761050425088e+00   9.043984966991467e-01 -4.46095450e-01   1.09268552e+00  -1.89466570e-01
C     8.463612826285734e-01   2.646546990696546e+00   2.622456475353140e+00  3.15646698e+00   8.42617860e-01   5.34788020e-01
C     2.623479448452385e+00   9.460064400734715e-01   2.741997041448025e+00  6.84556420e-01  -2.55299628e+00  -9.33232850e-01
C     3.594340488216686e+00   3.873784665727340e-02   2.923310368784520e-02 -1.61091971e+00  -1.92287830e-01   2.36209810e-01
C     5.435509451479138e+00   1.949880345085351e+00   6.381657491331200e-03 -1.69920994e+00  -4.89790641e+00   8.68479630e-01
C     3.573909388838056e+00   1.901007238372255e+00   1.856567583763027e+00 -1.27142647e+00  -2.94790975e+00  -1.42234287e+00
C     5.237074493083207e+00   1.549749865921920e-02   1.806295539478316e+00  2.48146071e+00   2.39515350e+00  -1.64655049e+00
C     4.433486437549055e+00   1.120284774795631e+00   9.047296781090126e-01  1.11623168e+00  -5.62375548e+00  -8.15474100e-02
C     6.350229377822525e+00   2.705011776387713e+00   9.913725354027637e-01 -1.57913428e+00  -1.66676210e-01  -5.17987266e+00
C     4.519455985052239e+00   2.703377336774696e+00   2.661607321364636e+00 -1.10644771e+00  -8.59751400e-01   1.57445859e+00
C     6.255263055230337e+00   8.479263440368188e-01   2.636023966186803e+00 -7.17393880e-01   3.42545460e-01   5.20222030e-01
C     2.642485024758800e-02   3.563655986798289e+00   7.053441956571800e+00  1.25384463e+00  -3.31949130e-01   1.03755582e+00
C     1.775570875472116e+00   5.398777743853681e+00   7.099118476716908e+00  1.44661116e+00  -2.17420414e+00  -5.02014150e-01
C     8.154434116955621e-02   5.385657372802816e+00   1.695781959268569e+00 -2.07082184e+00  -3.07725470e-01   1.32075865e+00
C     1.820602661685589e+00   3.622316183027279e+00   1.698158802540018e+00 -1.03822193e+00  -2.63830113e+00   2.13052304e+00
C     9.898646257123831e-01   4.483893257526642e+00   8.353880106300794e-01 -3.09077907e+00   1.42291690e-01  -6.11302010e-01
C     2.670634875923583e+00   6.247065835517632e+00   8.963487056715802e-01  9.41072740e-01   3.57235940e-01  -1.65327610e-01
C     9.384422964793032e-01   6.241705160767211e+00   2.649115832462962e+00 -9.31129230e-01   9.48766200e-02  -1.26641010e-01
C     2.640487913423711e+00   4.407827946344129e+00   2.663222994741935e+00  1.90256559e+00   2.17431467e+00   2.52732120e-01
C     3.598947599085160e+00   3.518927872399142e+00   8.897257172322999e-02 -2.16267880e-01   4.41609030e-01  -1.59282678e+00
C     5.295532525772884e+00   5.254793587063855e+00   4.281068848162860e-02  1.45071391e+00   2.14654320e+00  -1.10927832e+00
C     3.523551688060773e+00   5.387799069453996e+00   1.804556890389690e+00 -7.76686000e-02  -1.94899572e+00  -2.38344350e-01
C     5.398711422270637e+00   3.571401039748137e+00   1.780430051006695e+00 -4.51747400e-01   1.23028552e+00   1.03285723e+00
C     4.425630635374787e+00   4.461879467851668e+00   9.802604359105012e-01  6.90912850e-01  -8.08549910e-01  -2.23582001e+00
C     6.164097179707706e+00   6.249610295394461e+00   8.613976579124332e-01  1.00124410e-01  -1.62915242e+00   1.33886620e+00
C     4.339028935848006e+00   6.295620484897351e+00   2.648781949852501e+00  5.16526040e-01  -1.74444840e+00   2.96613959e+00
C     6.257956649813734e+00   4.542101358076999e+00   2.564779160719818e+00 -3.00863050e-01  -1.13877279e+00   2.35826702e+00
C     7.101398858693404e+00   7.081232476973142e+00   3.514060380010096e+00 -9.52957190e-01  -9.90212390e-01   2.32834836e+00
C     1.676157452604630e+00   1.675523381306926e+00   3.623281435734850e+00  9.48196600e-02   1.08104073e+00  -3.04310600e+00
C     7.071886749417724e+00   1.614077820758515e+00   5.304529585198792e+00 -1.46734185e+00   4.87598538e+00  -1.29518360e-01
C     1.627007686083164e+00   1.823836425303880e-02   5.455994930290811e+00  5.63938864e+00  -8.93194190e-01  -2.18732632e+00
C     8.064784112556703e-01   7.976717153875262e-01   4.520626315752396e+00  1.46368731e+00  -2.30683710e-01  -3.70607379e+00
C     2.554387713112770e+00   2.494331422681212e+00   4.364187704942746e+00  4.92310732e+00   4.26659782e+00   3.52700950e+00
C     8.088657039083712e-01   2.612298894850291e+00   6.094539558349577e+00  1.27161962e+00  -5.08878320e-01   3.35865218e+00
C     2.669120568652845e+00   8.555100357931920e-01   6.256717367414162e+00  2.99905950e-01   2.06088972e+00  -1.27495651e+00
C     3.471202847023402e+00   7.094167460362078e+00   3.726005322100695e+00  1.96537079e+00   2.12142469e+00  -4.74302746e+00
C     5.386093332362100e+00   1.726168262358056e+00   3.585044519619607e+00  1.44906176e+00   2.81195744e+00  -3.95001485e+00
C     3.627485854461900e+00   1.744027747685449e+00   5.329096151605060e+00 -2.10094487e+00   3.24439240e-01  -3.34676690e-01
C     5.180627504236954e+00   9.590328377772999e-03   5.394829370509401e+00  2.71667102e+00  -2.01076747e+00  -2.83168811e+00
C     4.504997595611611e+00   8.999651867637314e-01   4.365760443447421e+00 -3.53072226e+00  -1.07340473e+00   5.13771867e+00
C     6.359359933425236e+00   2.690362099294381e+00   4.324426458680872e+00 -4.14393525e+00  -1.72112284e+00   3.13969419e+00
C     4.533122638381450e+00   2.716744085753571e+00   6.247593706981393e+00 -1.17464286e+00  -8.32803000e-03  -1.89500890e+00
C     6.117918947094078e+00   7.815832935559064e-01   6.143895824548155e+00  2.32301068e+00   5.03327386e+00   4.16777592e+00
C     3.534464111961640e-02   3.610261364527152e+00   3.418888908341096e+00  3.57319940e-01   3.98086980e-01   2.28976035e+00
C     1.832615469408032e+00   5.393042810652317e+00   3.536401654715173e+00 -4.17010860e-01  -1.13631829e+00   1.60748694e+00
C     7.013520557548297e+00   5.394803993440648e+00   5.352312473134658e+00  3.39307554e+00  -2.14736092e+00   5.14602090e-01
C     1.743439312460966e+00   3.386039607898004e+00   5.249506484487551e+00  7.59305550e-01   4.50161544e+00   7.49739590e-01
C     9.833767683871092e-01   4.537882509252030e+00   4.394297632560768e+00 -3.65465433e+00  -2.85823456e+00   5.24057720e-01
C     2.647515584362748e+00   6.234296904881099e+00   4.621225281344445e+00 -3.51735300e-01  -1.90956713e+00  -2.52624943e+00
C     8.505138098704988e-01   6.289042848194386e+00   6.293138721308031e+00 -2.23960131e+00  -3.74139832e+00  -7.52482410e-01
C     2.702796578646642e+00   4.232575899891482e+00   6.256481154530500e+00 -8.46902950e-01   4.50217266e+00  -1.92369983e+00
C     3.529462767974660e+00   3.474598682677429e+00   3.533395218452271e+00  4.63379630e-01   1.21414804e+00  -4.40739400e-02
C     5.243631799697479e+00   5.349146523868162e+00   3.522017335038246e+00  2.46342930e+00   1.08953362e+00  -4.38581910e-01
C     3.600566826673770e+00   5.172167628308439e+00   5.396465658312300e+00 -1.82506002e+00   2.57926322e+00  -1.26175757e+00
C     5.404054041627602e+00   3.578104708784154e+00   5.276690656439407e+00 -3.70609700e-01  -1.58492072e+00  -8.23857510e-01
C     4.499340783974842e+00   4.403054498386346e+00   4.346738091263623e+00 -3.22170681e+00  -9.15223370e-01   2.97051779e+00
C     6.064066105998768e+00   6.205171564880174e+00   4.587670114535188e+00  2.26031863e+00   2.42491440e-01  -5.82830213e+00
C     4.448217008491802e+00   6.151891804816487e+00   6.232046165026929e+00 -2.29667935e+00   2.21740460e-01   2.19436343e+00
C     6.230627963630012e+00   4.389918915311075e+00   6.194464716561477e+00 -2.25516120e-01   2.25628842e+00   1.28433729e+00
