64
Lattice="7.10842262195238 0 0 0 7.10842262195238 0 0 0 7.10842262195238 " PBC="1 1 1" Properties=species:S:1:pos:R:3:force:R:3 Energy="-510.35331467"
C     7.099287301754133e+00   7.096310863034686e+00   7.106644448081608e+00 -9.90863230e-01   6.42821540e-01   1.69365092e+00
C     1.740856680354667e+00   1.767686355270464e+00   4.328645520758519e-02  1.03410654e+00   4.88329280e-01  -2.21594380e+00
C     4.815245482788000e-04   1.770194206770800e+00   1.803470225823770e+00  2.33014530e-01   4.60740980e-01  -7.22444300e-02
C     1.802830609956423e+00   8.580555619334140e-02   1.698589004276980e+00 -3.61463800e-02  -4.77364348e+00   3.09868283e+00
C     8.530159746327387e-01   8.501180839832434e-01   9.229002990944828e-01  3.45785110e-01   2.75981700e+00  -2.04426856e+00
C     2.669132581887073e+00   2.691787338029691e+00   8.630381396846768e-01 -6.57627180e-01  -1.47009069e+00   1.20264647e+00
C     9.202763670527623e-01   2.685714825838104e+00   2.665464280394021e+00 -1.14468275e+00  -1.16565996e+00   1.45322607e+00
C     2.616914535825910e+00   8.467740687301167e-01   2.702934055540113e+00  1.54963269e+00   3.78169980e+00  -2.66306125e+00
C     3.592346646756002e+00   2.051618719739160e-02   7.092979216436919e+00 -5.69557690e-01  -6.35993900e-01  -6.10101580e-01
C     5.334575679181687e+00   1.738465335901073e+00   1.055192024769350e-01  2.76164480e-01   2.39684631e+00  -3.44443506e+00
C     3.543977740459343e+00   1.808281988179474e+00   1.789785232764199e+00  2.94551500e-02  -7.91397640e-01  -9.47517740e-01
C     5.296359093155138e+00   7.064067768872628e+00   1.817163393569355e+00  7.04123480e-01   3.64655180e-01  -4.62304300e-01
C     4.463664534940002e+00   8.831850443269593e-01   9.237828097627557e-01 -1.32800335e+00  -4.89243600e-01   6.79714720e-01
C     6.227041480081318e+00   2.734438868928858e+00   9.374592727151833e-01 -1.32935210e-01  -2.57298084e+00  -5.75204250e-01
C     4.424969765323806e+00   2.710479859403922e+00   2.625014512317174e+00  2.55454620e-01  -2.00353459e+00   1.37533714e+00
C     6.260502886796218e+00   8.208905248650418e-01   2.687854958636307e+00 -1.80852993e+00   1.57067078e+00  -1.38485855e+00
C     5.635486368909800e-03   3.561715458507255e+00   7.085186892476648e+00  3.80532100e-02  -2.59355790e-01   9.20253310e-01
C     1.784924280123964e+00   5.316393542551572e+00   6.592848727371400e-03 -6.03118670e-01  -1.70799580e-01   1.85218860e-01
C     2.244782996015040e-02   5.335680256972609e+00   1.753796070965627e+00 -1.37389800e-01   1.08610081e+00   8.10272600e-01
C     1.812044973861824e+00   3.507291526738654e+00   1.835039370437226e+00 -1.07795616e+00   2.66422672e+00  -3.25430002e+00
C     8.893642539420731e-01   4.482140533761227e+00   8.776272530172862e-01  4.02697760e-01  -2.54753194e+00   5.68512950e-01
C     2.672349356375301e+00   6.173515413173849e+00   8.200547165333821e-01  9.80155620e-01   2.97249802e+00   1.65238310e+00
C     9.781689958072449e-01   6.264381668683047e+00   2.664254569032550e+00 -1.84665296e+00  -1.63658651e+00  -9.54908890e-01
C     2.660389932906734e+00   4.457869037977916e+00   2.617037085031879e+00  7.92579490e-01  -1.34172889e+00   2.50944706e+00
C     3.529069245698417e+00   3.568813289577552e+00   7.077954641134608e+00  1.45932360e+00  -1.01105443e+00   8.43665560e-01
C     5.331775884764347e+00   5.325753202615326e+00   7.100914490776077e+00  1.98427350e-01  -1.10056087e+00   8.64413430e-01
C     3.566882997415091e+00   5.318441052603037e+00   1.744602676906955e+00 -1.36607093e+00  -3.87592900e-02   4.59365590e-01
C     5.319236342925763e+00   3.603751755428661e+00   1.816812450744606e+00  7.97938930e-01  -6.47233120e-01  -1.42497062e+00
C     4.466334813897205e+00   4.411896238778008e+00   9.043868388860500e-01 -1.12806187e+00   1.64832327e+00  -1.57818419e+00
C     6.178982145589760e+00   6.192898233468708e+00   9.149668729452056e-01  1.11152150e+00   7.67093940e-01  -1.08025136e+00
C     4.320092950999041e+00   6.216490377302226e+00   2.691390261542138e+00  3.96140865e+00   3.33931310e-01  -6.21362370e-01
C     6.218741756914432e+00   4.507184999420238e+00   2.626057104662849e+00 -6.20886000e-03  -8.82593560e-01   2.39040430e+00
C     2.737752104712040e-02   7.066910711415271e+00   3.562069955543314e+00 -3.72010190e-01   2.86833410e-01  -1.44796493e+00
C     1.760213199485832e+00   1.752211248142498e+00   3.572495452494712e+00 -2.01561990e-01  -6.30352510e-01  -1.37691010e-01
C     7.083422937403496e+00   1.749626270256735e+00   5.321239638588531e+00 -3.31633480e-01   4.55441100e-02  -8.11939080e-01
C     1.754300413550516e+00   7.070745065660725e+00   5.403920687619251e+00  1.35730434e+00   2.27767090e+00  -2.38800269e+00
C     8.490048339167251e-01   8.176215745547823e-01   4.414384257779233e+00  1.07406072e+00   1.97664673e+00   3.10543119e+00
C     2.705152452071363e+00   2.604278959197729e+00   4.423254431861373e+00 -3.35804842e+00   2.17247173e+00   3.03069910e-01
C     8.585648093299107e-01   2.603531935064593e+00   6.203881244006190e+00  7.06554740e-01   2.12224267e+00   1.49616390e-01
C     2.702823448484146e+00   9.509782130223516e-01   6.162407365482480e+00 -2.18496167e+00  -2.38084392e+00   3.47153544e+00
C     3.541116884691698e+00   5.872779732810640e-02   3.526917597255570e+00 -7.02672760e-01  -1.39774900e+00   2.74787677e+00
C     5.331499793629786e+00   1.753579406244169e+00   3.445661858044385e+00  1.58070120e-01   1.00589944e+00   4.06784915e+00
C     3.536828799830409e+00   1.819772255755121e+00   5.314816965498682e+00  2.40057348e+00  -1.62841412e+00   6.17149840e-01
C     5.355093572400507e+00   7.063786844010687e+00   5.305069683149459e+00 -1.76950919e+00   2.41370275e+00   1.06919118e+00
C     4.434907411230792e+00   9.191874988758306e-01   4.489306890025580e+00  7.13870170e-01  -9.82897160e-01  -3.50633109e+00
C     6.218107330195598e+00   2.650199156070250e+00   4.387338273563110e+00  1.04309967e+00   8.41758940e-01   5.32177550e-01
C     4.479545675168024e+00   2.631839948632671e+00   6.191286256471170e+00 -1.02349437e+00   1.72119483e+00   1.81324605e+00
C     6.177141419552311e+00   9.211497078558553e-01   6.221714712506794e+00  1.64795840e+00  -2.41028432e+00   5.88491620e-01
C     2.105600081115440e-02   3.610901833405214e+00   3.560651967399077e+00 -3.31516410e-01  -5.29318870e-01  -1.13195175e+00
C     1.863568455948786e+00   5.345317998529256e+00   3.561699464556360e+00 -1.55332162e+00   1.71357909e+00  -8.83909060e-01
C     7.087281389201632e+00   5.385975616883513e+00   5.335318935850834e+00  1.43066191e+00  -1.42665316e+00   2.03893600e-01
C     1.773206685192930e+00   3.552093071143466e+00   5.294523982771558e+00 -1.97376720e-01  -3.33253890e-01   1.02026743e+00
C     9.195945982392780e-01   4.533615180984791e+00   4.420678694925017e+00 -6.07368110e-01  -2.32550475e+00   9.06667450e-01
C     2.694845879030398e+00   6.305990251815407e+00   4.462436128427040e+00 -3.06971180e-01  -3.56507731e+00   7.92206810e-01
C     9.104950353591899e-01   6.224672384990524e+00   6.325974302495466e+00 -1.49787804e+00  -1.01445510e-01  -3.59575835e+00
C     2.630350805178008e+00   4.442914054133055e+00   6.228424921291622e+00  8.62011030e-01  -5.50741040e-01  -9.20475000e-01
C     3.502198910605234e+00   3.495461050056414e+00   3.579906693918324e+00  2.45111932e+00   1.92003709e+00  -2.43074561e+00
C     5.285594169023636e+00   5.370868086289228e+00   3.584005054979885e+00 -3.84158950e-01  -1.97717552e+00  -2.02678128e+00
C     3.564915670370779e+00   5.304395591432405e+00   5.392598889659698e+00 -5.54922130e-01   6.49161380e-01  -2.60612957e+00
C     5.391630082740819e+00   3.553406991980547e+00   5.312827886681154e+00 -2.14531557e+00  -1.58077595e+00  -3.10337000e-01
C     4.412162164868221e+00   4.361085589311378e+00   4.416620141030128e+00  1.06431189e+00   2.61326621e+00   2.19828494e+00
C     6.203696638270750e+00   6.229271321172986e+00   4.388313264809669e+00  4.77927160e-01  -4.50361870e-01   2.48210153e+00
C     4.451859222073837e+00   6.181357353924007e+00   6.226404494330340e+00  7.58904910e-01   9.44556400e-01  -2.87148760e-01
C     6.230870360841354e+00   4.427540099858972e+00   6.219236787465689e+00  6.72185500e-02   1.17386517e+00  -9.22560530e-01
