64
Lattice="7.10842262195238 0 0 0 7.10842262195238 0 0 0 7.10842262195238 " PBC="1 1 1" Properties=species:S:1:pos:R:3:force:R:3 Energy="-511.28481833"
C     7.089140952559024e+00   7.050893942483661e+00   7.103274629254369e+00 -7.39144900e-01   2.68332439e+00   7.21084000e-01
C     1.757752618995919e+00   1.756031314458486e+00   7.091031082133681e+00 -6.92006100e-01   3.84611990e-01   1.00189040e-01
C     1.186239349980360e-02   1.771155549845929e+00   1.793406192162600e+00 -4.89191780e-01   6.53353940e-01  -9.91211800e-02
C     1.768092601623197e+00   4.485898045958160e-02   1.735851924324830e+00 -6.11844300e-02  -1.63753674e+00   1.29767219e+00
C     8.044700686128418e-01   8.828433424516160e-01   8.748379790654244e-01  3.07063507e+00  -1.28871390e-01  -2.22070610e-01
C     2.673807720360020e+00   2.655445953890298e+00   8.939587118182838e-01  2.67516310e-01  -7.40156440e-01  -7.65788070e-01
C     9.688260405366478e-01   2.669819255512165e+00   2.649654721981784e+00 -1.34674898e+00  -1.74875980e-01   1.17244600e-01
C     2.646397855989979e+00   8.486802633398960e-01   2.706174927581023e+00  1.83947785e+00   1.19321023e+00  -1.68063472e+00
C     3.574807253699188e+00   7.090010241561224e+00   7.100447396325717e+00  7.80015660e-01   1.22873336e+00  -8.57068310e-01
C     5.372456747660571e+00   1.791914916181151e+00   6.678931725299600e-03 -1.25138592e+00  -2.25012910e-01  -5.80378290e-01
C     3.593414189665074e+00   1.732477840444021e+00   1.796747506215131e+00 -1.98757616e+00   1.19594227e+00  -9.31202410e-01
C     5.331805882307803e+00   7.079813493649739e+00   1.821119301841611e+00  1.18719616e+00   5.78656140e-01  -1.26291076e+00
C     4.490240510252492e+00   8.757424547595932e-01   8.862071191196261e-01 -7.10953200e-01  -1.47048520e-01   4.58459820e-01
C     6.201389599709429e+00   2.706831177157302e+00   9.423111976586905e-01  6.08789510e-01  -1.09768673e+00  -3.84248130e-01
C     4.356472791704808e+00   2.721953848691768e+00   2.641512805797062e+00  2.25125979e+00  -2.61270311e+00   1.80807389e+00
C     6.259379329516901e+00   8.764924644302293e-01   2.695056501592629e+00 -1.94526890e+00   2.90602240e-01  -1.36050587e+00
C     2.144426285465880e-02   3.544171089554607e+00   3.894811379837300e-02 -8.15355210e-01   4.86807830e-01  -1.39566444e+00
C     1.734513124008579e+00   5.400417301530984e+00   7.045924159893114e+00  8.18681510e-01  -1.07477324e+00   1.22054992e+00
C     2.464326628633740e-02   5.276013650269078e+00   1.789675336550494e+00  1.08224280e+00   1.44616086e+00   1.83152720e-01
C     1.838955258290132e+00   3.564718838148432e+00   1.753115652752441e+00 -1.60544345e+00   5.48714430e-01   1.86711690e-01
C     9.394651274100950e-01   4.506391841624298e+00   8.425497464197294e-01 -1.02736118e+00  -2.75114938e+00   1.47765300e+00
C     2.653150430973621e+00   6.244061745034194e+00   8.205315495227318e-01  1.48010040e-01  -2.53920550e-01   1.52361754e+00
C     9.496676331439023e-01   6.241306946932039e+00   2.694685015426508e+00 -1.63693167e+00  -6.77017240e-01  -1.02543616e+00
C     2.667230367993961e+00   4.464134472759411e+00   2.641101228127364e+00 -1.57065100e-01  -8.75437460e-01   1.79530235e+00
C     3.559904943265941e+00   3.558389285394905e+00   9.741666695352799e-03 -3.73604070e-01  -6.56770870e-01  -3.75701110e-01
C     5.367226796802132e+00   5.350410614662677e+00   6.934763855393400e-03  5.35859540e-01  -2.26340046e+00   1.36386615e+00
C     3.517493179461747e+00   5.295270509315110e+00   1.742780077347187e+00  1.59023438e+00   1.95569802e+00   4.47679970e-01
C     5.269364573918783e+00   3.590437964198306e+00   1.843111979501403e+00  2.07434490e+00  -1.11457978e+00  -2.06808951e+00
C     4.477648366086519e+00   4.410532914403717e+00   8.945570277502092e-01 -1.79147362e+00   2.09655642e+00  -6.40078710e-01
C     6.273464811106883e+00   6.163662428580267e+00   9.359207257233106e-01 -2.17154982e+00   1.37463842e+00  -7.90041460e-01
C     4.426978036882408e+00   6.232856311952930e+00   2.694058905562139e+00 -3.06328290e-01  -5.60459770e-01  -1.10454271e+00
C     6.239850360052975e+00   4.415220705868929e+00   2.650994375308749e+00 -2.94319540e-01   5.38897030e-01   1.74560898e+00
C     1.656333554686200e-03   7.105874676996088e+00   3.571693124833592e+00  1.08989875e+00   1.80610900e-02  -1.62393559e+00
C     1.822333491509333e+00   1.781561640803573e+00   3.537213152241473e+00 -1.34768333e+00  -2.83229540e-01   1.14475266e+00
C     7.048596784629781e+00   1.785250059132639e+00   5.263113924656339e+00  4.86740680e-01  -2.57219120e-01   9.60914850e-01
C     1.688324015508343e+00   3.631039141676960e-02   5.357078812669820e+00  1.79778990e+00  -1.22615100e-02  -1.98610559e+00
C     8.359905205313506e-01   9.363878201736707e-01   4.379417855827227e+00  1.36641016e+00  -1.16912650e+00   1.98360517e+00
C     2.662965883095770e+00   2.625316691362750e+00   4.545615477883422e+00 -5.29554300e-02   1.77441212e+00  -4.10282335e+00
C     8.050673182813742e-01   2.588441749021500e+00   6.185932974480274e+00  2.57149330e+00   2.83244366e+00   1.55435355e+00
C     2.644193889556648e+00   9.074921533075970e-01   6.178630634091201e+00  5.72883900e-01  -1.41240951e+00   1.78441184e+00
C     3.547165299330604e+00   7.096815276703802e+00   3.605976478456042e+00 -1.72776010e-01   4.35167980e-01  -9.05574500e-01
C     5.307124870297354e+00   1.778850772753210e+00   3.496959292292032e+00  4.11830420e-01   9.39613370e-01   1.25087013e+00
C     3.563490076214339e+00   1.767692539598144e+00   5.316091647842900e+00  6.34467060e-01  -4.70809880e-01   1.39838225e+00
C     5.412924073541291e+00   7.051871492762364e+00   5.282314769332126e+00 -2.47143418e+00   2.78516869e+00   1.38108352e+00
C     4.476503412455116e+00   9.209505298540429e-01   4.429385162034219e+00 -1.01642737e+00  -2.05454607e+00  -9.28253400e-02
C     6.177783736620254e+00   2.676437907813646e+00   4.389910882793513e+00  2.84842710e-01  -1.97236170e-01   1.07311197e+00
C     4.442937654096154e+00   2.650284386057464e+00   6.194471256310287e+00  8.09653200e-02   1.23962952e+00   1.06512636e+00
C     6.221367110640677e+00   9.096448680138378e-01   6.174717518523117e+00  2.42097400e-02  -1.90594464e+00   1.02486651e+00
C     4.998095437842260e-02   3.481918651954600e+00   3.587193040356502e+00 -1.48785273e+00   2.42099430e+00  -2.11636959e+00
C     1.825038672821600e+00   5.368546048956178e+00   3.584420115776666e+00 -1.69853645e+00  -1.62131184e+00  -6.01294350e-01
C     7.062338360733408e+00   5.313669666087814e+00   5.334818218561481e+00  1.67271443e+00   4.91631900e-02  -8.98976990e-01
C     1.778103251030491e+00   3.530663807060535e+00   5.354308091700998e+00 -1.62049300e+00   2.51132960e-01   5.61782630e-01
C     8.493803007995137e-01   4.406791822663037e+00   4.471875473908364e+00  2.23688576e+00   7.35135440e-01  -5.35868200e-01
C     2.652344051511609e+00   6.230016354947788e+00   4.489383660989877e+00  7.08040810e-01   5.66193550e-01   8.38062940e-01
C     8.182355290164718e-01   6.248172190414208e+00   6.202772898751281e+00  1.16238339e+00  -7.35368230e-01  -5.33339050e-01
C     2.601206201351781e+00   4.473127409300199e+00   6.241996250673500e+00  2.63024593e+00  -7.64815830e-01  -3.91466290e-01
C     3.516782337199747e+00   3.537385886911138e+00   3.599691282259665e+00  1.80863960e-01   1.36762960e+00  -8.25170200e-01
C     5.334378278285529e+00   5.386200740627888e+00   3.548045961808995e+00 -2.20302490e-01  -2.75549443e+00  -6.69601980e-01
C     3.587880495908082e+00   5.368295761395729e+00   5.406368330779995e+00 -1.59148829e+00  -1.43848694e+00  -2.21905283e+00
C     5.312441970417114e+00   3.598837347450324e+00   5.317826600551764e+00  4.81693750e-01  -1.31191207e+00  -1.51049300e-01
C     4.418292113114578e+00   4.473363337846957e+00   4.429670351949734e+00  5.57766320e-01  -2.98946200e-02   1.15527620e+00
C     6.244140435272597e+00   6.200360939872088e+00   4.384237863953170e+00 -1.44806830e-01   2.03703440e-01   1.93455083e+00
C     4.544374276209744e+00   6.189327317365551e+00   6.231425315395298e+00 -2.52411073e+00   1.74783975e+00  -3.62217840e-01
C     6.246442569022310e+00   4.447547181828320e+00   6.234065952230176e+00 -1.42763834e+00  -6.16732250e-01   4.16934900e-02
