64
Lattice="7.10842262195238 0 0 0 7.10842262195238 0 0 0 7.10842262195238 " PBC="1 1 1" Properties=species:S:1:pos:R:3:force:R:3 Energy="-511.03571969"
C     6.170046858356421e-02   3.740025477286800e-03   7.037251742128262e+00 -1.56415164e+00   7.74029000e-01   1.87137867e+00
C     1.804401997860800e+00   1.792590998256539e+00   7.093286300294102e+00 -4.33347570e-01   7.31203230e-01   2.73041470e-01
C     1.822954980899000e-03   1.786963757657869e+00   1.742946769857626e+00 -9.24332180e-01  -1.35754671e+00  -9.27148400e-02
C     1.814781645486298e+00   8.033654908219201e-03   1.769629584762094e+00 -1.76167578e+00   9.56710100e-02  -5.00308060e-01
C     9.040418671363014e-01   9.069076277155543e-01   8.401877597515558e-01  6.35847910e-01  -3.14975850e-01   6.28515020e-01
C     2.662765070156755e+00   2.708518219097706e+00   9.485998769821523e-01  2.31033560e-01  -1.01769557e+00  -1.81150711e+00
C     8.126300401910184e-01   2.616594301386879e+00   2.688013760797638e+00  1.59139178e+00   1.78404102e+00   2.06503670e-01
C     2.639391936824159e+00   9.473479415903179e-01   2.657188512611365e+00  1.35366794e+00  -1.35003670e+00   1.00316990e-01
C     3.496464688246132e+00   7.062188586268805e+00   7.075302133233955e+00  1.24290129e+00   1.58466378e+00   1.32763757e+00
C     5.303829760991853e+00   1.773259998362580e+00   7.072451229257978e+00 -7.62580970e-01  -2.06318944e+00  -1.43626420e-01
C     3.575936639885054e+00   1.817476803922671e+00   1.790971841752155e+00 -1.27156720e+00  -1.23831274e+00  -8.75382180e-01
C     5.337501434847852e+00   7.062358335400971e+00   1.772478071874380e+00  1.44524045e+00   2.35021095e+00  -1.01378483e+00
C     4.420222547445491e+00   8.381924966063480e-01   8.651977495608590e-01  1.24524360e-01   1.37893309e+00   8.98593100e-01
C     6.168282334609457e+00   2.633941624864501e+00   7.857437822311663e-01  1.70498342e+00   5.46537120e-01   3.43448173e+00
C     4.448736349848419e+00   2.659108426476801e+00   2.671670502015091e+00  1.22752599e+00  -8.85701040e-01  -1.03212049e+00
C     6.280394456897990e+00   8.811240282725166e-01   2.689237973341255e+00 -2.43461124e+00  -4.40310370e-01  -2.08046465e+00
C     7.083212599178170e+00   3.520870959722319e+00   7.102140125004217e+00  1.37074563e+00   1.35590162e+00  -7.37286780e-01
C     1.776471796954975e+00   5.281469933303738e+00   1.089536368657880e-01 -7.92489190e-01   7.61387220e-01  -2.67960336e+00
C     7.043387945786525e+00   5.339924767203237e+00   1.772875290530386e+00  1.60339264e+00  -8.47685440e-01  -3.45589450e-01
C     1.736660365229402e+00   3.513594991581166e+00   1.830160362403537e+00  4.02765630e-01   7.30975590e-01   1.47742850e-01
C     8.513922687378784e-01   4.392303862184311e+00   9.301611262954556e-01 -1.42748130e-01   6.41938700e-01   2.99495710e-01
C     2.682881550750224e+00   6.155296312746110e+00   9.267337292449964e-01 -3.00440200e-02   1.84004662e+00   1.72494080e-01
C     8.400566804384429e-01   6.238404862313198e+00   2.609156474462668e+00  2.31010116e+00  -9.47661280e-01   1.36950077e+00
C     2.686785425368902e+00   4.381805006311476e+00   2.707949403119654e+00  9.38910400e-02   1.79753685e+00  -1.12041210e+00
C     3.543993450073333e+00   3.622656889723456e+00   3.702173126835300e-02 -7.89914380e-01  -2.58244687e+00  -5.49308680e-01
C     5.319608113428789e+00   5.341900482186239e+00   7.077088835259493e+00  8.14679540e-01   4.90488290e-01   9.02544540e-01
C     3.633561991949024e+00   5.335635544994329e+00   1.817122164718159e+00 -1.59403765e+00  -1.33255351e+00  -3.83387690e-01
C     5.350973033060372e+00   3.541353026491134e+00   1.739570553450031e+00 -1.32677174e+00  -4.34921820e-01   7.41529340e-01
C     4.461883306399883e+00   4.429151650351153e+00   8.668393686807218e-01  5.46817690e-01   1.77631916e+00   1.39375156e+00
C     6.241014577509678e+00   6.268242039755290e+00   8.162629417394218e-01 -8.63110740e-01  -2.18390638e+00   1.70308233e+00
C     4.515480315365100e+00   6.237777828353887e+00   2.686635082230489e+00 -1.75199945e+00  -3.64074230e-01   2.70905030e-01
C     6.182900876811713e+00   4.391197151866603e+00   2.695010439014052e+00  5.90406810e-01   2.63018673e+00  -1.13846552e+00
C     1.919302541090480e-02   3.622452167152000e-04   3.537967640218359e+00  4.38186200e-01  -2.21930940e-01   1.14739907e+00
C     1.752489685056523e+00   1.763176700876110e+00   3.599858898865044e+00 -2.70439510e-01   1.42606439e+00  -2.65723573e+00
C     7.104873668922739e+00   1.737991914954581e+00   5.356785376984067e+00  1.37164221e+00   1.80878460e+00  -2.38895632e+00
C     1.823821000026794e+00   7.074318540796026e+00   5.284293185515724e+00 -1.54317728e+00   1.28178976e+00   1.72522697e+00
C     9.324135010868287e-01   8.873516462456724e-01   4.440728356345859e+00 -1.66447577e+00  -1.42505617e+00   8.01151070e-01
C     2.623404596762196e+00   2.719399792444403e+00   4.365069504768757e+00  9.99347970e-01  -1.44928914e+00   3.62553094e+00
C     9.353451567437691e-01   2.692899237495912e+00   6.183805352505883e+00 -1.63678990e+00  -1.23891090e+00   1.44710412e+00
C     2.644735409191840e+00   9.142756499296368e-01   6.195386465722613e+00  1.04935137e+00  -1.46026654e+00  -5.23120590e-01
C     3.580127552609127e+00   8.898408736787440e-02   3.512350662201535e+00 -7.53445000e-02  -1.92672915e+00   1.22141519e+00
C     5.338291536022065e+00   1.713932321249572e+00   3.546068540804564e+00  1.71948191e+00   3.98907224e+00  -1.21492339e+00
C     3.510752759880785e+00   1.813400478971232e+00   5.277265798913591e+00  9.61664150e-01   1.76197350e-01   1.39889196e+00
C     5.363879724927279e+00   1.057882562731020e-02   5.325147280671197e+00 -2.21104269e+00   5.32847890e-01   5.33417300e-02
C     4.483615886876009e+00   9.988788164368053e-01   4.409148762351151e+00 -2.65667516e+00  -4.82275702e+00   1.66948887e+00
C     6.187487799759947e+00   2.635530144067392e+00   4.433962701864594e+00  2.27553940e-01  -1.23803510e-01   1.95149622e+00
C     4.383843346497761e+00   2.663916350284290e+00   6.234588208040067e+00  1.33351770e-01   5.45498190e-01   1.46668700e-02
C     6.228795554447029e+00   8.660710903639522e-01   6.164979903628657e+00  2.11682960e-01   8.76028190e-01   2.00050757e+00
C     7.027455767084092e+00   3.541644400734328e+00   3.587939922321185e+00  1.90724657e+00  -9.41766300e-02   6.09286100e-02
C     1.824462392999797e+00   5.335169587891587e+00   3.521139160507771e+00 -2.68954403e+00  -2.07860600e-01   1.00871132e+00
C     7.108209225152947e+00   5.391513291357172e+00   5.378225303700928e+00  4.15347220e-01  -2.09440125e+00  -3.42962150e-01
C     1.807641661469865e+00   3.604824060980888e+00   5.348854296614254e+00 -2.22824821e+00  -6.23495060e-01  -1.12020314e+00
C     8.139678453281024e-01   4.475933103708313e+00   4.514649980518858e+00  2.62839319e+00  -5.01036820e-01  -2.57807603e+00
C     2.663458283530657e+00   6.230142174028162e+00   4.414584573128665e+00  2.14518874e+00  -2.12171700e-01  -4.42903670e-01
C     9.266445185411154e-01   6.214633444061203e+00   6.223616784231454e+00  4.69023940e-01   2.87082000e-03   4.86788380e-01
C     2.629964888913968e+00   4.460875118819688e+00   6.263227687354916e+00  1.87841851e+00   1.14311800e-01  -4.92396090e-01
C     3.590521061658734e+00   3.495819456724915e+00   3.572608405330144e+00 -6.05961150e-01   2.24113045e+00  -1.42576311e+00
C     5.362495786127392e+00   5.355605378829147e+00   3.619340810571225e+00 -7.92554460e-01  -1.71630257e+00  -1.31661523e+00
C     3.566139811830169e+00   5.315797501314885e+00   5.332008543436700e+00 -7.90211150e-01   8.55934830e-01  -3.61918450e-01
C     5.294786710071593e+00   3.521151173741999e+00   5.414544296309067e+00  1.54296982e+00   1.16580894e+00  -3.33310930e+00
C     4.469295187581531e+00   4.406703678222549e+00   4.421499859906080e+00 -9.89806010e-01   8.03529500e-01   2.76323212e+00
C     6.234232715824841e+00   6.219899363538099e+00   4.512255224022405e+00  9.02369300e-02   8.52950390e-01  -2.36760356e+00
C     4.415603139005885e+00   6.244102476295806e+00   6.242241917759247e+00  8.42336690e-01  -1.22450108e+00  -2.35442579e+00
C     6.246828698539028e+00   4.476286960986337e+00   6.228386962314832e+00 -1.70366803e+00  -1.27436112e+00   3.18123010e-01
