64
Lattice="7.10842262195238 0 0 0 7.10842262195238 0 0 0 7.10842262195238 " PBC="1 1 1" Properties=species:S:1:pos:R:3:force:R:3 Energy="-513.87533359"
C     1.542143853718520e-02   2.139414847518780e-02   2.429658851516000e-04 -4.66367330e-01  -6.87243340e-01  -4.52864660e-01
C     1.766943027517091e+00   1.792254698782387e+00   7.108412881461010e+00  8.78952890e-01  -1.41192657e+00   4.55900330e-01
C     7.100018971694410e+00   1.805865906415163e+00   1.760986595866888e+00  1.18687070e-01  -8.82094870e-01   7.29263050e-01
C     1.753040943230704e+00   7.085646380914805e+00   1.786934542040900e+00  1.08814795e+00   1.13556057e+00   6.33096200e-02
C     8.918738825480640e-01   8.809974983498806e-01   8.934543692333947e-01 -2.33037080e-01   7.09384660e-01   1.61837160e-01
C     2.677571843389989e+00   2.651259803809380e+00   9.031934058123781e-01 -9.85409840e-01   1.29260213e+00  -1.21881802e+00
C     8.538233492739183e-01   2.692507421241097e+00   2.680435329274004e+00  1.10110858e+00  -1.20088024e+00  -8.57699750e-01
C     2.681726289906022e+00   9.233622754805565e-01   2.648125273770865e+00 -1.59665333e+00  -1.67295197e+00   1.24636730e+00
C     3.542318279198704e+00   1.633856722361760e-02   2.503188375097280e-02 -8.34308000e-03  -9.97193000e-01  -6.42913710e-01
C     5.312322406748645e+00   1.784436144742649e+00   3.052996431063800e-03  1.07141788e+00  -1.04117113e+00  -1.32472290e-01
C     3.548897550838871e+00   1.808999725611416e+00   1.764779650176920e+00  4.16814040e-01  -1.69069510e+00   1.04500937e+00
C     5.327535852839969e+00   7.093684727381954e+00   1.787716823950231e+00 -7.07855000e-03   1.84758388e+00  -3.13848370e-01
C     4.421824928072492e+00   8.907542349011878e-01   8.892629589197381e-01  7.35491930e-01   1.92594190e-01   2.97105170e-01
C     6.239413476398749e+00   2.658166915900782e+00   8.611622269552588e-01 -2.71103600e-01   5.82785090e-01  -1.46361760e-01
C     4.458000117291030e+00   2.613605920517431e+00   2.675169551965560e+00  1.37866570e-01   2.64966302e+00  -1.20256270e-01
C     6.205585488329336e+00   9.430560181808143e-01   2.672915471152758e+00  6.03103640e-01  -2.15597921e+00   2.05893600e-02
C     3.310349763598280e-02   3.565114848372592e+00   7.091705529271867e+00 -1.17813594e+00  -6.28800000e-04  -2.33959790e-01
C     1.783803139708338e+00   5.321478908093919e+00   2.753532802928440e-02  4.73907830e-01   3.25714330e-01  -1.20695653e+00
C     7.106161786185709e+00   5.372909340928786e+00   1.774681256381223e+00 -8.24886030e-01  -1.52302620e+00  -3.37853600e-02
C     1.751409275902509e+00   3.549575978693724e+00   1.752066023068371e+00  9.47646080e-01   3.79032050e-01   1.58398387e+00
C     8.690701338673301e-01   4.444907966677966e+00   8.936408942429436e-01  8.81724850e-01   3.45664790e-01  -3.15196610e-01
C     2.689012920681105e+00   6.229192204429225e+00   9.135905401575212e-01 -1.23459920e+00  -4.71182880e-01  -2.64339960e-01
C     8.466729158762342e-01   6.202459417313738e+00   2.680159309223669e+00  1.45731686e+00   1.56064536e+00  -3.47489420e-01
C     2.650375587119679e+00   4.456350892158963e+00   2.667947039162509e+00  5.09212120e-01  -2.90355590e-01  -5.11289680e-01
C     3.570537153147128e+00   3.529299771843984e+00   7.096816058630290e+00 -7.01734630e-01   1.06585899e+00  -6.19769600e-02
C     5.322049430093401e+00   5.311737383567019e+00   7.105768832583276e+00  1.28667880e-01   1.15578210e+00  -3.69552680e-01
C     3.567655043195848e+00   5.349931293725410e+00   1.792909242337237e+00 -4.10124710e-01  -9.40142820e-01  -4.88221010e-01
C     5.379049525303716e+00   3.527481721674692e+00   1.746322417591411e+00 -1.49550280e+00   7.98529100e-01   1.31234213e+00
C     4.433081755049297e+00   4.434460362532221e+00   8.788540245930458e-01  9.10970170e-01  -3.57448390e-01   5.13991690e-01
C     6.215266591263966e+00   6.264644111646177e+00   8.722608915287695e-01  3.35801400e-02  -1.53647655e+00   5.43286560e-01
C     4.455914008504737e+00   6.222181380451797e+00   2.659978568489715e+00 -2.48895110e-01  -3.07378460e-01   9.61029280e-01
C     6.234301596440028e+00   4.445102026615491e+00   2.674327488221995e+00 -7.90914220e-01   1.09285290e-01  -7.53639210e-01
C     7.990222446010999e-03   9.824408734649600e-03   3.567609762543760e+00 -1.54586444e+00   2.75970900e-02  -2.23863190e-01
C     1.735575619937590e+00   1.755574527220925e+00   3.578430203455923e+00  1.54204800e+00   1.60057471e+00  -1.57565768e+00
C     9.662052362008801e-03   1.810857867284284e+00   5.351681174121776e+00  2.07958900e-02  -1.95212593e+00  -3.33613640e-01
C     1.784420079707528e+00   7.073003340442874e+00   5.270393233756123e+00 -1.85560380e-01   9.94837530e-01   3.10472432e+00
C     8.712665653726840e-01   8.885515479839283e-01   4.454712116408149e+00  6.81693980e-01  -4.00478170e-01  -1.58500840e-01
C     2.654882753566115e+00   2.689665189540716e+00   4.413684433572294e+00  3.66961510e-01  -1.18039933e+00   1.26960492e+00
C     9.218884151345257e-01   2.653075508199207e+00   6.209092641881591e+00 -7.57148920e-01   1.20279469e+00   5.10236280e-01
C     2.655898333905835e+00   8.737329747691454e-01   6.254730634376100e+00  5.61612300e-02   5.16500580e-01  -1.88328811e+00
C     3.555197248217394e+00   7.095227468343173e+00   3.573230960983203e+00  2.41219170e-01   9.15191390e-01  -1.41624461e+00
C     5.342911868556613e+00   1.778878566685654e+00   3.598604902030650e+00 -4.16413370e-01  -4.55526220e-01  -1.08635698e+00
C     3.560703858884203e+00   1.781490058987790e+00   5.339353036771910e+00 -8.92103130e-01  -4.32851120e-01  -1.30465560e-01
C     5.300855810220324e+00   1.206007873286580e-02   5.335285526264520e+00  1.35725242e+00  -1.26428399e+00   8.76665630e-01
C     4.435569631882071e+00   8.719645413897418e-01   4.464686086354723e+00  6.23432600e-02   6.53953310e-01  -2.83900650e-01
C     6.251206278441103e+00   2.669613040171958e+00   4.457411042308510e+00 -8.65545720e-01  -1.73456690e-01  -7.63147100e-02
C     4.448954791675531e+00   2.648345563787859e+00   6.215784582020285e+00  1.38920770e-01   2.21932460e-01   5.40748200e-02
C     6.230182620952870e+00   8.736742591983041e-01   6.225779806150494e+00 -7.82743680e-01   1.28995029e+00  -1.31115890e-01
C     4.909787503634000e-04   3.559365129652178e+00   3.559472466833740e+00 -3.61183510e-01   2.85222090e-01  -2.03398270e-01
C     1.750318061946113e+00   5.340869121148303e+00   3.535185901194475e+00  6.16142920e-01  -1.06532445e+00   5.75837230e-01
C     7.835898590930800e-03   5.328169995221900e+00   5.307171643718194e+00 -4.88630630e-01   1.38811540e-01   1.31036817e+00
C     1.774175847532941e+00   3.543394920888729e+00   5.315079834967170e+00  4.56372720e-01   7.69099800e-01  -7.10774900e-02
C     8.683433687386614e-01   4.433145873021330e+00   4.430117400648306e+00  8.99095060e-01   3.82135530e-01   3.17188130e-01
C     2.677240519811670e+00   6.194197724207870e+00   4.426351216175777e+00 -7.06940300e-01   7.30225150e-01  -5.92001340e-01
C     8.973098354940303e-01   6.206173710301141e+00   6.227601197278417e+00  1.96503390e-01   1.76663560e-01  -6.37689370e-01
C     2.679430980242024e+00   4.447848507863181e+00   6.181194428877556e+00 -4.51912600e-01  -6.47514110e-01   1.27765993e+00
C     3.575712511319845e+00   3.575098272521251e+00   3.572394655061959e+00 -1.01680877e+00  -1.12203076e+00  -1.67014726e+00
C     5.314336293961118e+00   5.318894072376609e+00   3.566594821962076e+00  1.34548191e+00   2.33903640e-01  -6.27897340e-01
C     3.566664626672204e+00   5.336699107186733e+00   5.296835926144487e+00 -3.27307990e-01  -9.26846100e-01   1.03689838e+00
C     5.357188282378168e+00   3.506668971085594e+00   5.335646207628258e+00 -5.92934540e-01   2.14797693e+00  -1.39907700e-01
C     4.464372533832954e+00   4.427432975930089e+00   4.426870770785072e+00 -3.38161720e-01  -1.08608000e-02   9.19477390e-01
C     6.215293887606828e+00   6.204929665258414e+00   4.475353838349009e+00 -3.77558990e-01   1.08260859e+00  -1.45847660e+00
C     4.416223633216385e+00   6.198692166577818e+00   6.221779896742220e+00  5.88286070e-01   1.11170207e+00   1.12786860e-01
C     6.216793053937385e+00   4.473246972968667e+00   6.191962836136142e+00  5.15563730e-01  -1.83230756e+00   8.94492500e-01
