64
Lattice="7.10842262195238 0 0 0 7.10842262195238 0 0 0 7.10842262195238 " PBC="1 1 1" Properties=species:S:1:pos:R:3:force:R:3 Energy="-509.31930753"
C     7.105815534919889e+00   7.056295988253730e+00   2.252737320926820e-02 -3.38011820e-01   1.57727387e+00  -1.16788270e-01
C     1.757097364598807e+00   1.793290538126573e+00   7.091623142653702e+00 -3.13282610e-01  -3.47572770e-01   6.71317600e-01
C     7.081073816980265e+00   1.724743521212330e+00   1.821985889643215e+00  1.58263706e+00   1.67849000e+00  -1.62025793e+00
C     1.814778588864571e+00   8.136641735137760e-02   1.753177851450366e+00 -9.01721770e-01  -4.70175935e+00  -3.63097680e-01
C     9.307734458199424e-01   8.298229687293338e-01   8.194062151377596e-01 -2.15599231e+00   2.65063684e+00   2.74247112e+00
C     2.628223396456294e+00   2.692250665016063e+00   9.173341198461179e-01  9.27207740e-01  -2.34899811e+00  -3.14457170e-01
C     9.343375378373842e-01   2.658260107321330e+00   2.655540993500728e+00 -2.02194762e+00  -7.03185750e-01   9.43783990e-01
C     2.675225210914674e+00   8.458284352689781e-01   2.702654481278469e+00  1.38327640e-01   2.69339408e+00  -2.22175208e+00
C     3.560012067194825e+00   1.656831144269600e-02   5.507229099577140e-02  2.48002910e-01  -3.71564100e-01  -2.00408982e+00
C     5.358595678972702e+00   1.735747146175411e+00   7.082553932738201e+00 -4.56413040e-01   3.65644286e+00   1.31523648e+00
C     3.514946871395037e+00   1.777383878661347e+00   1.853202740831624e+00  1.91858457e+00   5.13496950e-01  -3.35679583e+00
C     5.319485137717463e+00   4.884623687559200e-03   1.767366689505243e+00 -6.31299680e-01  -1.30455040e+00   5.84326150e-01
C     4.476424508964033e+00   9.403034947738977e-01   9.031004987287349e-01 -1.95473292e+00  -1.70701037e+00  -2.92454100e-02
C     6.243005646685540e+00   2.704575034901940e+00   9.974891198145952e-01 -8.01248590e-01  -9.91540750e-01  -3.01495625e+00
C     4.442274509349934e+00   2.663097459998466e+00   2.648622579017360e+00 -1.04926989e+00   5.28292550e-01   1.10911947e+00
C     6.173356184507161e+00   8.231723996102880e-01   2.690206424839003e+00  2.64964366e+00   1.21671600e+00  -1.96426279e+00
C     7.077151247210096e+00   3.621797979018281e+00   2.066645925157840e-02  1.56826717e+00  -2.64336537e+00   1.61930245e+00
C     1.806588051069129e+00   5.308624178796364e+00   7.034253409467146e+00 -1.02416586e+00   2.46850825e+00   2.12476926e+00
C     2.072737843343180e-02   5.327768298259643e+00   1.782423892467379e+00  6.57446080e-01   1.34346355e+00  -6.91523440e-01
C     1.828341245970853e+00   3.533712893859158e+00   1.836191787912380e+00 -3.17427446e+00   1.53675656e+00  -3.00319041e+00
C     9.404872474986249e-01   4.562421068473174e+00   8.768911047707589e-01 -1.63035473e+00  -4.55095974e+00  -5.83476000e-02
C     2.618369558851998e+00   6.205450641552234e+00   8.385659731308027e-01  3.15509052e+00   5.21193280e-01   1.66419490e+00
C     9.469546325667532e-01   6.225383795926335e+00   2.631384227658503e+00 -1.80741638e+00   4.62485690e-01   4.39178450e-01
C     2.632794751958990e+00   4.424624651405605e+00   2.655965366331142e+00  2.47820868e+00   6.20743700e-02   1.49080930e+00
C     3.490126960806593e+00   3.514622442986660e+00   8.277687056763799e-03  4.70708862e+00   1.29302750e-01   6.70869120e-01
C     5.361601262224890e+00   5.349461000484871e+00   7.062840286454607e+00 -1.96348103e+00  -1.27611044e+00   3.32970840e+00
C     3.563772351676578e+00   5.236705565949229e+00   1.788589382826836e+00 -9.36752870e-01   3.44500228e+00  -1.02291714e+00
C     5.282177008101749e+00   3.613331776593635e+00   1.809721443760024e+00  2.68980085e+00  -2.80886251e+00  -8.26603480e-01
C     4.468989880830001e+00   4.404080314854638e+00   9.005915098807796e-01 -2.33103318e+00   1.34705689e+00  -1.53738543e+00
C     6.181657329358571e+00   6.159256699324617e+00   9.447707829694367e-01  1.63433744e+00   2.40352279e+00  -2.23076919e+00
C     4.405520623445903e+00   6.218418821274805e+00   2.680942515227940e+00  1.77654740e-01  -3.39642800e-01  -1.36007498e+00
C     6.238100337488157e+00   4.487116998269038e+00   2.613528154373968e+00 -9.19998750e-01  -1.26280877e+00   3.19457965e+00
C     2.892914753661400e-02   7.099260218663951e+00   3.505994310694730e+00 -1.03708969e+00  -1.74987549e+00   1.41971057e+00
C     1.795389939663164e+00   1.745763979910384e+00   3.512351017622665e+00 -4.70950830e-01   5.61228510e-01   2.41483556e+00
C     7.072737769773791e+00   1.701544117728567e+00   5.308526509069566e+00  1.66470101e+00   2.04910827e+00   1.55595770e-01
C     1.804234807760778e+00   2.944891539858840e-02   5.340469414544381e+00 -1.66503697e+00   2.51849790e-01  -5.75220380e-01
C     9.368143966150970e-01   8.011490135647777e-01   4.351094488066289e+00 -1.77839435e+00   3.47563350e+00   2.59769264e+00
C     2.666395128336111e+00   2.627459667530001e+00   4.488941374934461e+00 -1.40639962e+00   1.42111215e+00  -2.15455646e+00
C     8.268570504753650e-01   2.636957941834845e+00   6.239172500871931e+00  8.95986900e-01   1.42660992e+00  -7.71088340e-01
C     2.673258239291494e+00   9.226880415950495e-01   6.204838250943522e+00 -5.42479900e-02  -4.78856180e-01   1.69502616e+00
C     3.541313930166724e+00   2.298138816200760e-02   3.530874856128123e+00  9.92106390e-01  -1.54832914e+00   2.61921753e+00
C     5.323278120943268e+00   1.730792788861950e+00   3.459291547575973e+00 -1.31909600e-02   2.19010526e+00   4.44889880e+00
C     3.498761632847333e+00   1.786607554600380e+00   5.349561371412266e+00  4.46278973e+00   7.10397900e-02  -1.23846555e+00
C     5.329727024112584e+00   3.347640548662800e-03   5.329381910194384e+00 -4.74886600e-01   2.49466270e-01   3.85047690e-01
C     4.481439074617086e+00   9.027420920602343e-01   4.440041327299635e+00 -2.47253349e+00  -1.97711080e-01  -6.62082180e-01
C     6.238680526942401e+00   2.657685888942086e+00   4.458569430858665e+00 -4.37796010e-01   2.68863120e-01  -2.43640438e+00
C     4.522042526790979e+00   2.696817328959829e+00   6.146124741544881e+00 -3.39736331e+00  -1.67129554e+00   2.65735987e+00
C     6.209902575554914e+00   8.862255299342119e-01   6.235147996321392e+00  7.08188280e-01  -1.85141313e+00  -3.91845690e-01
C     7.101379737036557e+00   3.583372689703610e+00   3.552907838544170e+00  1.39370033e+00  -1.14401171e+00  -1.19314640e-01
C     1.819836444811380e+00   5.346004956491253e+00   3.542978864912781e+00 -1.30740241e+00   6.21364050e-01   6.47916550e-01
C     7.095590140065245e+00   5.342614807575323e+00   5.355813158022330e+00  4.42627580e-01   8.30896710e-01  -1.02377477e+00
C     1.770193709181217e+00   3.567974140287261e+00   5.375640610152069e+00 -4.61916790e-01  -1.77616086e+00  -1.66189484e+00
C     9.205422220587502e-01   4.466545934049019e+00   4.429603959282463e+00 -1.18728256e+00   4.55937100e-02   1.09348942e+00
C     2.642542531897796e+00   6.292395677891562e+00   4.487501563932780e+00  1.99265841e+00  -3.24272051e+00  -1.32482766e+00
C     8.658622449073765e-01   6.312124394031110e+00   6.204616965747361e+00  1.04930810e+00  -4.41005925e+00  -6.30585510e-01
C     2.699992305923052e+00   4.369035435916907e+00   6.260644415490582e+00 -2.00772125e+00   3.02608566e+00  -2.10871127e+00
C     3.519053904732194e+00   3.539874119165043e+00   3.530401293013179e+00  7.75096050e-01  -5.38026120e-01   2.15719676e+00
C     5.314832888365350e+00   5.359369146437984e+00   3.528921461592148e+00 -1.23705610e-01  -1.34199670e-01   9.37295180e-01
C     3.536217830906220e+00   5.343166207917956e+00   5.355008982171329e+00  6.29358060e-01  -7.06749680e-01  -3.16530120e-01
C     5.350640429965981e+00   3.612002288311016e+00   5.271537618713716e+00 -7.41694380e-01  -1.87517698e+00   1.79229083e+00
C     4.377870636559758e+00   4.434639068276888e+00   4.425152878290497e+00  2.02953846e+00   1.26252219e+00  -5.79505570e-01
C     6.175681918219972e+00   6.241118147227252e+00   4.460041158677910e+00  1.99078863e+00  -1.42606085e+00  -9.93309850e-01
C     4.463412541358124e+00   6.204417005819060e+00   6.234546268346610e+00 -1.07692778e+00   1.28953998e+00  -4.12233850e-01
C     6.204172191744028e+00   4.446184212875161e+00   6.286357428297003e+00  9.65993440e-01   8.45474170e-01  -3.78965928e+00
