64
Lattice="7.10842262195238 0 0 0 7.10842262195238 0 0 0 7.10842262195238 " PBC="1 1 1" Properties=species:S:1:pos:R:3:force:R:3 Energy="-508.0722915"
C     1.218326769687040e-01   7.106832892365263e+00   6.828357877194620e-02 -2.82539397e+00  -9.23411260e-01  -1.64140507e+00
C     1.772892563997352e+00   1.762760787068614e+00   7.103318559306161e+00 -2.36813110e-01   9.48758340e-01   9.55336240e-01
C     7.019278522038949e+00   1.796292567167452e+00   1.780146496028383e+00  3.51120335e+00  -4.37583000e-02  -2.59234340e-01
C     1.843012888090080e+00   7.080652074266220e+00   1.806284094917897e+00 -3.93564952e+00   1.15689833e+00  -1.11144644e+00
C     9.579347997351885e-01   8.930758457288799e-01   9.320558763448166e-01 -2.10303297e+00   1.03615730e-01  -4.71953780e-01
C     2.682085976090594e+00   2.625969457811944e+00   8.716245455358271e-01 -6.24864010e-01   2.13162603e+00   7.87667060e-01
C     8.298070458626650e-01   2.679749224322721e+00   2.684601646855811e+00  1.01718158e+00  -5.53782410e-01  -2.00511000e-03
C     2.685119708696357e+00   9.180117657744825e-01   2.545449156005025e+00  5.77169790e-01  -2.02141559e+00   4.07558314e+00
C     3.487578093707739e+00   7.083046830762671e+00   7.081837119401200e+00  1.54507763e+00   5.89635060e-01   2.10996690e-01
C     5.326303892115697e+00   1.729233343107574e+00   7.087792698040689e+00 -7.22898160e-01   8.01132550e-01  -2.41692000e-03
C     3.561818033045661e+00   1.726189445457464e+00   1.731610115294797e+00  1.01413666e+00   2.31341331e+00  -1.37192300e+00
C     5.336541442373021e+00   7.066448948281876e+00   1.769767345992469e+00  5.49983350e-01   2.05194583e+00  -1.90618446e+00
C     4.400550058928868e+00   8.549599860508564e-01   7.846616670557236e-01  1.29102224e+00  -5.08170920e-01   3.28964048e+00
C     6.149702339565301e+00   2.643985257352751e+00   9.253214989230809e-01  1.49610448e+00   2.61193680e-01  -3.33263029e+00
C     4.449519840189596e+00   2.673962399636232e+00   2.616612925454143e+00 -1.16175370e+00   4.44405940e-01   1.91416950e-01
C     6.184133050788664e+00   9.312550414524474e-01   2.586397793181345e+00 -3.74285900e-02  -1.86918935e+00   3.51152773e+00
C     7.071968567362080e+00   3.571007730724572e+00   8.417858042407579e-02 -2.95772380e-01  -1.04987194e+00  -2.31510766e+00
C     1.791524237273955e+00   5.273893847559568e+00   1.170178579912732e-01 -1.57745180e+00   1.47058996e+00  -1.66715032e+00
C     7.088705277336643e+00   5.216985735337956e+00   1.884179256251250e+00 -8.05694840e-01   2.80496663e+00  -3.22372059e+00
C     1.783153145543965e+00   3.515504384981124e+00   1.839594021146765e+00  1.04045600e-01  -1.42169100e-02  -1.60367018e+00
C     8.347033273633210e-01   4.365761509710814e+00   9.362536131546052e-01  2.40313489e+00   1.86756952e+00   2.28371190e+00
C     2.632024980873470e+00   6.231863549649820e+00   9.339984660784102e-01  1.93735301e+00  -1.62497956e+00  -2.78332770e-01
C     8.494036875099334e-01   6.163745383872243e+00   2.689575694499931e+00  1.97147251e+00   1.21859747e+00  -1.46750026e+00
C     2.735545223825435e+00   4.439136851605467e+00   2.738290923146636e+00 -1.98534370e+00   2.50559470e-01  -2.36776743e+00
C     3.526928402057952e+00   3.626030618183135e+00   7.089094036969732e+00  3.44311110e-01  -1.51569741e+00   1.42919986e+00
C     5.340049875441348e+00   5.408233225454353e+00   7.044420941761663e+00  1.53715180e-01   6.97583460e-01   9.38767180e-01
C     3.566676071232622e+00   5.395473606851453e+00   1.838930947484771e+00  7.49338430e-01  -1.74926363e+00  -1.92062607e+00
C     5.322800434943204e+00   3.562198120403153e+00   1.664170306287845e+00 -2.70749049e+00   1.13097663e+00   4.09307184e+00
C     4.440052771860053e+00   4.606316857667745e+00   8.586165586465844e-01 -1.04167010e-01  -4.49754269e+00  -4.79997130e-01
C     6.243963933138942e+00   6.235314902084510e+00   8.915942372021932e-01  6.68469210e-01  -1.07368431e+00   3.69197870e-01
C     4.535203273682325e+00   6.211981291581681e+00   2.643472953334528e+00 -2.41058723e+00  -4.08161200e-02   1.82035387e+00
C     6.108221850208553e+00   4.367667704320594e+00   2.700710540944577e+00  3.88383973e+00   8.38782450e-01  -1.82604763e+00
C     4.977722698613340e-02   3.597387868993880e-02   3.514454613128602e+00 -1.57918605e+00  -1.24818118e+00   2.43254200e-01
C     1.830592056909249e+00   1.795031035405080e+00   3.466327108864118e+00 -1.41807268e+00   5.18033770e-01   2.13309024e+00
C     2.083578187838680e-02   1.784695815420958e+00   5.369728606143242e+00 -4.47485560e-01   7.54886520e-01  -1.32297639e+00
C     1.826355223775051e+00   7.086161243965172e+00   5.221263655154898e+00 -1.36529457e+00   3.17612800e-02   2.88648683e+00
C     9.437530701029313e-01   8.909105491146015e-01   4.343707202026907e+00 -1.36959650e-01   9.09911680e-01   2.60572364e+00
C     2.716955348073837e+00   2.721564307132192e+00   4.469882485458395e+00 -1.44483578e+00  -2.37435570e+00  -6.06550610e-01
C     8.515546251105192e-01   2.743870608397979e+00   6.294181171485254e+00  1.76336382e+00  -2.98829457e+00  -2.19916413e+00
C     2.645492527285096e+00   8.572204644440163e-01   6.246782635960451e+00 -1.57321004e+00   5.95390310e-01  -2.68799552e+00
C     3.568074440130429e+00   7.055422789619090e+00   3.471511068228205e+00 -1.36621870e-01   2.30532623e+00   1.05057161e+00
C     5.296325612484597e+00   1.834543344706803e+00   3.522710974917505e+00 -3.25579710e-01  -1.71441425e+00   9.85917870e-01
C     3.488568439147157e+00   1.742374755089394e+00   5.366755508382426e+00  1.37557442e+00   7.20210830e-01  -1.21623548e+00
C     5.325285326238477e+00   3.111747544018100e-02   5.216370430275968e+00  1.29233089e+00  -7.57006250e-01   3.50174436e+00
C     4.335737949427625e+00   8.561070722090457e-01   4.439232388805479e+00  2.96834066e+00   1.55844653e+00  -1.96338353e+00
C     6.126332831528241e+00   2.682385596104027e+00   4.517445865303756e+00  2.69113995e+00  -6.10418700e-01  -1.00339127e+00
C     4.355775810866917e+00   2.629832245747878e+00   6.227387091589103e+00  2.56157229e+00   1.57218177e+00   1.10689342e+00
C     6.282442606707491e+00   8.753893083238315e-01   6.234700023527880e+00 -6.80008630e-01   2.59337000e-02  -1.00047795e+00
C     7.061649554581531e+00   3.588591053833178e+00   3.577625387846887e+00 -1.03285920e+00  -3.10102257e+00   2.50964180e-01
C     1.765806177487474e+00   5.311745771505711e+00   3.505299462383625e+00 -7.02450300e-02  -4.71564450e-01   1.72536032e+00
C     5.760381354343200e-02   5.279350414931133e+00   5.372247617867091e+00 -3.23810730e-01   1.63962932e+00  -1.13769586e+00
C     1.832004713736522e+00   3.560003039498097e+00   5.358442279212563e+00 -3.07299679e+00   1.23779333e+00  -4.42456630e-01
C     8.535610484792404e-01   4.423762541910252e+00   4.369623728972939e+00  2.39379095e+00   6.53440150e-01   3.46956968e+00
C     2.650948952488208e+00   6.201120048323679e+00   4.325927046695954e+00  9.89010130e-01   6.88446300e-02   1.98691104e+00
C     9.478692022210423e-01   6.144715781097371e+00   6.300149900706589e+00 -4.21333520e-01   1.59587292e+00  -2.10526765e+00
C     2.628107102662231e+00   4.514996089616225e+00   6.269352659705439e+00  1.83557548e+00  -1.77284383e+00  -1.97787032e+00
C     3.610861528648959e+00   3.592471683909888e+00   3.610495231631350e+00  6.91749400e-02  -1.11635229e+00  -7.86401340e-01
C     5.378223313342594e+00   5.290864993312140e+00   3.548269166279264e+00 -7.70208950e-01   1.23136704e+00   1.86306684e+00
C     3.554748991086977e+00   5.395287152926130e+00   5.290473177057326e+00 -3.47299470e-01  -1.01194326e+00   9.48119990e-01
C     5.289825884093548e+00   3.565557418764913e+00   5.460531454522669e+00  7.04225370e-01  -8.86070900e-01  -3.36523998e+00
C     4.498970861661697e+00   4.444487005890410e+00   4.517417644865954e+00 -1.56421831e+00   1.15763385e+00  -1.07361288e+00
C     6.336105652918847e+00   6.199758785391948e+00   4.449420322272915e+00 -2.94340596e+00   1.16112815e+00  -9.20614300e-01
C     4.422264512927312e+00   6.317932686153912e+00   6.160110065460149e+00  5.96872050e-01  -2.37158044e+00  -2.19446280e-01
C     6.238077590535773e+00   4.469582723276510e+00   6.210256503917164e+00 -1.25591550e+00  -9.22126620e-01   2.55727772e+00
