64
Lattice="7.10842262195238 0 0 0 7.10842262195238 0 0 0 7.10842262195238 " PBC="1 1 1" Properties=species:S:1:pos:R:3:force:R:3 Energy="-514.37264721"
C     2.557852145045080e-02   1.252717318322600e-02   7.106365371409545e+00 -6.61204280e-01  -1.38952330e-01  -3.56940540e-01
C     1.785409358883553e+00   1.783283585099042e+00   7.103219681147517e+00 -2.33407050e-01  -2.31682020e-01   1.96527400e-02
C     7.103270932874608e+00   1.789715072632939e+00   1.754805395893441e+00  2.21099750e-01  -8.06746080e-01   5.81268210e-01
C     1.780158509262611e+00   7.101510034423181e+00   1.755028387111030e+00  4.06775200e-02  -2.99172400e-02   1.55039100e+00
C     9.035645365573682e-01   8.741675837281322e-01   8.847763358146725e-01 -2.02184840e-01   8.76462600e-01  -5.33902100e-02
C     2.660022214204602e+00   2.682966496400533e+00   8.865796004649142e-01  1.14275840e-01  -8.41754620e-01   3.01687360e-01
C     8.646145034848880e-01   2.654761554960444e+00   2.659407691069103e+00  7.15288530e-01   7.81260700e-02   1.60561200e-02
C     2.663259247697298e+00   8.672074428039854e-01   2.676046304811511e+00  1.75069600e-02   9.21868930e-01  -1.26108536e+00
C     3.553813949175542e+00   7.107534493677857e+00   3.082439517555840e-02 -2.34404740e-01   2.02198280e-01  -1.55365586e+00
C     5.313036661053503e+00   1.738802701638618e+00   1.163293361763000e-03  4.39217050e-01   1.53975090e+00  -5.57780880e-01
C     3.554701648992328e+00   1.775699751174216e+00   1.769492392205527e+00 -3.37318800e-01  -3.73976880e-01   5.68586600e-02
C     5.339333559693931e+00   7.098459170518903e+00   1.753364945133724e+00  2.65910040e-01   3.13182400e-01   1.28304022e+00
C     4.433794232248500e+00   8.682843688309154e-01   8.697312882552164e-01  4.77815130e-01   3.66288870e-01   1.11313307e+00
C     6.233670795016730e+00   2.642826797718369e+00   8.688057716300924e-01 -1.23143696e+00   6.50240850e-01   2.21010020e-01
C     4.433649860185088e+00   2.639694897796224e+00   2.660114765867114e+00  3.23916070e-01   7.92706890e-01   3.41894660e-01
C     6.219033841999887e+00   9.118784054852679e-01   2.661194961768449e+00  1.20313100e-02  -1.07420000e+00  -5.94401420e-01
C     2.943668891168200e-03   3.547962295674758e+00   7.101348175640124e+00 -1.96107790e-01   1.55355150e-01   3.52015980e-01
C     1.781684047841090e+00   5.337909245053561e+00   2.412136589757700e-02  1.55494770e-01   1.11957170e-01  -2.33281810e-01
C     7.091736166573360e+00   5.334790922218620e+00   1.787519209801395e+00  9.96656700e-01  -5.65764990e-01  -6.61695900e-02
C     1.788167355775887e+00   3.510422573650085e+00   1.794808612861300e+00 -8.46208890e-01   2.23050288e+00  -3.18152310e-01
C     8.768704903451610e-01   4.443095958667901e+00   9.029435447572852e-01  5.31910850e-01  -4.72794390e-01  -1.78876510e-01
C     2.688373589150662e+00   6.239979875513111e+00   9.217704864032601e-01 -7.36971370e-01  -5.44523290e-01  -9.80857310e-01
C     9.006621676016223e-01   6.192232316437666e+00   2.672997146928662e+00 -8.14217740e-01   1.16317353e+00  -5.12880570e-01
C     2.654632679258344e+00   4.476715030196512e+00   2.668308004863152e+00  6.21543180e-01  -1.60361594e+00   2.79084550e-01
C     3.525479634443770e+00   3.591514961309462e+00   2.888599941131060e-02  1.07741996e+00  -9.14713790e-01  -9.17064440e-01
C     5.319958132158597e+00   5.373003598612728e+00   1.175207078074120e-02  6.83608450e-01  -1.82931444e+00  -1.21911250e-01
C     3.560315596840698e+00   5.372083768725700e+00   1.803771694027084e+00 -2.40185670e-01  -1.46265324e+00  -2.15686570e-01
C     5.317635739404417e+00   3.532847656657852e+00   1.771167349827478e+00  6.60814350e-01   4.65708710e-01   2.54815600e-02
C     4.419944821373728e+00   4.456331699417889e+00   9.105165027955021e-01  7.07655380e-01   1.87964180e-01  -2.56139310e-01
C     6.250119400622505e+00   6.221045312348670e+00   9.066155426300986e-01 -1.01041900e+00   5.66638170e-01  -1.09009297e+00
C     4.470436089412041e+00   6.196318379928095e+00   2.684122112665867e+00 -3.16881310e-01   8.51618300e-01  -7.19243120e-01
C     6.231885443591491e+00   4.441985765223110e+00   2.658854087115457e+00 -1.11458893e+00  -7.01639200e-01   5.24801210e-01
C     1.342070190656000e-04   1.293697374726900e-02   3.538085213528494e+00  2.98243450e-01  -5.13679310e-01   2.70699720e-01
C     1.755375278134886e+00   1.780371904109664e+00   3.525239511927666e+00  8.80883350e-01  -4.20516450e-01   1.29888716e+00
C     3.726519474308800e-03   1.798295151987958e+00   5.330221059484675e+00 -1.27716780e-01  -7.35493140e-01  -1.08433910e-01
C     1.800370527056093e+00   7.085475992024604e+00   5.306463786993694e+00 -3.70033180e-01   1.25444646e+00   9.78553420e-01
C     9.072287862495260e-01   8.756271561446968e-01   4.434266658015826e+00 -7.43953650e-01   6.48524720e-01   4.51787400e-02
C     2.649755803751441e+00   2.692329710675597e+00   4.450749099713272e+00  3.74890850e-01  -6.10230240e-01  -7.92891370e-01
C     8.820450665913899e-01   2.662096096503987e+00   6.224364377038399e+00  6.27442440e-01   6.19165460e-01  -4.63542360e-01
C     2.675430288907262e+00   8.912520377372664e-01   6.224172023122303e+00 -3.63072700e-01  -1.95612970e-01  -2.05319510e-01
C     3.570315512529836e+00   7.093181664313136e+00   3.517328264056963e+00 -3.86620000e-01   3.83191650e-01   1.53051615e+00
C     5.317630692424356e+00   1.743525679795799e+00   3.549089762586516e+00  5.17485860e-01   1.31619969e+00   2.41255770e-01
C     3.534801406614959e+00   1.789399743005516e+00   5.334784027048678e+00  5.37852010e-01  -4.95877650e-01  -2.22065820e-01
C     5.326533707419002e+00   7.080675674229318e+00   5.312706474822804e+00  4.54438520e-01   1.44499476e+00   7.80934510e-01
C     4.451261119394591e+00   8.743607195707176e-01   4.436044190176183e+00 -7.74300320e-01   2.93977600e-02  -5.30614200e-02
C     6.206816382790215e+00   2.671694101978189e+00   4.451852255819670e+00  1.32373000e-01  -3.89977020e-01  -6.93862760e-01
C     4.424479852836836e+00   2.658441443182366e+00   6.227059180053641e+00  1.17603910e-01   5.34360370e-01   2.25487650e-01
C     6.215744064011352e+00   9.253610928370745e-01   6.208845695279773e+00  1.86047320e-01  -2.01117437e+00   3.82807100e-02
C     7.106061273089862e+00   3.547281237703536e+00   3.559826395195990e+00 -4.36836170e-01  -5.04492500e-02  -6.65523900e-01
C     1.751018952416445e+00   5.304505558730336e+00   3.563352883657772e+00  1.14501818e+00   1.06070556e+00  -4.87373000e-01
C     1.415066582540780e-02   5.328294605870428e+00   5.310862265658272e+00 -3.37779530e-01   1.20536800e-01   9.56619270e-01
C     1.771410315712630e+00   3.577319228084644e+00   5.318710603988787e+00  1.45236760e-01  -4.48213050e-01   8.66131450e-01
C     8.782628170837403e-01   4.432199173296799e+00   4.418320120299701e+00  1.93161780e-01   1.63565160e-01   1.14590997e+00
C     2.676319694745476e+00   6.226977646446191e+00   4.433795796101477e+00 -1.67422290e-01  -6.83881030e-01  -2.91124750e-01
C     9.072535235602436e-01   6.231574165764961e+00   6.222851562536411e+00 -1.12469750e-01  -6.49708280e-01  -4.15777720e-01
C     2.680980118783601e+00   4.466494469069251e+00   6.237491856511885e+00 -1.06148987e+00   1.20426960e-01  -6.70875490e-01
C     3.580728854078553e+00   3.576244008079143e+00   3.565018884667222e+00 -1.63368801e+00  -7.53986520e-01  -5.68028760e-01
C     5.326358698054097e+00   5.303119131982531e+00   3.577012641817043e+00  8.28530430e-01   6.91187530e-01  -7.44662590e-01
C     3.563678591582220e+00   5.369077048125892e+00   5.326196412765682e+00 -4.95502240e-01  -1.39020035e+00   5.37712830e-01
C     5.317116184795121e+00   3.548277554217955e+00   5.323987257183839e+00  1.22921380e-01   1.18426140e-01   1.06911180e+00
C     4.426596030250810e+00   4.438376676890484e+00   4.452310891247112e+00  9.82628810e-01   4.21253850e-01   2.17307000e-01
C     6.234846599202304e+00   6.223076259775429e+00   4.434894118480493e+00 -5.15765180e-01  -5.13042200e-01   1.28081310e-01
C     4.428943231399934e+00   6.228639098065162e+00   6.224232018209215e+00  7.88947810e-01   2.37540530e-01   3.72899700e-02
C     6.227969200317454e+00   4.432329399599197e+00   6.230543515569287e+00 -6.85348510e-01   8.01392990e-01  -6.37342720e-01
