64
Lattice="7.10842262195238 0 0 0 7.10842262195238 0 0 0 7.10842262195238 " PBC="1 1 1" Properties=species:S:1:pos:R:3:force:R:3 Energy="-504.69627254"
C     7.052941950124709e+00   1.968364874013720e-02   8.949027814264460e-02 -2.43671160e-01  -1.38645200e-02  -1.07288096e+00
C     1.764171808958684e+00   1.814632937285087e+00   7.046588513071180e+00 -3.53718970e-01  -2.13433897e+00   1.46486513e+00
C     7.105909366098473e+00   1.828543693847070e+00   1.796100497588259e+00  3.02776840e-01  -1.11953127e+00   1.30736017e+00
C     1.750276264421108e+00   8.721977687359039e-02   1.598715950802885e+00  1.91392164e+00  -3.37209768e+00   7.01608078e+00
C     8.624819766988880e-01   9.616527891023533e-01   8.519081269674117e-01  1.70371300e-02  -4.90926250e-01   4.91718630e-01
C     2.594012406576115e+00   2.612576123332471e+00   8.601588731024458e-01  3.04266529e+00   1.30484117e+00   1.45454089e+00
C     8.217619463940276e-01   2.759582425999191e+00   2.700768758925835e+00  3.53316947e+00  -2.44818468e+00  -1.22615302e+00
C     2.670609285602151e+00   8.456778077936604e-01   2.790708147209611e+00 -1.05631938e+00   3.86147417e+00  -6.87779705e+00
C     3.555052947238208e+00   7.032062949036793e+00   9.383693640632219e-02  1.90691893e+00   3.59306936e+00  -6.34185247e+00
C     5.328451133336521e+00   1.780300890967690e+00   5.364008600629380e-02 -3.97879160e-01   1.82066472e+00  -7.29477800e-01
C     3.568973015833823e+00   1.764218013705714e+00   1.742841991708207e+00 -1.56569676e+00  -4.20641240e-01   3.27957270e-01
C     5.195055540712993e+00   3.766148930415299e-02   1.762791993043916e+00  4.60285967e+00  -1.30552783e+00   2.83635518e+00
C     4.432875610793318e+00   8.944200484463218e-01   8.285679056315466e-01 -9.30891990e-01  -6.96540040e-01   3.29805084e+00
C     6.257933334187540e+00   2.690978115198631e+00   9.556281876792249e-01 -1.95956403e+00  -9.98447640e-01  -1.26201723e+00
C     4.425791427894452e+00   2.709929240987777e+00   2.506890939187359e+00  9.35112910e-01  -8.91896810e-01   5.53175686e+00
C     6.246657385553886e+00   8.899570963885809e-01   2.728119978809261e+00 -1.62023472e+00   2.19091220e-01  -1.62472664e+00
C     7.107312426555208e+00   3.504757587327302e+00   6.238081571252439e-02  1.23771361e+00   9.77291300e-01  -1.67623914e+00
C     1.777575734987860e+00   5.314986714630848e+00   6.937587605194969e+00  7.39088220e-01  -1.08557650e-01   5.96412598e+00
C     1.446770147425980e-02   5.330261364240930e+00   1.800988106813319e+00  1.08475362e+00   7.49724670e-01   7.60222100e-02
C     1.865141052285009e+00   3.507478478253560e+00   1.821716764762822e+00 -3.82904016e+00   3.22743311e+00  -2.24297098e+00
C     9.410117780037546e-01   4.489380604368150e+00   8.527944761838996e-01 -1.00059159e+00  -2.04823974e+00   3.39267890e-01
C     2.681917222137595e+00   6.225055244632837e+00   8.180868918994876e-01 -2.63020512e+00  -1.09770013e+00   1.61066108e+00
C     9.706040702865885e-01   6.235949115550667e+00   2.709803777328534e+00 -3.68137495e+00  -1.32813900e-01  -2.89276221e+00
C     2.659896750545359e+00   4.541284813570640e+00   2.580675299719566e+00  1.02869427e+00  -4.63976763e+00   2.88169425e+00
C     3.548386313084041e+00   3.501730678807255e+00   1.384948195899840e-02  9.49651270e-01  -1.73333240e-01  -1.74825994e+00
C     5.374222906344737e+00   5.374428624095359e+00   6.970630894491360e+00 -8.16243720e-01  -3.26620450e+00   4.11761159e+00
C     3.541162094259561e+00   5.353300828215743e+00   1.726803399919153e+00  5.04419900e-01  -3.86065170e-01   1.61812770e-01
C     5.358442776802146e+00   3.569762406165774e+00   1.736214951468033e+00 -3.94882530e-01   1.52982682e+00   3.71787450e-01
C     4.449087150504717e+00   4.403801735772161e+00   7.693052705855113e-01  8.58191200e-01   2.16048123e+00   2.57216701e+00
C     6.163921104079408e+00   6.209541467685819e+00   1.032957945077383e+00  6.90173190e-01   1.25148458e+00  -4.95458142e+00
C     4.393398559267791e+00   6.230511740920176e+00   2.705753682456562e+00  3.82981160e-01   5.38453890e-01  -2.22173957e+00
C     6.269081686635165e+00   4.476434389671475e+00   2.670554053158394e+00 -1.99036351e+00  -4.18608870e-01   9.21174620e-01
C     7.085334250077562e+00   7.044450726052441e+00   3.598993306242607e+00  1.59614351e+00   1.71502233e+00  -1.31959630e+00
C     1.729046960266478e+00   1.827656918125225e+00   3.509250252591595e+00  1.23763876e+00  -2.32512046e+00   3.55277566e+00
C     7.070361779513055e+00   1.741288303776154e+00   5.417931601855949e+00  6.78878600e-02   3.74690630e-01  -3.12609864e+00
C     1.733706815630793e+00   7.069587530121285e+00   5.364224838845480e+00  1.38277194e+00   2.01098157e+00  -7.03522770e-01
C     8.965941595046488e-01   8.381460786066394e-01   4.398252972159216e+00 -1.46970332e+00   1.47792886e+00   3.06165176e+00
C     2.670696932453056e+00   2.651811346320466e+00   4.556559321012270e+00 -3.56607890e-01  -3.27037590e-01  -4.53851805e+00
C     8.129614348535628e-01   2.589500264233844e+00   6.215527470374120e+00  3.29125220e+00   3.31593520e+00   5.17717840e-01
C     2.743889303549469e+00   8.914839144831308e-01   6.281186406262084e+00 -3.77001398e+00  -1.67033653e+00  -5.71738500e-01
C     3.554472331278606e+00   1.538966388807380e-02   3.555709694404070e+00 -3.36456000e-01  -7.06356580e-01   3.36162872e+00
C     5.387560510790869e+00   1.832102525631773e+00   3.573448905220732e+00 -8.66277720e-01  -6.23763770e-01  -6.64439630e-01
C     3.541721242782850e+00   1.756424552397824e+00   5.408662147675244e+00  2.04682598e+00  -2.66694230e-01  -2.15161508e+00
C     5.291039434003234e+00   4.103976715430799e-03   5.335910925286627e+00  6.73228210e-01   1.41502843e+00   1.11274950e+00
C     4.473538844801444e+00   9.509073420488303e-01   4.495065636442722e+00 -1.04210556e+00  -1.39731223e+00  -2.46043888e+00
C     6.288602268160399e+00   2.718088004134108e+00   4.486538514836222e+00 -9.26394630e-01  -1.82125274e+00  -2.21938687e+00
C     4.536329532162238e+00   2.581692088491131e+00   6.146481726528858e+00 -2.80002306e+00   3.47281683e+00   2.80765729e+00
C     6.133228427974999e+00   9.877006796984027e-01   6.325174391698037e+00  3.28160695e+00  -6.12821596e+00  -2.75540864e+00
C     3.434398846739900e-02   3.621341120696494e+00   3.619667798011745e+00 -1.05546233e+00  -1.94584368e+00  -2.60529778e+00
C     1.792036399123726e+00   5.292087073328970e+00   3.530641557697735e+00  1.25538508e+00   3.16444872e+00   1.38546220e-01
C     7.099308058348184e+00   5.216315695421795e+00   5.285132405890240e+00  8.00164720e-01   3.39410780e+00   2.37698435e+00
C     1.790504960554474e+00   3.547938980048564e+00   5.301021649720048e+00 -4.68432510e-01  -7.54890490e-01   1.90055439e+00
C     9.523895903335529e-01   4.424833639030633e+00   4.394245669991416e+00 -5.41020490e-01   1.07973975e+00   1.96711595e+00
C     2.660559042280864e+00   6.235653618422353e+00   4.509260516656826e+00 -1.76632730e-01  -1.57891972e+00  -1.60240112e+00
C     8.352361036386901e-01   6.233244858333340e+00   6.257577486551183e+00 -1.40832890e-01  -9.83641370e-01  -2.32602618e+00
C     2.740434539071923e+00   4.367485373280391e+00   6.220668281612904e+00 -3.21244166e+00   1.93155754e+00  -1.81230413e+00
C     3.570265398150365e+00   3.538424853961278e+00   3.587984278878334e+00 -1.37167413e+00  -2.98359250e-01  -3.48391637e+00
C     5.311953763951572e+00   5.362360512844933e+00   3.565079164091039e+00 -1.03818390e-01  -6.15980780e-01  -1.19789293e+00
C     3.539469863170644e+00   5.326552473654719e+00   5.331940729084905e+00  7.24598820e-01  -1.71925179e+00  -1.03423066e+00
C     5.381114379906374e+00   3.557083325991159e+00   5.229326596764311e+00 -2.01220529e+00  -8.38785260e-01   4.04413258e+00
C     4.398121679593424e+00   4.405403974230708e+00   4.358899109597693e+00  3.10052817e+00   2.29975047e+00   2.89834410e+00
C     6.194100338817976e+00   6.221015101552534e+00   4.495458803297834e+00  1.37140270e-01  -1.56166930e+00  -9.51048140e-01
C     4.421121905075374e+00   6.189198654916129e+00   6.151805579650107e+00  1.13676721e+00   1.08714010e+00   1.98880272e+00
C     6.267740327286770e+00   4.324065066474871e+00   6.236612757886469e+00 -1.33491435e+00   3.75656701e+00  -2.06818735e+00
