64
Lattice="7.10842262195238 0 0 0 7.10842262195238 0 0 0 7.10842262195238 " PBC="1 1 1" Properties=species:S:1:pos:R:3:force:R:3 Energy="-511.80984044"
C     7.070505227481527e+00   7.089755760031427e+00   4.147608213472360e-02  4.15063370e-01  -5.82161420e-01  -1.42468632e+00
C     1.736127588954034e+00   1.776761820597871e+00   7.077545622497053e+00  1.07086480e-01  -3.70546700e-01   2.44363079e+00
C     7.084672029426282e+00   1.780067166031944e+00   1.822854041297796e+00  1.39926868e+00  -5.32649630e-01  -7.32621400e-01
C     1.797569524206908e+00   7.094032613584977e+00   1.825885712461000e+00 -1.27064558e+00   4.06907160e-01  -2.64197217e+00
C     8.629071314557902e-01   8.413467880597468e-01   8.778832273158323e-01  1.23628330e-01   1.51534795e+00   1.71528535e+00
C     2.665603250056242e+00   2.656275577894279e+00   8.938440529614232e-01 -3.77120220e-01  -2.33543600e-01  -9.57286310e-01
C     9.665208501652079e-01   2.656465230609780e+00   2.638379484190393e+00 -2.98555305e+00   4.45839730e-01   9.86217890e-01
C     2.661947103965872e+00   9.085921817080419e-01   2.657257961900362e+00  4.57146330e-01  -1.31461626e+00   1.45039157e+00
C     3.534936893150096e+00   2.949575990365420e-02   4.013344327025800e-03  1.22242362e+00  -3.32786690e-01   4.22549040e-01
C     5.417858171850285e+00   1.816120019297192e+00   7.066971133007542e+00 -2.39732946e+00  -3.46333420e-01   2.45850330e+00
C     3.525967627656633e+00   1.800029038433429e+00   1.823570712466344e+00  1.65524705e+00  -5.98061800e-02  -2.20033130e+00
C     5.340521306029506e+00   1.244037934303580e-02   1.764924093324558e+00 -2.36308059e+00  -1.43779390e-01   1.64215310e-01
C     4.475987980730939e+00   9.375200497285845e-01   8.753612300544825e-01 -1.13329296e+00  -4.22052450e-01   1.62341600e-01
C     6.259603458082109e+00   2.670986885011726e+00   9.701098216618198e-01 -1.26975304e+00   1.14341225e+00  -2.61028211e+00
C     4.435311098551382e+00   2.685108548472844e+00   2.676247402087431e+00  4.82764200e-02  -6.68234500e-02   5.35310250e-01
C     6.145733849385008e+00   8.959099027432476e-01   2.695214592911698e+00  3.95574755e+00  -7.28808950e-01  -9.25714150e-01
C     7.068233091275270e+00   3.580352320932371e+00   1.952811645321160e-02  1.80906070e+00  -5.64048350e-01  -1.60459390e-01
C     1.819235996352668e+00   5.298658952209612e+00   7.055616849556616e+00 -1.50304654e+00   1.95293504e+00   6.71763900e-02
C     7.091208863783407e+00   5.352555581188263e+00   1.824134339295884e+00  1.36788942e+00   4.62536290e-01  -2.66393573e+00
C     1.791113512614972e+00   3.584319887017724e+00   1.749658969000787e+00 -5.01777610e-01  -7.66853070e-01  -1.36768240e-01
C     8.844666218411192e-01   4.499549416178739e+00   8.129709601398736e-01  2.31725720e-01  -1.23347384e+00   2.84976383e+00
C     2.657462826640271e+00   6.263882444162444e+00   8.408724430183142e-01  1.90959350e-01  -2.69938076e+00   2.03877175e+00
C     8.762893767959760e-01   6.223364221975766e+00   2.698200628001681e+00  8.02565260e-01   4.29964720e-01  -8.34225420e-01
C     2.652554460821161e+00   4.426787175735062e+00   2.677677119128991e+00  1.89034290e-01   1.59938639e+00  -7.31437960e-01
C     3.568114318381327e+00   3.476992870500071e+00   7.070797170398531e+00  5.35627960e-01   1.06282406e+00   7.10786430e-01
C     5.331738139040235e+00   5.280164826910705e+00   7.097240929050288e+00 -1.36757616e+00   1.84450124e+00   6.41301260e-01
C     3.522881221639255e+00   5.283930798130556e+00   1.761869319787839e+00  3.29846540e-01   1.60948674e+00  -8.78309930e-01
C     5.340834360961692e+00   3.597129406747416e+00   1.800609227887673e+00 -2.12750350e-01  -1.88124095e+00  -2.65555110e-01
C     4.394684330751296e+00   4.388968803543685e+00   8.683866590324172e-01  1.64801674e+00   9.20911920e-01   1.16013880e-01
C     6.156042697121210e+00   6.200994229243304e+00   9.141011381543157e-01  2.07489411e+00   2.67191200e-02  -2.86395760e-01
C     4.399816327546032e+00   6.200034023515794e+00   2.615412099620947e+00  5.83723530e-01   7.48881980e-01   1.09127227e+00
C     6.276054267298896e+00   4.480766902174139e+00   2.669500087336526e+00 -1.93862672e+00  -1.08200533e+00   3.07790000e-01
C     3.740395115263040e-02   1.386924337388200e-02   3.561853788411441e+00 -2.46781558e+00  -6.74527100e-01   8.70799750e-01
C     1.780803598615377e+00   1.746594670177757e+00   3.541470884138174e+00  5.87048530e-01   1.57616378e+00   5.48775930e-01
C     7.074004703937352e+00   1.747647996241589e+00   5.348259605977865e+00  1.85488219e+00   1.24330412e+00  -1.03469079e+00
C     1.790423213694344e+00   3.795407197919220e-02   5.346657367519317e+00 -1.47893304e+00  -1.38866670e+00   2.38121310e-01
C     9.277230795052480e-01   8.708564804717362e-01   4.438132644741939e+00 -1.67699051e+00   1.20840991e+00   1.34714370e-01
C     2.645028276203783e+00   2.645845318299726e+00   4.465189789181576e+00  1.48957983e+00  -5.39034010e-01  -5.20758340e-01
C     8.428220700903015e-01   2.662890675984451e+00   6.231786707601299e+00  3.61873890e-01  -3.43463410e-01  -7.20048600e-02
C     2.623927989919706e+00   8.803374102253875e-01   6.263571166335915e+00  1.95521215e+00   1.02321103e+00  -1.58107898e+00
C     3.540001715351072e+00   1.798693934496940e-02   3.589989920320567e+00  7.78380490e-01  -1.04202042e+00  -1.35935607e+00
C     5.328624436679996e+00   1.741712463353889e+00   3.560910500729767e+00  1.91538560e-01   3.43499600e+00  -5.11479120e-01
C     3.577824992354057e+00   1.742741834033491e+00   5.363933464602287e+00  1.33709200e-01   1.03737647e+00  -1.62051394e+00
C     5.328941827749979e+00   3.089718542318720e-02   5.334482487761138e+00 -1.28298310e-01  -1.76024838e+00   3.56564960e-01
C     4.514506106045029e+00   8.869310408792470e-01   4.399747446930843e+00 -3.69423924e+00  -4.73943600e-01   2.80338597e+00
C     6.252140111920692e+00   2.720277469385294e+00   4.425661272676280e+00 -4.54964640e-01  -2.87418191e+00   1.36947100e-01
C     4.529407208046429e+00   2.678865860643734e+00   6.168471418651149e+00 -1.96273312e+00  -1.36319033e+00   1.34190869e+00
C     6.210709452606510e+00   8.782445484376070e-01   6.239537162952337e+00  8.15059870e-01   9.43065000e-02  -6.21313160e-01
C     3.627115292390720e-02   3.588961402651680e+00   3.570836346655204e+00  1.22555010e-01  -1.32997293e+00  -1.55986703e+00
C     1.787806176822565e+00   5.371858147391741e+00   3.549280339396959e+00 -5.91409570e-01  -1.65411773e+00   1.42789750e+00
C     8.987889560727999e-04   5.302993170733704e+00   5.356297312686977e+00 -3.70029650e-01   1.51498804e+00  -1.90804505e+00
C     1.775714892114397e+00   3.495386127281999e+00   5.351798036589649e+00 -7.84439860e-01   1.00678018e+00  -1.28532295e+00
C     9.015067903773308e-01   4.425127785558649e+00   4.423799008118293e+00  5.43261240e-01   1.13741732e+00   1.65046173e+00
C     2.640461683344243e+00   6.229061551621469e+00   4.524048310401664e+00  1.23766810e+00   2.42625400e-02  -2.68940402e+00
C     8.408703815757543e-01   6.255319780442845e+00   6.176084681445622e+00  1.63165330e+00  -1.51878350e+00   1.57523658e+00
C     2.692094350802649e+00   4.347836626895317e+00   6.183355389354037e+00 -3.69195940e-01   2.09631065e+00   8.55355510e-01
C     3.555719717279964e+00   3.590397304020919e+00   3.558433784120506e+00 -5.30637640e-01  -2.01241642e+00   3.17133710e-01
C     5.328584842766003e+00   5.353292298108599e+00   3.490952035420096e+00 -2.87935720e-01  -2.27107160e-01   1.96309936e+00
C     3.542998341990760e+00   5.309274599466095e+00   5.322712645923847e+00  1.09148001e+00   1.75729600e-02   4.16760260e-01
C     5.363264704202197e+00   3.553469830436508e+00   5.292255542945064e+00 -3.61178380e-01   1.42079459e+00  -9.95023600e-02
C     4.458915611040259e+00   4.438855002648583e+00   4.396466554470583e+00 -3.04121540e-01   1.02668720e+00   7.25917220e-01
C     6.151656160606635e+00   6.210634245495191e+00   4.468772860687413e+00  2.87029855e+00   2.97946670e-01  -1.08960179e+00
C     4.449248653866642e+00   6.226044879229994e+00   6.235979255262575e+00 -1.04282292e+00  -2.87712580e-01  -6.82578710e-01
C     6.235137760192820e+00   4.461152987059904e+00   6.209104086442010e+00 -9.91374700e-01  -1.46705825e+00   6.09017520e-01
