64
Lattice="7.10842262195238 0 0 0 7.10842262195238 0 0 0 7.10842262195238 " PBC="1 1 1" Properties=species:S:1:pos:R:3:force:R:3 Energy="-510.79524959"
C     3.172083835216660e-02   7.103944598086304e+00   7.077672721093498e+00 -1.06141143e+00   4.84133800e-02   3.21474820e-01
C     1.758201160463241e+00   1.768208895417260e+00   2.022431536461440e-02  4.79402560e-01   3.87180830e-01  -3.33481480e-01
C     7.107171111113522e+00   1.787987512683601e+00   1.764217445031904e+00 -3.53800720e-01  -3.61637100e-01  -5.59865810e-01
C     1.746892442001309e+00   7.101093196520744e+00   1.772817356886033e+00  7.80009140e-01   1.06423430e-01   8.35768770e-01
C     8.513916289798426e-01   8.554728587428894e-01   8.838318397011532e-01  1.45638507e+00   1.30021738e+00   1.93527580e-01
C     2.640286176389755e+00   2.681224648521729e+00   9.021560026152154e-01  3.90923940e-01  -4.05423690e-01  -2.59226610e-01
C     8.011481605540633e-01   2.685236215743099e+00   2.674197333003823e+00  2.75804831e+00  -7.58742940e-01  -1.40299020e-01
C     2.641884505215863e+00   9.135616088774579e-01   2.665580929609216e+00  1.27608770e-01  -3.44243910e-01   1.22140440e-01
C     3.531763337871397e+00   7.765823760742840e-02   6.524231123820540e-02 -2.27045950e-01  -2.71403937e+00  -1.57865232e+00
C     5.350414453210892e+00   1.760582410956715e+00   7.092781744456535e+00 -6.30429300e-02   1.15570531e+00   1.25411919e+00
C     3.561099442603006e+00   1.798846267993687e+00   1.793074726415830e+00 -5.57045950e-01   8.50908220e-01   7.07061720e-01
C     5.293332326803541e+00   1.740994868090400e-02   1.804158107880708e+00  1.09095811e+00   4.95063200e-01  -1.24407836e+00
C     4.422763595279464e+00   9.328296281470035e-01   9.201799768420349e-01  8.26429710e-01  -4.41467870e-01  -1.30457260e-01
C     6.295239189108014e+00   2.727070064788287e+00   8.071543511626063e-01 -3.95102220e-01  -3.00992150e+00   1.28104312e+00
C     4.503757602369778e+00   2.653089725044447e+00   2.723926080547688e+00 -6.42644500e-01  -2.93713010e-01  -1.52315462e+00
C     6.241344905908830e+00   8.909144587470424e-01   2.665639787348509e+00 -2.00623931e+00   4.96219370e-01   5.12601250e-01
C     7.146587741046780e-02   3.598564099684812e+00   7.019656334701202e+00 -1.54033455e+00  -1.77198210e-01   1.82263650e+00
C     1.844961093477544e+00   5.296638738501009e+00   5.003618682218000e-03 -4.17442800e-01   1.18661866e+00   8.00502700e-02
C     7.030743270377390e+00   5.387613610707840e+00   1.751469697494780e+00  2.61455975e+00   3.73747290e-01  -2.20587330e-01
C     1.698199960306988e+00   3.569692956876776e+00   1.785863516004745e+00  1.63146693e+00   4.78583750e-01  -1.45240650e-01
C     8.724443599165917e-01   4.505224354293190e+00   8.891439639250792e-01  1.13382820e-01  -1.38769168e+00  -1.21767334e+00
C     2.692752803989940e+00   6.216080079148600e+00   9.520772462436301e-01 -3.89690120e-01   2.92343060e-01  -1.92647043e+00
C     8.728119364502719e-01   6.241248800035007e+00   2.664551274592709e+00 -1.48072294e+00   2.60970540e-01   3.92814260e-01
C     2.596690220461296e+00   4.507433154453902e+00   2.660994788587471e+00  1.90988080e+00  -3.57324939e+00   3.67013300e-02
C     3.592024848463995e+00   3.490981037784386e+00   7.071365062281642e+00 -1.09537140e+00   8.58176570e-01   4.63946580e-01
C     5.266003214114463e+00   5.307411837318523e+00   7.069369017209946e+00  1.15936839e+00  -4.15455960e-01   1.38925586e+00
C     3.552198417966694e+00   5.303591913170988e+00   1.823005379615376e+00  6.27981530e-01   6.13064320e-01  -1.08092229e+00
C     5.485226114704549e+00   3.483204565606558e+00   1.778741374129088e+00 -4.22303961e+00   2.66189608e+00   2.21685540e-01
C     4.470638963793616e+00   4.314227507158374e+00   8.898933338376795e-01 -5.00749200e-02   3.19374738e+00   4.47824830e-01
C     6.161414389926692e+00   6.294385254298674e+00   8.328542844714065e-01  5.41740630e-01  -2.69653102e+00   1.00716942e+00
C     4.454277365280709e+00   6.248585687358013e+00   2.697964201865340e+00 -3.86914390e-01  -1.16035050e+00  -6.42460700e-01
C     6.272264838284401e+00   4.494870225904898e+00   2.662096451925118e+00 -1.75028521e+00  -1.60274763e+00  -5.45937400e-02
C     7.034570018610641e+00   3.919129293620320e-02   3.608586122568297e+00  1.92380005e+00  -2.10414468e+00  -1.18866443e+00
C     1.700404353245676e+00   1.728544110450339e+00   3.567831616413729e+00  1.40857020e+00   1.68025496e+00  -5.17288180e-01
C     5.089481319044980e-02   1.795581298400095e+00   5.365494758546544e+00 -1.14829407e+00  -1.13793031e+00  -5.96834680e-01
C     1.835844186046263e+00   7.069996193337708e+00   5.339930738278237e+00 -1.25352820e+00   1.16110850e-01  -1.42423560e+00
C     8.541469957558070e-01   8.422386818458782e-01   4.475652605351728e+00  8.66077800e-01   7.39504930e-01   1.59889810e-01
C     2.615364757526297e+00   2.649002666374852e+00   4.436328100575626e+00  1.41611649e+00   3.01279770e-01  -8.88342440e-01
C     9.658282054651153e-01   2.660227789786772e+00   6.208786695372027e+00 -1.89020497e+00   1.41055220e+00  -1.69658010e-01
C     2.625324581711858e+00   9.251828135977648e-01   6.205099272222128e+00  1.46724250e+00  -1.50868161e+00   1.95387436e+00
C     3.571935237708030e+00   5.925140373829560e-02   3.568818976315648e+00 -9.91688330e-01  -2.23723641e+00  -8.52774050e-01
C     5.363176488677483e+00   1.740223035562320e+00   3.620326962041299e+00 -9.20655740e-01   6.67875000e-01  -6.26345640e-01
C     3.528247369875093e+00   1.779130489183307e+00   5.363203856104570e+00 -3.09035000e-03  -8.19262700e-02  -1.26426699e+00
C     5.313588985491076e+00   7.091995126409406e+00   5.432279739661741e+00 -1.12781320e+00   2.63069890e-01  -2.56367025e+00
C     4.403602202349217e+00   8.688303667723576e-01   4.515736289663646e+00  1.36730502e+00   5.28780050e-01  -8.48344480e-01
C     6.261316445765076e+00   2.632020786904124e+00   4.473995632039006e+00  5.12413890e-01   1.09550242e+00  -1.11930244e+00
C     4.475173995256723e+00   2.588287638419098e+00   6.204021422100258e+00 -5.05958570e-01   2.37849561e+00   6.52261700e-02
C     6.197538753923496e+00   9.187255224897567e-01   6.223163480120976e+00  2.33739232e+00  -1.67729704e+00   3.68434040e-01
C     1.063213879696020e-02   3.591702552582404e+00   3.565646131879210e+00 -6.31464100e-01  -6.36901640e-01  -2.08191170e-01
C     1.761470679447310e+00   5.341791438983248e+00   3.531135237648694e+00 -1.05638336e+00   7.02026870e-01   1.93936030e-01
C     7.068313203198198e+00   5.351731786090831e+00   5.327208438894092e+00  2.01768830e+00  -3.69239680e-01  -8.91736600e-02
C     1.769389320077537e+00   3.582277495030546e+00   5.249784423811993e+00  7.88266310e-01  -8.82680610e-01   2.60681579e+00
C     8.703227090172004e-01   4.469144631190439e+00   4.449995962336683e+00 -6.90616100e-02  -4.59596500e-02  -1.14840316e+00
C     2.692918643489664e+00   6.181927236165452e+00   4.337679970487409e+00  2.79001400e-02   1.76883842e+00   3.29974544e+00
C     1.010037547181455e+00   6.167315731301589e+00   6.214782863104675e+00 -3.80839515e+00   1.40687315e+00   3.14504000e-01
C     2.685496099674086e+00   4.458354258905957e+00   6.129355759331623e+00  4.12458120e-01  -2.02513719e+00   2.32512075e+00
C     3.554171929338685e+00   3.544736493489802e+00   3.558643340419343e+00 -2.38393530e-01  -2.15460910e-01  -6.56617310e-01
C     5.329408140273851e+00   5.309780079398602e+00   3.550117427244690e+00 -4.16254400e-02   1.09326968e+00   2.85402790e-01
C     3.566697112163577e+00   5.295200420268078e+00   5.274366344411120e+00  3.20556340e-01   1.26028215e+00   1.05568630e-01
C     5.426746116988976e+00   3.528423090082259e+00   5.301488246580825e+00 -3.85433150e+00  -9.93625580e-01   1.26336760e-01
C     4.482362032210067e+00   4.389146656277638e+00   4.414093381125623e+00 -6.82783350e-01   6.55415130e-01   6.43910380e-01
C     6.155950571964055e+00   6.226844079185160e+00   4.486069785448660e+00  1.19615732e+00   2.34716620e-01  -5.48768770e-01
C     4.384049917259098e+00   6.199031451589470e+00   6.242527747432797e+00  3.79923620e-01   8.00991820e-01   8.92711800e-02
C     6.192071595002228e+00   4.428803053305868e+00   6.148890486617871e+00  1.92523914e+00   1.39368079e+00   2.19268812e+00
