64
Lattice="7.10842262195238 0 0 0 7.10842262195238 0 0 0 7.10842262195238 " PBC="1 1 1" Properties=species:S:1:pos:R:3:force:R:3 Energy="-509.74730172"
C     7.497722493206919e-02   7.091463558565883e+00   7.065501182293952e+00 -1.03571060e+00   7.26207030e-01   1.41057178e+00
C     1.802059132849474e+00   1.856576895796659e+00   8.737317663373000e-03 -4.69664950e-01  -2.80589796e+00  -1.45286819e+00
C     7.819549218904801e-03   1.741919958210167e+00   1.710327000380934e+00 -4.58940250e-01  -1.33432400e-01   1.87005133e+00
C     1.775153895401226e+00   1.977705341336400e-02   1.733087885273269e+00  1.43396322e+00  -1.29525477e+00   2.54733254e+00
C     9.538798711358358e-01   8.794807031312250e-01   8.529816409514842e-01 -1.49394276e+00   1.03636316e+00  -2.28997470e-01
C     2.623799043133380e+00   2.740108475726343e+00   9.326458754222765e-01  3.97083490e-01  -1.94771937e+00  -4.78466640e-01
C     8.117076512718472e-01   2.666952997343328e+00   2.662500992256422e+00  1.23675295e+00  -1.22409402e+00   1.36002283e+00
C     2.638131897830538e+00   8.653683517037389e-01   2.689737553282988e+00  2.77949910e-01   2.15794770e+00  -2.26432916e+00
C     3.527221269069896e+00   7.105178691337363e+00   8.746416444326600e-03  9.88382270e-01  -4.53888060e-01  -9.56129790e-01
C     5.261078854344459e+00   1.700344997916799e+00   7.068772336215224e+00  1.72413569e+00   3.30833185e+00   9.49770430e-01
C     3.568273120542658e+00   1.820575365342729e+00   1.768829247459308e+00 -1.05665575e+00  -2.17569365e+00  -1.90921890e-01
C     5.370841216451724e+00   7.068991133463467e+00   1.696566586957364e+00 -1.29472151e+00   2.66336970e-01   2.54219063e+00
C     4.444758689802946e+00   8.526729221570976e-01   8.413342772359356e-01 -5.11357600e-01   4.62774640e-01   1.20133579e+00
C     6.221746700408585e+00   2.627539281863345e+00   8.802346935185283e-01 -1.46466111e+00   2.09192010e-01  -7.81753450e-01
C     4.462116818082950e+00   2.658350455372831e+00   2.619621920749189e+00 -6.99451400e-02  -1.64866850e-01   2.13131959e+00
C     6.240584589025395e+00   8.038232021544218e-01   2.626339806630446e+00  5.13807070e-01   2.33053257e+00   1.05837360e-01
C     1.000567351145960e-02   3.555318517907291e+00   7.098393915199251e+00 -1.97232797e+00  -1.29769144e+00   7.23890500e-01
C     1.777525620608389e+00   5.293191508951439e+00   7.082348925829840e-02  8.35552460e-01   1.37885146e+00   4.17823450e-01
C     7.072802527503859e+00   5.298082103713999e+00   1.789148957855483e+00  1.29242500e+00   1.40689899e+00  -5.97260170e-01
C     1.702044337428336e+00   3.514313724192273e+00   1.841320799169615e+00  1.58456947e+00   2.43746717e+00  -1.11557263e+00
C     7.940481969569811e-01   4.410703943051955e+00   9.635072343954590e-01  3.52791057e+00  -2.88554050e-01  -2.35308233e+00
C     2.745706642876498e+00   6.235018125440124e+00   1.008761372068486e+00 -2.19517051e+00  -1.53102274e+00  -3.74333206e+00
C     9.192186337669063e-01   6.186978268026546e+00   2.624719157357313e+00 -1.35044842e+00   1.60897189e+00   4.69504840e-01
C     2.706708841204012e+00   4.453229868123426e+00   2.660893777902040e+00 -2.19219943e+00  -2.04268721e+00   1.98388385e+00
C     3.497079495718536e+00   3.585295304769641e+00   5.605567018102220e-02  1.65348328e+00   5.14514800e-01  -9.10994710e-01
C     5.317254088193949e+00   5.400616692785476e+00   4.187856102346801e-03  2.80994620e-01  -3.89731631e+00  -5.24718900e-01
C     3.615446887744216e+00   5.264500209235690e+00   1.842743834293913e+00 -9.05479710e-01   3.16871894e+00  -1.12787733e+00
C     5.297089981168926e+00   3.518242620458574e+00   1.787663724033260e+00  3.29983562e+00   1.62987265e+00  -1.29360413e+00
C     4.481379008445947e+00   4.444982889452381e+00   9.182717918739223e-01 -1.39704897e+00  -5.51857100e-02  -7.25651560e-01
C     6.244190336399389e+00   6.160211715903614e+00   8.725064164460643e-01  3.31619140e-01   2.72469170e+00  -6.48156030e-01
C     4.451234960399350e+00   6.225693723152566e+00   2.685687031905660e+00  7.63864180e-01  -4.45396630e-01  -5.23070190e-01
C     6.253172325969342e+00   4.505856648485238e+00   2.665868749641100e+00 -3.35354656e+00  -3.49875310e+00   2.07444874e+00
C     2.007532282649920e-02   7.063226558139777e+00   3.558846996727407e+00 -1.65890800e-02   5.79458550e-01  -7.85815140e-01
C     1.739376848933635e+00   1.755717833020944e+00   3.509405002952033e+00  4.30126610e-01   1.93115840e-01   2.32169176e+00
C     5.649148757185440e-02   1.782331767310224e+00   5.308441421250804e+00 -2.85794567e+00  -1.96150958e+00   9.76575300e-01
C     1.802660078897769e+00   7.079303606495206e+00   5.342208561222590e+00  1.22543046e+00   8.20385610e-01  -1.15039611e+00
C     9.197596558125144e-01   8.323606045204476e-01   4.465746663009626e+00 -1.19897995e+00   1.15483249e+00  -1.61180034e+00
C     2.634028631957369e+00   2.668620988711111e+00   4.462930305967583e+00 -7.19154690e-01   1.76820589e+00  -3.39015891e+00
C     8.546948418871304e-01   2.605664106429462e+00   6.198914091532013e+00  2.03059894e+00   4.71383824e+00   2.96393800e-01
C     2.668331036152441e+00   8.878001166287682e-01   6.155935857529231e+00  2.70125070e-01   1.04043641e+00   2.58236752e+00
C     3.548286013240872e+00   4.799990807845480e-02   3.526139651484037e+00  7.23081730e-01  -1.44120946e+00   3.84291510e-01
C     5.375159369940695e+00   1.776468029490986e+00   3.523450108701533e+00 -7.57330210e-01  -6.98783400e-01  -5.86031440e-01
C     3.497103522186991e+00   1.864990709146596e+00   5.301285230030798e+00  1.38101047e+00  -3.19587976e+00   8.23381580e-01
C     5.303672522683499e+00   1.383085789173400e-03   5.323397684611737e+00  9.63245950e-01   1.33714657e+00  -1.03932012e+00
C     4.447364353198533e+00   9.525930333889373e-01   4.352475156991773e+00 -6.50625110e-01  -1.02850361e+00   2.89871719e+00
C     6.180686745334036e+00   2.623655381912230e+00   4.508095588357860e+00  2.73230476e+00   1.51361065e+00  -2.85009907e+00
C     4.324902865164863e+00   2.667334861806474e+00   6.270655349234780e+00  3.04859463e+00   7.73347100e-02  -1.33919452e+00
C     6.222148468455067e+00   9.240094262758815e-01   6.232823826461557e+00  2.25334920e-01  -2.66639591e+00  -1.74841459e+00
C     7.087814307645453e+00   3.586732059149595e+00   3.605140314703251e+00 -3.82390710e-01   3.91702000e-02  -1.56217580e+00
C     1.751800239146610e+00   5.359649289373438e+00   3.546681855508217e+00  2.94997378e+00   3.74205830e-01  -1.41101036e+00
C     8.868965650295400e-03   5.371668423592014e+00   5.408319806041864e+00  3.72518520e-01  -1.68120840e-01  -2.13741283e+00
C     1.746910994984347e+00   3.644631583074019e+00   5.222589802478885e+00  9.46507310e-01  -1.92346265e+00   3.94955809e+00
C     8.807588686025272e-01   4.570588930400459e+00   4.409033037230897e+00 -9.70443340e-01  -3.82543468e+00   1.84268014e+00
C     2.711785676639216e+00   6.219242403119559e+00   4.412108283024761e+00 -1.63636173e+00   8.27188560e-01   6.71407720e-01
C     1.019169737721369e+00   6.218866225394509e+00   6.244444178171149e+00 -4.06711200e+00  -6.57284260e-01   4.84365110e-01
C     2.676657700241057e+00   4.489425245262204e+00   6.270711434689252e+00 -1.72323970e+00  -1.15472731e+00  -1.36147279e+00
C     3.593182384003435e+00   3.523994613874225e+00   3.544244661728724e+00 -1.48895671e+00   4.31053260e-01   5.71019530e-01
C     5.328155067534398e+00   5.340642362466726e+00   3.579288047897705e+00  4.08941980e-01   1.02872860e-01   1.37100740e-01
C     3.523263086102401e+00   5.353126387524648e+00   5.334420502315892e+00  1.57375201e+00  -1.75508628e+00   2.79087400e-02
C     5.362645063002411e+00   3.536803280593203e+00   5.319662208524926e+00 -2.72005290e+00   5.14887400e-01   3.11484792e+00
C     4.433742482931827e+00   4.392606680987923e+00   4.482324855159765e+00  7.94130640e-01   1.38116838e+00  -1.52081934e+00
C     6.228391724957986e+00   6.240573002296524e+00   4.441991594129658e+00 -5.09442600e-01  -6.96340580e-01   1.53126534e+00
C     4.429745630145280e+00   6.193227993194049e+00   6.174455217728440e+00 -8.18437500e-02   2.21117435e+00   1.62697486e+00
C     6.205987682881176e+00   4.451347842150555e+00   6.268415556351444e+00  8.19681350e-01   1.58553500e-02  -1.59983471e+00
