64
Lattice="7.10842262195238 0 0 0 7.10842262195238 0 0 0 7.10842262195238 " PBC="1 1 1" Properties=species:S:1:pos:R:3:force:R:3 Energy="-508.2580798"
C     2.829187744873100e-02   3.152414829827120e-02   7.100485355302507e+00 -3.50199270e-01  -1.13710737e+00   4.93711410e-01
C     1.786404822387258e+00   1.738046365471850e+00   2.820970408324380e-02 -1.00244695e+00   2.04630419e+00  -1.29747486e+00
C     7.075785577056342e+00   1.835954295512646e+00   1.775684965655167e+00  2.16105039e+00  -1.97350335e+00   6.48184210e-01
C     1.798348322989156e+00   4.458829172621200e-03   1.749641197944237e+00 -1.60342658e+00   1.87767150e-01   1.99679599e+00
C     8.543264834269620e-01   9.243500618878316e-01   9.300316819195453e-01  1.74557455e+00  -1.11929005e+00  -1.72859818e+00
C     2.688843242633165e+00   2.670783655209020e+00   8.724410900421866e-01 -1.78329830e-01  -6.30975700e-01  -2.51563480e-01
C     9.661272568047385e-01   2.668521612962883e+00   2.719460711626256e+00 -1.23968227e+00  -5.72315980e-01  -2.17520863e+00
C     2.679342480380404e+00   8.650517425602442e-01   2.632441107933645e+00  9.98369120e-01   1.16639654e+00   8.42396860e-01
C     3.496628892808654e+00   4.964991513700920e-02   3.329087565624600e-02  1.76612694e+00  -2.20858386e+00  -1.83735675e+00
C     5.231406805559828e+00   1.703166828444260e+00   7.655266463733980e-02  3.86154268e+00   7.39436240e-01  -3.10766073e+00
C     3.556173732232703e+00   1.749929231228799e+00   1.760312290897155e+00  6.65406810e-01   6.79159120e-01   1.53731260e-01
C     5.321018140139691e+00   7.083500134873148e+00   1.802613376561156e+00  1.67410290e+00   1.02094560e-01   7.22779410e-01
C     4.450980976459137e+00   7.739347729852387e-01   9.144700652882937e-01 -1.41252792e+00   3.55485932e+00   5.52522600e-01
C     6.182438900425640e+00   2.623543353171738e+00   8.362875104284141e-01 -6.92229000e-02   1.55968197e+00   2.45772710e+00
C     4.414310472352438e+00   2.703068120390726e+00   2.637150366835169e+00  1.52049667e+00  -2.27725550e-01   3.14138850e-01
C     6.260145546391110e+00   9.651413896715707e-01   2.686166850432509e+00 -2.41120757e+00  -2.59667265e+00  -4.96546850e-01
C     7.609495330483799e-03   3.526097427453674e+00   2.402533110798080e-02 -1.34895109e+00   3.58398200e-01  -1.74137636e+00
C     1.777819767136405e+00   5.365448909220644e+00   5.158987475423340e-02 -3.75501940e-01  -2.86016568e+00  -1.35934276e+00
C     7.100970931651680e+00   5.380767346714066e+00   1.785827547386287e+00  2.85847310e-01  -3.15145873e+00  -1.56015520e-01
C     1.820958367153494e+00   3.502299992374890e+00   1.795791494456968e+00 -4.11261650e-01   2.49952106e+00  -8.93163100e-02
C     8.410303210847043e-01   4.357781310140697e+00   9.101126022222339e-01  2.44127110e+00   3.07785930e+00   1.06212802e+00
C     2.683331016312487e+00   6.213599168569993e+00   9.142158680954026e-01 -1.64091020e+00   1.72372255e+00  -1.32650561e+00
C     8.842613305958535e-01   6.222909922686122e+00   2.649633965387734e+00  3.99410160e-01  -3.91015100e-02  -1.27822590e-01
C     2.708115384787831e+00   4.503800963747761e+00   2.693205041837024e+00 -1.45194746e+00  -2.19608427e+00  -1.23945933e+00
C     3.559920226374575e+00   3.593876094966921e+00   7.036331627904329e+00 -2.25963900e-02  -4.05505930e-01   2.93699990e+00
C     5.324404024002050e+00   5.453179994933292e+00   7.047283645719189e+00  3.01445230e-01  -3.87471849e+00   2.73755438e+00
C     3.591613057541618e+00   5.407347231658996e+00   1.747295205226958e+00 -1.07217300e+00  -3.02181940e+00   1.74170464e+00
C     5.351152165310396e+00   3.582957771075280e+00   1.766037130138398e+00 -1.11920696e+00   9.90510300e-02  -1.16572207e+00
C     4.461938041254057e+00   4.507719979306620e+00   8.877750238969195e-01  2.51235000e-02  -7.86931000e-01  -1.78980224e+00
C     6.232543612441876e+00   6.211800524394454e+00   9.332095733360426e-01 -5.95101400e-01   2.23687952e+00  -2.72886103e+00
C     4.440293889555324e+00   6.178046748257193e+00   2.676706677272909e+00  2.32995843e+00   1.57498155e+00   6.27239290e-01
C     6.234620764615666e+00   4.449034761430006e+00   2.661143567872907e+00  2.01615570e-01  -1.86416246e+00   9.16540700e-02
C     3.503741509398000e-03   7.059533448251783e+00   3.563223936871446e+00  1.54229133e+00   3.20018531e+00  -2.08187502e+00
C     1.911297888546550e+00   1.837206941746743e+00   3.536446579946131e+00 -3.38892156e+00  -2.91256519e+00   1.25920676e+00
C     7.051563698062917e+00   1.806681100321224e+00   5.302866285389938e+00  2.82769140e+00  -7.40617240e-01   4.42084670e-01
C     1.733148662286670e+00   7.020416153995054e+00   5.279276842757016e+00  2.61612585e+00   2.11702108e+00   1.10562352e+00
C     9.056196526210365e-01   8.305404929085966e-01   4.425725674985217e+00 -1.64309560e-01   2.10065913e+00   4.74242430e-01
C     2.735230249619142e+00   2.752354652963401e+00   4.449821450561362e+00 -2.15993744e+00  -1.47888492e+00   1.12441351e+00
C     9.174039245562463e-01   2.719672400451880e+00   6.206677910717578e+00 -8.58467040e-01  -2.58380328e+00   1.01899609e+00
C     2.671630694848419e+00   8.898534555867814e-01   6.211825048452494e+00 -2.71402414e+00   3.75085050e-01   6.33390790e-01
C     3.587088333291309e+00   7.082061816640218e+00   3.545633789677124e+00 -2.03737032e+00   3.39446440e-01  -7.18935480e-01
C     5.328148243448682e+00   1.859802626897389e+00   3.482435221026395e+00 -1.49243396e+00  -3.08197094e+00   2.14006900e+00
C     3.505982368544729e+00   1.870795375973862e+00   5.367272148538448e+00  6.83685600e-01  -4.90979184e+00  -1.06114770e+00
C     5.386322863328500e+00   7.057398931107450e+00   5.284666946377083e+00 -2.21570670e+00   2.57566475e+00   1.17551032e+00
C     4.302272988501415e+00   8.563081694849656e-01   4.489282508135995e+00  5.63990555e+00   1.65681288e+00  -1.79241750e+00
C     6.160883461841204e+00   2.636265368218978e+00   4.419555777403736e+00  6.99797640e-01   1.64564385e+00   2.07025480e-01
C     4.423902293498961e+00   2.573100280238790e+00   6.247208430475388e+00  9.43277900e-02   3.79380634e+00   2.36938450e-01
C     6.282522149956608e+00   9.156239044479723e-01   6.211872035126011e+00 -3.04791031e+00  -1.82198541e+00   2.62691330e-01
C     2.371227617579600e-02   3.471888312216649e+00   3.545283770947316e+00 -1.10976604e+00   2.18818745e+00   5.94602620e-01
C     1.703632359041644e+00   5.301727871507345e+00   3.548385175736422e+00  2.46545199e+00   2.03470480e-01  -6.92389760e-01
C     7.090295644729417e+00   5.278466837999466e+00   5.296266043903042e+00  1.03750101e+00  -6.51960620e-01   1.45254088e+00
C     1.808917765498607e+00   3.598579738214575e+00   5.409208643206269e+00 -1.86870186e+00  -5.48207640e-01  -4.00313572e+00
C     8.100120792242985e-01   4.364354042032055e+00   4.438443211726207e+00  3.09613353e+00   1.60706461e+00   5.74551230e-01
C     2.695264636206943e+00   6.208554605373483e+00   4.352869461194503e+00 -3.05576944e+00  -6.86388660e-01   2.51716747e+00
C     9.080101440639164e-01   6.122523925435767e+00   6.196898356129660e+00 -8.90926120e-01   3.02209457e+00   7.99707440e-01
C     2.636813143266076e+00   4.517263747516231e+00   6.186419261671708e+00  1.19217464e+00  -1.03828178e+00   2.32686112e+00
C     3.603330368135747e+00   3.579397446521827e+00   3.607749461225923e+00 -1.05982795e+00   1.87651842e+00  -1.94472269e+00
C     5.356722680696558e+00   5.242018898605000e+00   3.570026128644976e+00 -5.50308660e-01   2.69664499e+00   2.24827880e-01
C     3.514835055907224e+00   5.360529454262247e+00   5.317508854060650e+00  3.54006150e-01   1.29258634e+00   3.78739660e-01
C     5.268217772097499e+00   3.533283118627553e+00   5.353462260493443e+00  2.14474376e+00  -6.85924800e-02   7.76272770e-01
C     4.400905693312547e+00   4.489085675913646e+00   4.529200779453545e+00  2.58524457e+00  -2.36141901e+00  -1.99923617e+00
C     6.327536165113532e+00   6.172543620717469e+00   4.390738800776066e+00 -5.05783832e+00  -1.03128540e-01   1.70596840e+00
C     4.377096671504892e+00   6.284966452158721e+00   6.226658407186326e+00  2.30384143e+00  -1.04356628e+00  -1.18426260e+00
C     6.226544530255953e+00   4.437854847585949e+00   6.232767883175537e+00 -1.66273373e+00   3.80594480e-01  -6.97633500e-01
