64
Lattice="7.10842262195238 0 0 0 7.10842262195238 0 0 0 7.10842262195238 " PBC="1 1 1" Properties=species:S:1:pos:R:3:force:R:3 Energy="-513.1636068"
C     7.074726706422866e+00   7.104203913343482e+00   7.078402756096573e+00  1.27895572e+00  -4.51393130e-01   1.19259718e+00
C     1.760888286382053e+00   1.805632750153227e+00   7.061408152549355e+00  6.56225740e-01   1.08581930e-01   1.86147686e+00
C     4.001331092798000e-04   1.755967125402227e+00   1.760381242596569e+00  3.81834600e-01   3.82523270e-01   1.01926664e+00
C     1.769766706234433e+00   1.439832326948860e-02   1.781458071086000e+00 -1.46830160e-01   1.06048190e-01  -8.70746630e-01
C     8.833750524635919e-01   9.109914875949705e-01   8.598844879893137e-01 -1.88782130e-01  -5.33777870e-01  -7.93910000e-02
C     2.654311449640146e+00   2.690771757689972e+00   8.982885231203520e-01  3.17168320e-01  -1.44705631e+00  -3.39951450e-01
C     8.904514871818019e-01   2.653514311127540e+00   2.681702761027150e+00 -1.35827870e-01  -1.58595190e-01  -8.08807310e-01
C     2.651893732938632e+00   9.177341107869453e-01   2.681335753167279e+00  6.96398520e-01  -1.79646803e+00   2.55471310e-01
C     3.562188310779938e+00   7.083069577715055e+00   1.218767491889480e-02  1.88389940e-01   8.49295630e-01  -2.30125370e-01
C     5.382437754945539e+00   1.807226600673083e+00   1.744051489817000e-03 -2.36807383e+00  -1.56018252e+00  -2.90005900e-01
C     3.553430734112098e+00   1.771598404575155e+00   1.805580858668101e+00 -4.11566100e-02   7.78742980e-01  -1.28065406e+00
C     5.345098419354525e+00   7.095766073525090e+00   1.812990962744094e+00  1.01601180e-01   9.40670800e-02  -2.16330964e+00
C     4.468466203335586e+00   9.147630744686901e-01   8.955329430917091e-01 -7.99557640e-01  -1.29657780e+00   4.51831820e-01
C     6.204789202827444e+00   2.639957767264712e+00   9.351373775505866e-01  1.70126896e+00   1.72632366e+00  -2.16741286e+00
C     4.440719612986035e+00   2.677280753483700e+00   2.657577201160227e+00  1.83246970e-01  -5.21972480e-01   1.15118400e-01
C     6.234039082392672e+00   8.680192246671894e-01   2.654063152438030e+00 -1.57880150e-01   3.49574760e-01   7.33393420e-01
C     7.101857067615490e+00   3.579261888902463e+00   7.097807896838458e+00  3.24051170e-01  -8.76744710e-01  -1.22114740e-01
C     1.796709618322567e+00   5.305208723895906e+00   7.106950892180754e+00 -7.05577380e-01   1.36993640e+00  -8.33941860e-01
C     8.830651252373600e-03   5.328196438554046e+00   1.762561111477218e+00 -1.92217500e-02   2.24124030e-01  -2.68854580e-01
C     1.762429534574522e+00   3.544742180227898e+00   1.763529562974967e+00  8.50257680e-01   1.75730930e-01   9.96944270e-01
C     9.440206311303482e-01   4.443100223721474e+00   8.495762800111469e-01 -2.67153810e+00  -3.75206950e-01   1.66345431e+00
C     2.635909876003752e+00   6.197776246323230e+00   8.715820371685595e-01  1.71557698e+00   4.78590020e-01   1.24760697e+00
C     8.720854556585079e-01   6.242452255984572e+00   2.638384531170453e+00  2.31958100e-01  -4.70949160e-01   1.30221372e+00
C     2.688492584145321e+00   4.412067551763149e+00   2.700265127183208e+00 -2.00028887e+00   1.85415146e+00  -1.88373859e+00
C     3.555928420568087e+00   3.544943917261854e+00   2.057838589531660e-02 -3.02612600e-02   1.60594940e-01  -5.09877040e-01
C     5.334021151133101e+00   5.297789236702056e+00   7.321390961695199e-03 -3.28254630e-01   1.70896230e+00  -7.87509460e-01
C     3.556188375583301e+00   5.299968679077347e+00   1.771566772094496e+00  1.15337110e-01   9.32649630e-01   8.71998960e-01
C     5.361266171182584e+00   3.568530161104597e+00   1.762898832635894e+00 -1.86972386e+00  -8.54497920e-01   1.26805341e+00
C     4.452536299328393e+00   4.443312339052454e+00   9.153573385997222e-01 -8.49400300e-02  -5.36531340e-01  -1.50498289e+00
C     6.229016626390512e+00   6.215078573485667e+00   8.419053679092263e-01 -3.86619560e-01  -4.54681520e-01   2.03110617e+00
C     4.484759916412472e+00   6.199725020384503e+00   2.654886165608974e+00 -1.95271699e+00   2.99058440e-01   1.11716547e+00
C     6.189476807493249e+00   4.429272067030335e+00   2.678839275143135e+00  2.29900284e+00   3.98066300e-01  -8.87905890e-01
C     7.082614425414697e+00   7.699203623948199e-03   3.577682894985883e+00  1.13733677e+00  -7.30440490e-01  -8.46095730e-01
C     1.784871322375445e+00   1.751182375052479e+00   3.610790942012342e+00 -9.06487150e-01   9.71703590e-01  -2.31358829e+00
C     7.981408001962198e-03   1.736684462782084e+00   5.293445279638973e+00 -1.18139563e+00   2.06488137e+00   1.44167883e+00
C     1.734904869179167e+00   7.954779850827680e-02   5.379376157323105e+00  1.69021219e+00  -3.81934823e+00  -6.47058520e-01
C     8.748682609457855e-01   8.782431978373092e-01   4.455809017102641e+00  4.01936400e-01   3.94775350e-01  -3.22810580e-01
C     2.656470490842519e+00   2.667083792319536e+00   4.416363598057773e+00  7.81494500e-02  -5.62883460e-01   1.57413946e+00
C     8.698846880153560e-01   2.703845639656902e+00   6.179249493364498e+00  1.35701080e-01  -1.63454793e+00   3.24905600e-01
C     2.682716919682345e+00   8.937001074033681e-01   6.257195337751131e+00 -7.18392470e-01   5.63682860e-01  -1.28163160e+00
C     3.548275066270038e+00   7.106606133683685e+00   3.585692310172968e+00  4.32911770e-01  -1.06770660e-01  -6.72418430e-01
C     5.365928727747494e+00   1.767870321247870e+00   3.523867444193554e+00 -1.53505286e+00   1.28479651e+00   9.72422410e-01
C     3.558541974312782e+00   1.774384124315707e+00   5.323481279661747e+00 -1.33121200e-02   8.37145920e-01   5.72520790e-01
C     5.332996116591296e+00   3.823947514738520e-02   5.309306516283659e+00 -9.20296880e-01  -1.58091629e+00   1.32646889e+00
C     4.447323764105373e+00   9.274243835867555e-01   4.466644812207663e+00  1.33004190e-01  -1.30446595e+00  -1.71650250e+00
C     6.229704508447448e+00   2.677096858590521e+00   4.432130505934290e+00  2.01259640e-01  -8.46973360e-01  -3.39214000e-03
C     4.432881439699867e+00   2.673636762796009e+00   6.191601515014368e+00  9.15126370e-01   1.06475500e-02   1.65434038e+00
C     6.198947643286780e+00   8.332975657059898e-01   6.219268348862121e+00  1.10083758e+00   3.10993124e+00  -4.82471720e-01
C     9.846231592092998e-03   3.552056960356556e+00   3.527575695021729e+00 -2.27750790e-01   3.68220760e-01   1.08427577e+00
C     1.770635142225919e+00   5.371661101916715e+00   3.568045224513460e+00  1.66086000e-01  -1.03064344e+00  -6.25765580e-01
C     7.080153702756331e+00   5.334848571526068e+00   5.336494313531051e+00  1.10537069e+00   4.48112290e-01  -4.22412000e-03
C     1.780263713917388e+00   3.554579455207490e+00   5.303450953150433e+00 -4.24427560e-01   7.00577320e-01   4.15074600e-01
C     8.958258101036530e-01   4.477207857136757e+00   4.431112935236237e+00 -7.35078550e-01  -7.01610830e-01  -1.23695520e-01
C     2.649065291578134e+00   6.202209343005967e+00   4.475373386511214e+00  5.93838720e-01   1.52435725e+00  -1.64586800e-01
C     8.751093786410560e-01   6.225372848955499e+00   6.233861940500982e+00  8.79356000e-02  -1.26054120e-01  -2.92753390e-01
C     2.654527261350890e+00   4.423866395964730e+00   6.230880170464570e+00  1.35960281e+00   1.35885800e-02  -6.35533610e-01
C     3.499980158652853e+00   3.534937675076584e+00   3.531838189561586e+00  3.12595091e+00   6.31681400e-02   1.27738251e+00
C     5.336968587488257e+00   5.298522612663761e+00   3.567372980986287e+00 -9.78437700e-02   1.48713093e+00  -9.25336200e-02
C     3.582403456279372e+00   5.289400444999742e+00   5.337942796808329e+00 -1.25346102e+00   1.56216507e+00   1.16715600e-01
C     5.349785002387891e+00   3.566486063095990e+00   5.358194266347351e+00 -1.20230686e+00  -9.44480850e-01  -2.21097873e+00
C     4.459150473323624e+00   4.450608495113848e+00   4.444104004079644e+00 -9.56301990e-01  -1.35084167e+00  -2.96315600e-02
C     6.214565203204051e+00   6.241817829265738e+00   4.490046237062287e+00 -1.03793040e-01  -7.41683180e-01  -2.25507565e+00
C     4.465457989967028e+00   6.217067865555874e+00   6.199640287986872e+00 -1.00860784e+00  -3.05955000e-01   8.51150870e-01
C     6.186362891880332e+00   4.450017145436091e+00   6.189998068123974e+00  1.49147070e+00  -2.76448370e-01   2.01891919e+00
