64
Lattice="7.10842262195238 0 0 0 7.10842262195238 0 0 0 7.10842262195238 " PBC="1 1 1" Properties=species:S:1:pos:R:3:force:R:3 Energy="-511.93619544"
C     2.059089671912780e-02   8.529467385964200e-03   1.104414297201540e-02  1.89082460e-01  -5.62133520e-01  -1.60262740e-01
C     1.825066893259402e+00   1.774607968544011e+00   7.092474020841316e+00 -1.30530234e+00  -1.61464920e-01   1.48592214e+00
C     7.085536769038005e+00   1.785079314821306e+00   1.767362424451671e+00  1.44280686e+00  -4.20978220e-01   6.68222240e-01
C     1.751074255944429e+00   6.815626692282200e-03   1.866265604743493e+00 -4.17609900e-01  -2.86920900e-02  -2.49073137e+00
C     9.223293505896445e-01   9.180082826473989e-01   8.958823931477082e-01 -1.15756602e+00  -1.20492074e+00   6.06449160e-01
C     2.675636148826336e+00   2.650809911741761e+00   9.105962592972986e-01  8.35033000e-03   3.41937450e-01  -2.76887050e-01
C     8.873778763251402e-01   2.677056909255396e+00   2.646947692479636e+00 -9.26024490e-01  -2.31332550e-01   2.02264800e-01
C     2.677655651692679e+00   8.945940626320594e-01   2.675180712189074e+00 -2.88295360e-01  -5.49203260e-01   8.95751800e-01
C     3.484501781650482e+00   7.043603402076137e+00   4.367500158799440e-02  1.63869318e+00   1.64419342e+00  -5.93255380e-01
C     5.337814347611585e+00   1.762158561504247e+00   7.034649135354401e+00 -7.51780210e-01   2.48330320e-01   2.24756314e+00
C     3.548987401300788e+00   1.753731739740916e+00   1.805197003846621e+00  9.24569310e-01   6.56220540e-01  -1.20706474e+00
C     5.358919183286138e+00   8.069374731884700e-02   1.760635155452555e+00 -1.67516475e+00  -1.77162679e+00   4.74006880e-01
C     4.414063525750620e+00   8.824624020834102e-01   8.570669935996506e-01  5.40996940e-01   2.28377180e-01   4.41464440e-01
C     6.252532567933543e+00   2.577461439684612e+00   8.471352476834390e-01 -1.81139027e+00   3.31617463e+00   1.85876700e-01
C     4.489459792196137e+00   2.629386974154962e+00   2.673251912795362e+00 -1.31000242e+00   1.99939941e+00  -4.23565390e-01
C     6.164542948890206e+00   9.568940555793944e-01   2.707663146940746e+00  2.96750921e+00  -1.79009475e+00  -1.25266423e+00
C     7.099849222562244e+00   3.514471317921759e+00   7.108334404475286e+00  1.34159058e+00   1.18593663e+00  -1.04441930e-01
C     1.815270420625649e+00   5.316894544177829e+00   7.211068242632799e-03 -1.64233188e+00   9.71076540e-01  -6.99124710e-01
C     7.038708329007326e+00   5.327211211178914e+00   1.804805400844485e+00  1.92001597e+00  -8.69304700e-02  -1.35686663e+00
C     1.775163491771764e+00   3.569807686817863e+00   1.788607296051838e+00 -1.88845460e-01  -4.77208930e-01  -9.94337800e-01
C     8.890884471444170e-01   4.451879765415209e+00   8.628156460566708e-01 -5.90249540e-01  -2.31333400e-01   1.20114438e+00
C     2.615935279525778e+00   6.240493245794727e+00   9.476158580388655e-01  1.22384188e+00  -1.93658912e+00  -1.45428320e-01
C     7.866600579068842e-01   6.212144998554619e+00   2.699471685050364e+00  1.97634205e+00   8.70348990e-01  -6.53446160e-01
C     2.659223867260150e+00   4.429562659347041e+00   2.667735919010695e+00  8.97672480e-01   1.45980846e+00  -9.58862660e-01
C     3.525806124294706e+00   3.533761657638331e+00   1.845630849056800e-03  1.74394720e+00   6.03787570e-01   1.22872650e-01
C     5.347286534005413e+00   5.376396306560801e+00   7.067766920919850e+00 -1.29107692e+00  -9.67030270e-01   9.93714310e-01
C     3.594843053695920e+00   5.340708684049770e+00   1.790059049203521e+00 -1.49681986e+00   2.69582850e-01  -2.60899240e-01
C     5.348185891635295e+00   3.546503931690039e+00   1.728635098259875e+00 -2.43333400e-01  -1.16330391e+00   8.49898610e-01
C     4.432415838018256e+00   4.469190196179433e+00   8.767227773231173e-01  8.05576110e-01  -9.25232600e-01  -5.63466620e-01
C     6.194187701331976e+00   6.240190782412246e+00   9.027531101152955e-01  1.06727094e+00   3.38852100e-01  -6.15639120e-01
C     4.500545092935123e+00   6.245897637344261e+00   2.651301174829029e+00 -1.06056053e+00  -4.62071440e-01  -1.03990130e-01
C     6.224867866612573e+00   4.391268520429708e+00   2.671006362089705e+00 -7.23403250e-01   1.13362298e+00  -5.40066800e-01
C     7.094392726274906e+00   5.013115534838319e-02   3.581865917360848e+00 -6.30649710e-01  -8.50050780e-01   7.18546800e-01
C     1.791322997829583e+00   1.832572605619634e+00   3.526230212788215e+00 -1.72491800e-02  -8.66818170e-01   7.33983050e-01
C     2.087971193017840e-02   1.769509025914458e+00   5.397521543408274e+00  1.28457373e+00   1.05747040e+00  -1.85415451e+00
C     1.802137752003651e+00   7.086877986217947e+00   5.278210081774432e+00 -1.62350182e+00   4.94909800e-01   1.31660465e+00
C     9.337236544599209e-01   9.318108490171051e-01   4.440634454083048e+00 -1.01896864e+00  -4.43508610e-01  -9.03422400e-02
C     2.666531325713509e+00   2.715030031807210e+00   4.401853459300471e+00  9.31850790e-01  -1.32880417e+00   1.68408555e+00
C     9.551342233913610e-01   2.705140438837135e+00   6.229646361550417e+00 -1.46441872e+00  -1.78358971e+00   1.51112270e-01
C     2.641911801558723e+00   7.958123652828127e-01   6.267988553404661e+00  6.28325950e-01   2.27433580e+00  -2.00920681e+00
C     3.574397666387823e+00   7.073735223635828e+00   3.542043396495989e+00 -3.93618460e-01   9.35108140e-01   3.73056150e-01
C     5.349240497215199e+00   1.786293646657481e+00   3.607922764569399e+00 -9.34032250e-01   7.08474280e-01  -2.92047360e-01
C     3.520323753349031e+00   1.707067433188533e+00   5.366299218734449e+00  1.02861310e+00   2.06065384e+00  -1.71270962e+00
C     5.296022011754497e+00   3.305693746782180e-02   5.348973007272009e+00  1.39576888e+00  -1.47219805e+00   4.52585160e-01
C     4.463595583240588e+00   8.767754507347315e-01   4.442602918474978e+00 -1.54779363e+00   2.15111400e-01   6.93387380e-01
C     6.243547877162994e+00   2.680522905040682e+00   4.503901761180512e+00 -1.57352640e+00  -1.31131823e+00  -2.84006760e-01
C     4.425350208102429e+00   2.686668349648350e+00   6.192280511543029e+00 -2.65448800e-01  -1.71110760e+00   9.91738620e-01
C     6.259860854065179e+00   8.818323825865996e-01   6.247846127068629e+00 -1.53284199e+00  -7.41911000e-03  -1.01609802e+00
C     7.059120804318692e+00   3.509370882523457e+00   3.576654235148542e+00  2.20266399e+00   4.57281690e-01  -8.38323890e-01
C     1.726119569663109e+00   5.319078180522467e+00   3.501980753115026e+00  1.39637060e-01  -8.49449890e-01   1.70100631e+00
C     2.182179118000700e-02   5.259289095697195e+00   5.328768311153825e+00 -8.20975570e-01   2.36153543e+00  -4.38714090e-01
C     1.802334228804868e+00   3.584552403521625e+00   5.350270863073968e+00 -4.15288770e-01  -1.32233472e+00  -2.07427625e+00
C     8.732321863955664e-01   4.368493916281715e+00   4.403820644176330e+00  3.61384540e-01   2.40431330e+00   1.24720918e+00
C     2.610322184688122e+00   6.168277287629397e+00   4.420277708805023e+00  1.77576768e+00   1.20136403e+00  -1.14693607e+00
C     8.693065600036713e-01   6.248860427892277e+00   6.148283285157671e+00  1.26788141e+00  -2.12159974e+00   2.20209353e+00
C     2.703455245086611e+00   4.411271692766614e+00   6.197039458318668e+00 -7.03655160e-01   1.95421335e+00   6.11720650e-01
C     3.609735767758629e+00   3.618055039087721e+00   3.521840335315008e+00 -1.22781617e+00  -2.39947686e+00   8.83268360e-01
C     5.379184229912365e+00   5.344707313941973e+00   3.523128452577978e+00 -7.06735110e-01   1.70579970e-01   1.26021978e+00
C     3.553920859851747e+00   5.345021292969098e+00   5.255546866608896e+00 -1.40725170e-01  -8.80831920e-01   2.13668843e+00
C     5.291285954099696e+00   3.570499123086111e+00   5.353651699956266e+00  1.46692577e+00   5.49081160e-01  -1.27629152e+00
C     4.474298308674165e+00   4.492248710726868e+00   4.405194275763419e+00 -3.81874890e-01  -7.29808990e-01   1.91027460e-01
C     6.200050941561631e+00   6.219903273170540e+00   4.517851969488036e+00  9.42921880e-01   5.72368000e-03  -2.43388574e+00
C     4.384625699491318e+00   6.238918516931719e+00   6.202328338000626e+00  1.07414153e+00  -5.30848310e-01   3.37144280e-01
C     6.236632874722484e+00   4.441440264871251e+00   6.215351892335407e+00 -8.91561610e-01  -5.29092140e-01   7.89062080e-01
