64
Lattice="7.10842262195238 0 0 0 7.10842262195238 0 0 0 7.10842262195238 " PBC="1 1 1" Properties=species:S:1:pos:R:3:force:R:3 Energy="-510.51738932"
C     1.561848401221160e-02   7.090496315499979e+00   7.021475735470792e+00  6.21695100e-01  -6.28507200e-02   2.03896324e+00
C     1.780518621952541e+00   1.756273782754054e+00   7.107409243271293e+00 -1.22123141e+00   1.16309682e+00  -7.97258300e-02
C     1.185919470962460e-02   1.744499249357834e+00   1.718768607663315e+00 -2.27025980e-01   5.41494210e-01  -2.55152900e-02
C     1.819599947590812e+00   7.094806294302938e+00   1.817218483844660e+00 -1.49062482e+00  -1.16012186e+00  -1.30078028e+00
C     9.202307309795418e-01   8.463725850205392e-01   8.875717940942138e-01 -4.52597140e-01   1.20852580e-01  -1.04238296e+00
C     2.574613663414588e+00   2.693210657490894e+00   8.724000033594429e-01  2.71414370e+00  -1.07844698e+00   1.71057022e+00
C     8.053014697224770e-01   2.630951466889397e+00   2.658136634020421e+00  1.74561510e+00   1.34932586e+00   3.81328000e-01
C     2.639611302746212e+00   8.751993001871989e-01   2.654834771713431e+00  2.57813173e+00   1.71805331e+00  -6.54390170e-01
C     3.528355133562012e+00   3.421880914506080e-02   2.109502605133820e-02  8.24846200e-01  -3.85370610e-01  -1.24787820e-01
C     5.367426969983112e+00   1.768125442535701e+00   7.035628107317628e+00 -2.42807261e+00   1.44024610e+00   1.21084627e+00
C     3.558475226224381e+00   1.779270027519338e+00   1.778485613083221e+00 -4.40531210e-01   1.15417454e+00  -1.06024530e-01
C     5.363985711508544e+00   8.399560962583699e-02   1.711459869693883e+00 -7.51464340e-01  -3.56164414e+00   6.75318200e-01
C     4.439515517278434e+00   9.448473406810541e-01   8.589962905829448e-01  2.53414430e-01  -8.03905560e-01   2.31559290e-01
C     6.263969166918408e+00   2.644288005072137e+00   7.497630083712860e-01 -7.90719760e-01  -1.97422980e-01   4.23975856e+00
C     4.507011198487179e+00   2.656794492745538e+00   2.736558884891047e+00 -1.74953995e+00  -1.39520927e+00  -1.36488071e+00
C     6.228614929428255e+00   8.711621426443962e-01   2.609658044762735e+00 -2.15351530e-01   1.79294491e+00   9.77335960e-01
C     7.093438918127754e+00   3.588882356992145e+00   7.054531606675220e+00  7.36370610e-01  -1.70234910e-01   2.11485833e+00
C     1.854917079114889e+00   5.338368804575945e+00   2.933987219559760e-02 -2.12212851e+00  -7.30022800e-02   3.20886990e-01
C     7.054824900192521e+00   5.332507767957302e+00   1.792308438457394e+00  1.83762523e+00   7.39802840e-01  -4.19923360e-01
C     1.727232606476949e+00   3.543887108070938e+00   1.870794309710469e+00 -6.29096500e-02   6.52374450e-01  -3.49025249e+00
C     8.759586929756935e-01   4.475472051417180e+00   9.558779776500915e-01 -1.99784370e-01  -7.78472480e-01  -2.02178753e+00
C     2.728036810264607e+00   6.192134433458189e+00   9.611515742234171e-01 -7.04202270e-01   1.32684302e+00  -1.64841733e+00
C     9.002623188292475e-01   6.218127091610481e+00   2.677172207870293e+00 -2.05632981e+00  -5.44959460e-01   2.94277480e-01
C     2.626427240228672e+00   4.470628656580817e+00   2.681935348615276e+00  6.24291700e-01  -1.74434063e+00   1.34635959e+00
C     3.510749774343284e+00   3.555705073929366e+00   1.668090885699680e-02  8.79723600e-01  -7.64501140e-01   4.48286500e-01
C     5.282547214751800e+00   5.337115163162681e+00   1.091221064818820e-02  4.06531890e-01  -8.91207370e-01   5.45698480e-01
C     3.583488841329220e+00   5.304103577431175e+00   1.847344689750482e+00  1.69777100e-01   2.15124150e-01  -7.49533300e-01
C     5.390871329710360e+00   3.449520452010974e+00   1.808705792336079e+00 -1.46734237e+00   2.39239491e+00  -1.15302753e+00
C     4.413864418833032e+00   4.350617299655809e+00   9.844558980250514e-01  9.05430480e-01   1.88175098e+00  -2.12605902e+00
C     6.230566760111254e+00   6.221252736120721e+00   8.498099338626663e-01 -5.75611390e-01   3.51977740e-01  -2.03345670e-01
C     4.541859387371015e+00   6.197649147726785e+00   2.686369013971822e+00 -1.64737208e+00   1.03180891e+00  -1.58239602e+00
C     6.203304679847482e+00   4.434743419920950e+00   2.691041522328401e+00  1.24529137e+00  -7.72883260e-01  -6.90197570e-01
C     7.038229932165001e+00   2.026888517444180e-02   3.506877887626397e+00  3.52213068e+00  -1.50994496e+00   1.44959923e+00
C     1.751594165974856e+00   1.797097098439583e+00   3.501474917761386e+00 -1.24785760e-01  -1.21949336e+00   1.90984177e+00
C     4.718592260423859e-02   1.759292516588089e+00   5.347555445633128e+00 -9.85106060e-01   1.17323546e+00  -1.07032192e+00
C     1.850834143330414e+00   2.797164300970000e-04   5.346375873983566e+00 -1.66978518e+00  -9.19507150e-01  -4.02562279e+00
C     9.363530599870590e-01   8.605078255688615e-01   4.416298982496156e+00 -1.91548535e+00   1.17549303e+00   7.03076300e-01
C     2.588656920974207e+00   2.700751556543095e+00   4.429958953908105e+00  1.70938434e+00  -2.07030670e-01  -2.53791450e-01
C     8.733704452155253e-01   2.728778858501909e+00   6.234407583021293e+00  8.33896070e-01  -2.62668918e+00  -6.64840360e-01
C     2.649214426284701e+00   8.817038623056299e-01   6.182208089943168e+00  7.46205780e-01   1.37159075e+00   2.31304935e+00
C     3.629593146347599e+00   3.346353924168580e-02   3.448599342607874e+00 -1.68392630e+00  -1.33528887e+00   3.59082579e+00
C     5.399757142322264e+00   1.727108635586456e+00   3.630564583382848e+00 -2.11873713e+00   1.50558695e+00  -2.08725637e+00
C     3.491679155969896e+00   1.812504533384207e+00   5.324821785999427e+00  1.41866775e+00  -5.12833180e-01  -6.09689580e-01
C     5.320908243925986e+00   7.062075704517599e-03   5.396075832415819e+00 -1.27849895e+00  -2.28892830e-01  -3.14403987e+00
C     4.440477784448503e+00   9.025198827691333e-01   4.466214894807606e+00 -8.05447900e-02  -4.24701990e-01  -6.14099710e-01
C     6.228975326455089e+00   2.640168318742715e+00   4.471624546589879e+00  7.18706970e-01   8.69100050e-01  -1.66828690e-01
C     4.419859378133836e+00   2.676772359097918e+00   6.217678834480064e+00 -1.29751540e-01   1.67637560e-01  -3.35592050e-01
C     6.180290592941423e+00   9.114923470527757e-01   6.177378911952045e+00  3.25592795e+00  -1.59588523e+00   6.15809400e-01
C     7.071975746868927e+00   3.574958023342958e+00   3.572236776995570e+00  8.43709110e-01  -1.90395600e+00   2.09938140e-01
C     1.713126794798273e+00   5.284198359157973e+00   3.612827647261424e+00  1.92649401e+00   2.68825185e+00  -2.21754795e+00
C     7.099309124611576e+00   5.325082451856903e+00   5.348970163902960e+00  3.09444380e-01   9.25067020e-01  -9.91345420e-01
C     1.737566475860774e+00   3.604174351153421e+00   5.350938201789533e+00  9.31217140e-01  -1.48476807e+00  -1.12673860e-01
C     8.603692113277717e-01   4.445753868969746e+00   4.492206842117636e+00 -6.58874400e-01  -2.17091660e-01  -1.13809223e+00
C     2.687908271805957e+00   6.231328569763440e+00   4.334201108457181e+00  6.11010940e-01  -6.04864180e-01   3.42850623e+00
C     9.683500605580125e-01   6.208012445980256e+00   6.144514399484546e+00 -1.78133641e+00   3.71668600e-02   2.93264779e+00
C     2.673411070377824e+00   4.438482379134843e+00   6.230870858430938e+00  2.76429200e-01   1.04337382e+00  -2.14803450e-01
C     3.544453649353752e+00   3.573930287600558e+00   3.539266491199486e+00  4.21654190e-01  -2.29700160e-01   1.59760412e+00
C     5.404852033150924e+00   5.292119487736118e+00   3.604806716429695e+00 -3.39612911e+00   1.33469727e+00  -1.37689001e+00
C     3.573633653124626e+00   5.334890226882622e+00   5.320921749928964e+00 -8.13554160e-01   9.19584590e-01  -1.90026410e-01
C     5.335942273430382e+00   3.584695922574322e+00   5.325111027715836e+00 -1.10016739e+00  -2.46416266e+00   4.12961040e-01
C     4.453937938100604e+00   4.444293585710919e+00   4.477456367591553e+00 -1.08040030e-01   2.20369900e-01  -1.23001504e+00
C     6.187550353879002e+00   6.229973775496294e+00   4.421009591997977e+00  1.69564942e+00   1.04447520e-01   2.18468041e+00
C     4.387979950873016e+00   6.279939091344953e+00   6.236827858754951e+00  1.33064506e+00  -2.33321455e+00   4.14780440e-01
C     6.187541823771859e+00   4.415846957901750e+00   6.201350645553472e+00  3.44082750e-01   2.81363578e+00   9.23832730e-01
