64
Lattice="7.10842262195238 0 0 0 7.10842262195238 0 0 0 7.10842262195238 " PBC="1 1 1" Properties=species:S:1:pos:R:3:force:R:3 Energy="-511.85320193"
C     7.099499701422019e+00   7.088806714527432e+00   7.103405779651709e+00 -1.14521415e+00   1.22027752e+00   7.25676770e-01
C     1.775326843323571e+00   1.759035902531507e+00   7.103440042248737e+00  4.11591500e-02   1.29289308e+00  -2.93770940e-01
C     7.101081751960326e+00   1.780070293737897e+00   1.760555967624568e+00  9.74387010e-01  -7.75247600e-02   7.87978560e-01
C     1.795261348297968e+00   2.678524727442200e-03   1.768498137133668e+00 -1.20987524e+00   5.98877850e-01   5.86813700e-02
C     8.593863297321042e-01   9.278965961014022e-01   8.568781938948634e-01  1.30373567e+00  -2.23128823e+00   1.23156312e+00
C     2.628226808499152e+00   2.657795358650434e+00   8.679792042478388e-01  1.15512772e+00   2.61361120e-01   9.94896440e-01
C     8.271844644212422e-01   2.650748210633419e+00   2.722086136436727e+00  1.92755653e+00   1.01269102e+00  -1.83993394e+00
C     2.653364394494484e+00   8.983026688813658e-01   2.656305077848151e+00 -2.92070010e-01  -1.13816540e-01   8.12294600e-01
C     3.598811828213119e+00   1.636550814534740e-02   3.431121863912080e-02 -1.59117931e+00   3.76762100e-02  -9.28590080e-01
C     5.356824757645382e+00   1.845079377629941e+00   2.911787615717500e-02 -5.12874050e-01  -2.26445095e+00  -3.15501450e-01
C     3.546969320118970e+00   1.787889061030314e+00   1.788920066647118e+00  5.05285560e-01   1.56524000e-02   2.74635390e-01
C     5.316751238377810e+00   3.200005719268020e-02   1.758053873946555e+00  6.07022400e-01  -9.91032530e-01   1.93851811e+00
C     4.446267736840945e+00   9.058074571466569e-01   9.345642254347359e-01  2.51477880e-01   1.01650531e+00  -1.30532231e+00
C     6.327514697677220e+00   2.676213352743081e+00   8.265154196842478e-01 -3.21114140e+00   7.58360040e-01   2.14475628e+00
C     4.523876713079617e+00   2.626131529847680e+00   2.706185732383406e+00 -2.17921509e+00   2.21109744e+00  -2.00276528e+00
C     6.253396312366099e+00   8.796328233752929e-01   2.677847081513835e+00 -1.96746931e+00   2.44526580e-01  -7.11649680e-01
C     3.014404804659820e-02   3.567409873699685e+00   7.027207612050428e+00  1.00626100e-01  -2.26094420e-01   2.14721785e+00
C     1.816537496957664e+00   5.314620986287049e+00   7.076072472993284e+00 -7.80949750e-01  -2.65265480e-01   1.33292569e+00
C     7.097500741897048e+00   5.373751760093483e+00   1.729215216629893e+00 -4.12598910e-01  -7.61689490e-01   1.56466533e+00
C     1.749501730692433e+00   3.542168291481422e+00   1.782206659072112e+00  8.76819500e-02   3.51459970e-01   4.02696130e-01
C     8.553841456285918e-01   4.435838259172882e+00   8.834242427481224e-01  1.73925614e+00   8.24215780e-01  -7.35295340e-01
C     2.696776100108633e+00   6.228982079456578e+00   8.707535505121986e-01 -9.36851710e-01  -1.53706320e-01   6.26528790e-01
C     8.724467056960564e-01   6.241091917147783e+00   2.699931386741199e+00  9.79809300e-02  -3.85080350e-01  -2.27569101e+00
C     2.660798382870480e+00   4.460071014052914e+00   2.696244745517788e+00 -6.09848100e-02  -3.62054110e-01  -1.89176683e+00
C     3.521359663777444e+00   3.532193752861038e+00   7.063053112627850e+00  1.72532147e+00  -8.46422100e-02   1.85142038e+00
C     5.275417893369297e+00   5.326975638053288e+00   7.084960133795071e+00  1.45186218e+00  -6.02928570e-01  -5.39801600e-02
C     3.569252874432372e+00   5.391243668887195e+00   1.783856239625309e+00 -8.25937850e-01  -2.78807164e+00   1.58537900e-02
C     5.422785161736660e+00   3.563106932235121e+00   1.791745451385890e+00 -2.30064854e+00  -4.88806540e-01  -1.26700255e+00
C     4.435611713743982e+00   4.433855080346128e+00   8.999252374286071e-01  9.73547200e-02   8.41509800e-02  -3.76605510e-01
C     6.155812313144096e+00   6.227883685993335e+00   8.687127934622227e-01  1.51818915e+00   4.23315900e-02  -1.88632990e-01
C     4.416770626336993e+00   6.229924443043311e+00   2.674448047069630e+00  1.37940823e+00   4.91593850e-01   3.41441100e-01
C     6.221535367004091e+00   4.479789707316568e+00   2.654363341125272e+00  3.96811520e-01  -4.04433400e-02   3.26828280e-01
C     7.039905387376534e+00   7.057799703974765e+00   3.589180199899924e+00  2.07185974e+00   1.83073320e+00  -1.01113780e+00
C     1.703155526052295e+00   1.746091322772035e+00   3.606637632843929e+00  1.07422728e+00  -6.96256530e-01  -1.77647119e+00
C     7.083732651377049e+00   1.752680830540775e+00   5.375366153954711e+00  1.64609143e+00   7.94322900e-02  -8.65352060e-01
C     1.779447453747933e+00   7.087975171249344e+00   5.398680358463787e+00  7.58314780e-01   3.72382240e-01  -1.58983440e+00
C     8.396020257276677e-01   8.161313648367257e-01   4.486284246559104e+00  9.12621520e-01   1.26716456e+00   6.21643910e-01
C     2.658458858817785e+00   2.601410497417880e+00   4.385970541966795e+00 -9.83726680e-01   1.74844646e+00   2.55399942e+00
C     9.039532251062299e-01   2.695931619501378e+00   6.191077339930368e+00  6.61423700e-02  -1.87662489e+00  -9.09237600e-02
C     2.715419644451012e+00   8.994809610148570e-01   6.258295508320029e+00 -1.75905843e+00  -1.96844450e-01  -5.06581500e-01
C     3.566165544320054e+00   2.021479007830360e-02   3.572225261350925e+00 -6.36839720e-01   4.08547830e-01  -6.34832260e-01
C     5.382957593891740e+00   1.812918314664917e+00   3.575494993587673e+00  2.24002440e-01  -2.35132138e+00   5.38291080e-01
C     3.557935341526392e+00   1.795516043080443e+00   5.347256678630409e+00  6.34226800e-02  -9.34765800e-01  -2.95789390e-01
C     5.267379546902148e+00   7.157755072982800e-03   5.350205039080507e+00  1.33719192e+00  -7.94972500e-02   4.79027470e-01
C     4.419472466690629e+00   8.932382731857468e-01   4.496859802312009e+00  1.14848687e+00   6.41453120e-01  -1.82627164e+00
C     6.334331248464443e+00   2.650158140471733e+00   4.458896915888769e+00 -4.02516840e+00   1.24250571e+00  -6.08519610e-01
C     4.497544769915673e+00   2.669460777759438e+00   6.202042579411302e+00 -2.19813681e+00  -2.92137570e-01   1.06934197e+00
C     6.182967198394758e+00   9.063623406163742e-01   6.260289847370296e+00  3.42211090e-01  -8.52348490e-01  -8.89511930e-01
C     9.537228460801600e-03   3.645325791627088e+00   3.554771951292039e+00  2.51937790e-01  -2.40456269e+00   9.42861600e-02
C     1.772681728182443e+00   5.370171603040919e+00   3.543640090384893e+00  9.86220280e-01  -1.81885270e-01  -1.19768110e-01
C     4.133796548321700e-02   5.376245323664352e+00   5.314013855911075e+00 -1.95454181e+00  -1.52740258e+00   3.33758230e-01
C     1.740685367369525e+00   3.557841652516260e+00   5.291358033505063e+00  1.87604970e+00  -5.34201760e-01  -5.32119040e-01
C     9.181782450322430e-01   4.506470460778476e+00   4.396021496130344e+00 -6.23022480e-01  -6.41270680e-01   1.62604871e+00
C     2.694878648858677e+00   6.242520710094404e+00   4.414013980044958e+00 -1.13875740e+00  -1.34396266e+00   1.52417000e+00
C     8.769441336035041e-01   6.211692049865273e+00   6.265123148246539e+00  1.27514139e+00  -1.64495340e-01  -1.28139728e+00
C     2.685426508216636e+00   4.369543119460428e+00   6.180321727832499e+00 -1.16701754e+00   2.47729371e+00  -5.52259320e-01
C     3.523617369885782e+00   3.517498866199843e+00   3.554148187207134e+00  1.60300624e+00   1.87412740e-01  -5.97468990e-01
C     5.307648192370638e+00   5.295700853220525e+00   3.569775698916073e+00  1.04132460e-01   9.96024650e-01  -6.38634230e-01
C     3.584884864447562e+00   5.266816701999096e+00   5.271304888957138e+00 -1.71348748e+00   1.71166254e+00   1.87865358e+00
C     5.339397108992154e+00   3.494151181020227e+00   5.314584662247460e+00  1.56455095e+00   1.34239397e+00  -3.40219720e-01
C     4.445028383357148e+00   4.372488565457251e+00   4.448527646560296e+00  2.73532290e-01   5.98621220e-01  -9.33653840e-01
C     6.177351899946089e+00   6.231086670141681e+00   4.458023219664544e+00 -3.41625460e-01  -1.14002743e+00   5.01630520e-01
C     4.377358830131118e+00   6.225765944726384e+00   6.214389340828433e+00  2.09535002e+00  -1.25090657e+00  -2.26780490e-01
C     6.243182290987646e+00   4.381893292920416e+00   6.160803705339408e+00 -1.06883649e+00   2.95183565e+00   6.80383560e-01
