64
Lattice="7.10842262195238 0 0 0 7.10842262195238 0 0 0 7.10842262195238 " PBC="1 1 1" Properties=species:S:1:pos:R:3:force:R:3 Energy="-507.62838606"
C     7.000883203814461e+00   7.073338360400954e+00   1.480122866359020e-02  3.08142726e+00   1.28190031e+00   1.40505513e+00
C     1.773560329218275e+00   1.781879671631592e+00   7.080845565529936e+00 -2.30989400e-02  -2.97128510e-01   4.19487290e-01
C     7.103584840817507e+00   1.761938129318801e+00   1.879097373835986e+00  9.27440720e-01   1.63914564e+00  -2.60382500e+00
C     1.821364115916644e+00   7.050524517760100e-02   1.785293349426395e+00 -2.26004390e+00  -3.73892556e+00  -1.58306429e+00
C     8.760457000685624e-01   8.600029853943892e-01   9.356595622762518e-01 -7.79398360e-01   1.84801898e+00  -9.50155220e-01
C     2.687402507536544e+00   2.723091836069004e+00   7.926204702737542e-01 -1.40769663e+00  -3.97908556e+00   4.06114189e+00
C     9.308608083339421e-01   2.678541503319583e+00   2.726693815979011e+00 -2.02489570e+00  -9.35634320e-01  -3.96888760e-01
C     2.608845907478400e+00   9.486002324032831e-01   2.684088205489970e+00  1.22327494e+00   2.35144450e-01  -1.02114152e+00
C     3.603295679033362e+00   1.966438491483700e-02   7.039325624427646e+00 -1.57363226e+00  -9.66785250e-01   1.31924195e+00
C     5.406687925460990e+00   1.765475991256775e+00   8.542177245608759e-02 -1.92917670e+00   1.94482837e+00  -1.52398358e+00
C     3.520701139505927e+00   1.836629026987737e+00   1.822933442378461e+00  2.06503944e+00  -5.44796330e-01  -2.26694077e+00
C     5.335973834826814e+00   7.082355039073293e+00   1.798114598053410e+00 -2.22533717e+00  -1.20215350e-01   9.42506600e-02
C     4.444746392231813e+00   9.300723420969317e-01   9.090592761584021e-01 -1.02687550e-01  -1.71690271e+00   4.12649790e-01
C     6.297403703795804e+00   2.736046936293954e+00   9.072662476367334e-01 -1.95352383e+00  -2.38251731e+00   1.11440402e+00
C     4.541603199819789e+00   2.682834421908253e+00   2.715784022194514e+00 -3.27928668e+00   8.30876540e-01  -2.80221415e+00
C     6.163183676316810e+00   8.854399070662496e-01   2.710351125870273e+00  2.84009716e+00  -2.29234050e-01  -1.94479057e+00
C     7.103539275828513e+00   3.559336198372115e+00   7.048865340836366e+00  1.44545228e+00  -1.07733965e+00   2.98152825e+00
C     1.732916430119675e+00   5.211296651462491e+00   7.042032298508664e+00  4.20910700e-01   3.42140533e+00   2.78271064e+00
C     7.078630438873091e+00   5.363266054802495e+00   1.741356757885984e+00  2.27234975e+00  -6.02693260e-01   5.01868110e-01
C     1.813734788087050e+00   3.457830198053753e+00   1.800088251593853e+00 -1.56783371e+00   3.77106009e+00  -1.56485835e+00
C     8.646073239780419e-01   4.418328721491071e+00   9.189889606320539e-01  4.55186180e-01  -9.21791840e-01  -1.86855182e+00
C     2.595114922924477e+00   6.184606116314025e+00   8.054942501439314e-01  3.26683734e+00   9.07304890e-01   1.02344558e+00
C     9.229929218412214e-01   6.205479359579619e+00   2.624674018873675e+00 -1.03428706e+00   1.76436109e+00   1.46721699e+00
C     2.657457068817949e+00   4.443977331988555e+00   2.602799696450507e+00  1.56752122e+00  -1.03194046e+00   2.03444098e+00
C     3.528875043592439e+00   3.522274588852864e+00   7.073238415978917e+00  3.78184207e+00   8.15690560e-01   6.34557300e-02
C     5.381914077451124e+00   5.307093308900921e+00   7.023859971501766e+00 -2.76875207e+00  -2.57548350e-01   3.21475802e+00
C     3.529399574097568e+00   5.291625665616706e+00   1.707885186126738e+00 -5.59685660e-01   2.05964531e+00   8.19231740e-01
C     5.319325553629644e+00   3.646614477563868e+00   1.816671775060956e+00  1.46235470e+00  -2.66137499e+00  -2.21949580e+00
C     4.430639301037066e+00   4.411294795140129e+00   8.785072757376422e-01 -3.60630950e-01   1.37947419e+00  -1.31515386e+00
C     6.186088435682974e+00   6.150121381078750e+00   8.936820520099135e-01 -1.48061690e-01   2.97796236e+00  -1.31064015e+00
C     4.353048451276075e+00   6.213231805288991e+00   2.696580476318131e+00  1.12502525e+00   2.01328640e-01  -1.20352681e+00
C     6.191678499231342e+00   4.564082804429051e+00   2.595817732668916e+00  1.91725510e-01  -2.32306979e+00   3.84072349e+00
C     7.074931642247001e+00   2.173897805648400e-02   3.535419910467125e+00  1.67775747e+00  -2.11323631e+00   1.40864735e+00
C     1.733631537435247e+00   1.747810850203813e+00   3.631512633707678e+00  6.22862220e-01  -5.61881000e-03  -9.98108680e-01
C     7.079462835161894e+00   1.699800634912559e+00   5.355873863951504e+00  1.37951513e+00   2.30166211e+00  -8.29439940e-01
C     1.778570274396625e+00   7.085200540648079e+00   5.504359216112768e+00 -8.94094640e-01   4.69462800e-02  -6.24035157e+00
C     9.186742707626665e-01   8.108776007625097e-01   4.543147291381306e+00 -2.44008354e+00   1.57499353e+00  -1.89313494e+00
C     2.682840819488612e+00   2.589821778188947e+00   4.371646359545234e+00 -3.91763430e-01   3.05948519e+00   2.34542347e+00
C     8.784519011254324e-01   2.639021232584526e+00   6.181990643295222e+00 -6.36116900e-01   1.60033810e-01   6.82408850e-01
C     2.669402488693954e+00   8.951296822764764e-01   6.143080204136735e+00  1.62833181e+00   8.68520270e-01   4.44620353e+00
C     3.501611825981048e+00   1.153434690431322e-01   3.497585757577532e+00  1.45210306e+00  -3.15734806e+00   3.30850631e+00
C     5.376300485023884e+00   1.795469198575377e+00   3.527812334410749e+00 -1.13636203e+00   3.39720020e-01   2.49423371e+00
C     3.550925299475453e+00   1.792544367004152e+00   5.322370944048504e+00  2.16977515e+00  -6.15139000e-03  -8.57106830e-01
C     5.344273913414831e+00   2.978031006113280e-02   5.314186092991156e+00 -1.72498283e+00  -6.81725210e-01  -3.37353440e-01
C     4.490887661047816e+00   9.433858489903821e-01   4.445816991762611e+00 -2.17099935e+00  -5.71911700e-01  -8.63144130e-01
C     6.245571005324872e+00   2.662808573703189e+00   4.418866047156917e+00  1.27152650e+00   8.36450090e-01   2.23329180e-01
C     4.577997328455023e+00   2.691473856592149e+00   6.248020283422819e+00 -3.88255775e+00  -1.80813500e+00   2.22498990e-01
C     6.174673161965968e+00   8.857988824085595e-01   6.237487662542539e+00  1.09745842e+00  -6.15108860e-01   8.43436270e-01
C     1.903635577636000e-02   3.690858792719498e+00   3.502586959396059e+00  5.43911630e-01  -2.73437920e+00   1.41245823e+00
C     1.852826918527704e+00   5.350455824230541e+00   3.603116688951791e+00 -2.37100851e+00   5.53409130e-01  -2.87824848e+00
C     7.099312039064851e+00   5.362665464175331e+00   5.364025874096346e+00  6.39872430e-01   9.26272730e-01  -1.82887409e+00
C     1.734799095850582e+00   3.545403690036915e+00   5.317533164866011e+00  1.76983847e+00  -1.71209370e+00  -1.82964446e+00
C     9.553096592616226e-01   4.520067025060654e+00   4.445277960075337e+00 -2.64580109e+00  -1.14940445e+00   3.76813600e-01
C     2.609035275856997e+00   6.286444577558324e+00   4.464950377507734e+00  3.00105043e+00  -1.82864577e+00   6.12545160e-01
C     8.366743507873945e-01   6.286844497414926e+00   6.281406625194852e+00  8.82674000e-02  -4.55185630e+00  -3.74762170e-01
C     2.675250090393845e+00   4.313096841456437e+00   6.175725919355990e+00 -1.18763178e+00   3.70125225e+00   3.55765870e-01
C     3.581399320500071e+00   3.531590532117505e+00   3.498257930020479e+00 -7.22839680e-01  -5.40695460e-01   1.98123440e+00
C     5.277003711371592e+00   5.296157142868504e+00   3.624637154096936e+00 -2.62693520e-01   2.22016065e+00  -2.14922918e+00
C     3.573747601139224e+00   5.235454767905013e+00   5.336279141578343e+00 -1.16737387e+00   2.31618961e+00  -5.09215160e-01
C     5.415766234157445e+00   3.552686979853367e+00   5.343946144047823e+00 -2.19111253e+00  -1.58672356e+00  -7.78744250e-01
C     4.406822957554113e+00   4.334052400255970e+00   4.487946195767661e+00  1.88035064e+00   2.46968730e+00  -1.52495977e+00
C     6.165536990709388e+00   6.266068141949642e+00   4.417344276042427e+00  1.65134264e+00  -1.98585959e+00   1.12197633e+00
C     4.468492433415054e+00   6.184246714466358e+00   6.160634738133730e+00 -1.80430170e-01   5.43786400e-01   8.59977500e-01
C     6.239467216073757e+00   4.412126338418216e+00   6.225625766632318e+00  9.91314420e-01   1.85508082e+00  -1.82712572e+00
