64
Lattice="7.10842262195238 0 0 0 7.10842262195238 0 0 0 7.10842262195238 " PBC="1 1 1" Properties=species:S:1:pos:R:3:force:R:3 Energy="-510.66802613"
C     2.538609645012740e-02   7.107796865556761e+00   2.143246287310960e-02 -2.89385380e-01  -7.92246480e-01  -1.83418306e+00
C     1.803583036490750e+00   1.810347909045525e+00   7.098853759058540e+00 -1.12325424e+00  -1.80307240e+00   6.68966710e-01
C     7.050380216780914e+00   1.765622566931200e+00   1.723584350735686e+00  2.80184304e+00  -6.25024810e-01   1.49032680e+00
C     1.803350662155302e+00   7.081952204763418e+00   1.791329324325715e+00 -6.97786220e-01   6.17337740e-01  -8.90272300e-01
C     9.292144265709240e-01   8.360566999459428e-01   8.423530563658340e-01 -1.18035204e+00   2.35959166e+00   2.00756379e+00
C     2.692167283218730e+00   2.644020657297399e+00   9.221711171021231e-01 -1.70651217e+00   9.17581940e-01  -1.12125401e+00
C     9.299441061528669e-01   2.678172434017152e+00   2.615762687024565e+00 -2.35822410e+00  -8.96599420e-01   4.38347730e-01
C     2.702261954181392e+00   8.302468439701645e-01   2.620647381796350e+00 -9.52647990e-01   1.50881639e+00   1.81682082e+00
C     3.563754225198898e+00   2.737581502569160e-02   7.093207396803021e+00 -1.10334686e+00  -1.30531495e+00   8.65037940e-01
C     5.283419276038821e+00   1.774437366401130e+00   7.053722028423028e+00  1.58859263e+00   8.29644000e-03   1.27415590e+00
C     3.561658022452486e+00   1.751710104347788e+00   1.733609430240899e+00  1.27913700e-01  -9.05491470e-01   1.32251284e+00
C     5.354512316682869e+00   7.097846424489059e+00   1.707045539246863e+00 -1.58345692e+00   6.47334620e-01   2.22652089e+00
C     4.454533481747708e+00   8.511628088557048e-01   8.107346503836216e-01  1.95901150e-01   1.78714778e+00   1.47836008e+00
C     6.186820532128608e+00   2.608824084620957e+00   9.090071003363713e-01 -9.05699630e-01   2.13734980e+00  -1.59007544e+00
C     4.382034181856745e+00   2.631256915809379e+00   2.657350868984006e+00  1.67256796e+00   1.89449220e+00   7.01523930e-01
C     6.174159151926316e+00   9.117312611370341e-01   2.617986343788553e+00  2.26397998e+00  -1.58691517e+00   2.09141200e-01
C     7.081852544678285e+00   3.503768876825087e+00   5.937750715557440e-02  4.91465350e-01   1.34427376e+00  -1.88426192e+00
C     1.816922915632120e+00   5.393965768245298e+00   5.207879206203700e-02 -1.47316286e+00  -1.69220989e+00  -1.97896471e+00
C     3.950093582553039e-02   5.293241125741327e+00   1.819043784605024e+00 -1.07239485e+00   1.36543400e-01  -7.61722580e-01
C     1.779896137383707e+00   3.588323421721535e+00   1.745084699044817e+00  3.46726280e-01  -1.29467060e+00   1.62208063e+00
C     8.572872125324181e-01   4.424568992456491e+00   8.806093784748286e-01  1.82848555e+00   9.03509570e-01   6.23195680e-01
C     2.684035105572998e+00   6.267163976380741e+00   9.360077328161793e-01  7.46234950e-01  -1.97065032e+00  -1.08394791e+00
C     9.216124661684174e-01   6.166794257418187e+00   2.664351599001313e+00  4.69222340e-01   1.88446269e+00  -5.24746710e-01
C     2.647587663768114e+00   4.443818671995677e+00   2.705515834635697e+00  1.66946746e+00   4.28485710e-01  -1.02797691e+00
C     3.532448305475060e+00   3.528410437089995e+00   6.541867120340759e-02  8.82159600e-02   1.96493299e+00  -1.91986383e+00
C     5.370318889557606e+00   5.338138278430378e+00   4.503477175097419e-02 -1.62988554e+00   3.64337810e-01  -1.20477872e+00
C     3.583702804850082e+00   5.338796162943859e+00   1.825839507713970e+00 -2.19076017e+00  -3.19491300e-01  -1.56996431e+00
C     5.308325625046324e+00   3.565583577760154e+00   1.794696726289262e+00  2.13074300e-01  -1.10891700e+00   1.26252790e-01
C     4.390594713049557e+00   4.462691818388682e+00   8.949777042008606e-01  2.66110478e+00  -5.64689480e-01   1.04827133e+00
C     6.245433741684079e+00   6.206610096365783e+00   9.329681713038673e-01  5.33406610e-01  -3.77503550e-01  -9.03681810e-01
C     4.411229966325835e+00   6.218368706895334e+00   2.655397829869161e+00  2.09989915e+00   2.20412280e-01  -3.68857770e-01
C     6.273641099987858e+00   4.414767401758452e+00   2.713632515920118e+00 -2.69411932e+00   6.90538200e-01  -1.53464155e+00
C     1.025751781646358e-01   7.090094263116592e+00   3.499201430954832e+00 -4.11756201e+00   1.11804502e+00   1.62374336e+00
C     1.798508831171915e+00   1.796990614268736e+00   3.475493206579929e+00  5.86474660e-01   5.72588360e-01   1.31432904e+00
C     7.057042443713057e+00   1.828484836107777e+00   5.334002029476252e+00  1.71903915e+00  -1.84920694e+00  -8.89632990e-01
C     1.823748636284523e+00   2.062842919056140e-02   5.239102170635562e+00 -2.46956172e+00   1.19989176e+00   4.34430260e+00
C     9.123112373385998e-01   9.630825061439141e-01   4.378439665790489e+00 -1.47039090e-01  -1.97251506e+00   3.84839800e-01
C     2.638288567465083e+00   2.736065276024314e+00   4.464273015916275e+00  9.74623200e-01  -2.60596230e+00   4.00780060e-01
C     8.905704821764608e-01   2.657907884980509e+00   6.220853384937929e+00 -1.27539229e+00   6.29559370e-01   1.01105342e+00
C     2.647791533328856e+00   8.937564061105185e-01   6.274400563860580e+00  1.16830597e+00  -2.19515200e-02  -3.24476430e+00
C     3.553993863352054e+00   7.036121218594777e+00   3.570432019576578e+00  2.84148420e-01   2.31254156e+00  -1.05775440e+00
C     5.294397737185827e+00   1.766523204077153e+00   3.507015293435641e+00  6.53074760e-01   4.28193860e-01   5.43130940e-01
C     3.547668717820552e+00   1.731904972665075e+00   5.367474383161987e+00 -5.65367100e-01   2.36604671e+00  -1.71800715e+00
C     5.309871280460817e+00   7.098658206352264e+00   5.303377309892090e+00  1.82392814e+00   1.49362000e-02   3.70436800e-02
C     4.463355247471806e+00   8.597212075217324e-01   4.360084652322256e+00 -1.18449167e+00   3.80568070e-01   3.23079032e+00
C     6.173484562619678e+00   2.714947360852139e+00   4.422757482036009e+00 -6.27288080e-01  -2.61695679e+00   1.75617551e+00
C     4.380269800278234e+00   2.716127856596643e+00   6.243611781882348e+00  1.50585592e+00  -2.54073634e+00  -8.64202640e-01
C     6.234322637370983e+00   8.728401568880734e-01   6.216912688690080e+00 -1.22180638e+00   8.80170070e-01  -8.36633610e-01
C     7.095600305109591e+00   3.505006311034776e+00   3.607338310061582e+00  1.01776646e+00   1.75296604e+00  -2.72647916e+00
C     1.792282137293700e+00   5.340362859289307e+00   3.528256681908725e+00 -3.39251490e-01  -1.28571160e+00   2.48164531e+00
C     8.543044473168400e-03   5.267693312676594e+00   5.336432114833126e+00 -1.22193350e-01   2.34404547e+00  -4.28790380e-01
C     1.731727404268027e+00   3.570354040180436e+00   5.388911324341347e+00  1.25755528e+00   4.62082500e-01  -2.09426178e+00
C     8.673830919269255e-01   4.423588740977193e+00   4.400657822615787e+00  8.24633210e-01   1.50899320e-01   2.64300617e+00
C     2.693968841847543e+00   6.209348545095911e+00   4.526914710738953e+00 -9.78765220e-01   1.62966650e-01  -4.30453671e+00
C     9.072554428343510e-01   6.243640144488601e+00   6.205076809606648e+00  2.28644800e-02  -6.85868580e-01  -4.38139650e-01
C     2.666499835401303e+00   4.457420638679047e+00   6.239397482447854e+00 -6.64085810e-01   2.93265100e-02   1.26750278e+00
C     3.579891695146595e+00   3.607191947639837e+00   3.650328912719723e+00 -2.11133731e+00  -1.67637228e+00  -2.98265982e+00
C     5.309453731716118e+00   5.393012955277313e+00   3.503854248980753e+00  1.96273064e+00  -2.76251516e+00   2.11542965e+00
C     3.541502161197702e+00   5.360101882641654e+00   5.356190117673869e+00  1.13092883e+00  -1.35572202e+00   1.05355807e+00
C     5.265318673016157e+00   3.556608838781274e+00   5.357689994846688e+00  1.85867936e+00   2.02572663e+00  -4.82239690e-01
C     4.454470856544425e+00   4.500731262523540e+00   4.456437401662249e+00 -3.83316660e-01  -3.10039970e-01   2.54387330e-01
C     6.213675726281610e+00   6.173202642578569e+00   4.432187657652154e+00  1.01147480e+00   1.96316310e+00   9.14633000e-03
C     4.424224376127873e+00   6.257573790171421e+00   6.225308517730788e+00  1.04681810e+00  -1.11719723e+00   5.52713000e-03
C     6.247956805208823e+00   4.473104378010910e+00   6.259855380579762e+00 -1.48360208e+00  -2.58863664e+00  -1.16277660e-01
