64
Lattice="7.10842262195238 0 0 0 7.10842262195238 0 0 0 7.10842262195238 " PBC="1 1 1" Properties=species:S:1:pos:R:3:force:R:3 Energy="-514.39288185"
C     9.571988647413401e-03   1.814204512653780e-02   7.095804530091464e+00  1.61698750e-01  -3.63285590e-01   8.25947810e-01
C     1.809803759293964e+00   1.755901230324540e+00   2.023902979943780e-02 -6.97932300e-01   2.53095060e-01  -8.18624500e-02
C     7.098749336330251e+00   1.792513161028850e+00   1.769322571989136e+00  6.91090040e-01  -2.79561600e-02   3.85757690e-01
C     1.756408771699608e+00   7.107289039844788e+00   1.827706321662434e+00  2.31641530e-01  -2.61098660e-01  -1.44953051e+00
C     9.075659387343925e-01   8.901156142130069e-01   9.250427776721507e-01 -9.17554580e-01   8.17362800e-02  -8.84897190e-01
C     2.683411981246129e+00   2.656884343207455e+00   8.870963827893882e-01 -2.68264330e-01   4.16229960e-01  -5.84359600e-02
C     9.013937664576728e-01   2.695014277562267e+00   2.656517477516037e+00 -8.99773220e-01  -1.22880542e+00   3.59728610e-01
C     2.655375651590587e+00   8.727262799577009e-01   2.665981347055400e+00  2.56488390e-01   7.86789440e-01   4.15394340e-01
C     3.520681804596401e+00   7.090688527247623e+00   7.098067354264089e+00  9.62145250e-01  -5.05029400e-02   9.86235940e-01
C     5.300337748379778e+00   1.737444992918198e+00   6.988930035757800e-03  7.53506620e-01   1.31790113e+00   6.02129000e-03
C     3.559041269917611e+00   1.760038758794737e+00   1.765008754637963e+00  6.04597900e-02   4.27252000e-01   7.00936900e-01
C     5.346401819726128e+00   2.764899170697820e-02   1.778213573749553e+00 -7.59951390e-01  -7.41700310e-01   2.32019080e-01
C     4.435267808257627e+00   8.638335721758548e-01   9.074924376445017e-01 -3.17551480e-01   4.08623240e-01  -1.06195231e+00
C     6.224362457764292e+00   2.645559559710402e+00   8.690882603450112e-01 -3.69125170e-01   5.07051530e-01  -1.11125640e-01
C     4.464861593309210e+00   2.657020042995271e+00   2.658673817517814e+00 -6.31973620e-01   4.11482810e-01   4.70340000e-03
C     6.205669936390062e+00   9.174604365160753e-01   2.675757347432008e+00  8.67179320e-01  -3.25174730e-01  -4.26296750e-01
C     4.484561662505600e-03   3.537367547180779e+00   7.073741550131960e+00  3.90002280e-01   2.16041480e-01   1.16266279e+00
C     1.789167724091199e+00   5.321392540759087e+00   3.641275270249759e-02 -9.27958610e-01   5.18513610e-01  -1.08788551e+00
C     7.089928281448415e+00   5.314617289907286e+00   1.779147691566047e+00  3.62874590e-01   8.94209120e-01  -1.29474540e-01
C     1.784752114128108e+00   3.554357672421746e+00   1.779940636109308e+00 -2.29322820e-01  -4.84071300e-02  -5.09983400e-01
C     8.690363688598851e-01   4.433143029652282e+00   8.956980717491715e-01  6.89221710e-01   2.36973000e-02  -3.83341280e-01
C     2.648248747071774e+00   6.232044885510858e+00   9.056236333377038e-01  3.45824310e-01  -6.61246920e-01   2.68787590e-01
C     8.600521045946934e-01   6.222742590417647e+00   2.696743970038391e+00  3.61963900e-01  -6.03423600e-02  -1.16656940e+00
C     2.658566338167800e+00   4.448026929270943e+00   2.651882928136250e+00  6.21589800e-01   4.00875980e-01  -2.18066490e-01
C     3.529391257243103e+00   3.576179108180622e+00   7.086432572456578e+00  1.09499989e+00  -3.88549080e-01   1.04933276e+00
C     5.341344816790034e+00   5.352360739324248e+00   7.096368796679039e+00 -7.43328370e-01  -4.30504350e-01   6.30509070e-01
C     3.565080301438659e+00   5.352829042206454e+00   1.791302170151307e+00 -3.29314750e-01  -6.04445200e-02  -4.80101450e-01
C     5.349723301279550e+00   3.558067416018671e+00   1.769338068350447e+00 -4.37780370e-01  -6.50982770e-01  -1.76042860e-01
C     4.446749616810355e+00   4.467927669237895e+00   9.149290561368671e-01  9.41675000e-03  -4.52134550e-01  -1.30636490e+00
C     6.204871660529835e+00   6.254268586905798e+00   8.782283412340334e-01  8.93887760e-01  -9.10990690e-01   2.02729880e-01
C     4.452457893426893e+00   6.243014958719172e+00   2.669971517924685e+00  1.74971930e-01  -8.22475130e-01  -3.72001230e-01
C     6.235579619742878e+00   4.413841600796422e+00   2.664391050746854e+00 -9.60813000e-01   1.22501402e+00  -3.09302070e-01
C     7.105052943341216e+00   3.665898846205440e-02   3.546164220173029e+00 -4.22688660e-01  -7.73271320e-01   1.15092764e+00
C     1.774248993201700e+00   1.789030673703086e+00   3.548784384750761e+00  2.51556430e-01   2.48838930e-01   3.89380540e-01
C     1.751799670472800e-03   1.802831249714459e+00   5.364000639196046e+00  6.87913870e-01  -4.73833390e-01  -7.65523040e-01
C     1.784328167803051e+00   7.081629482376470e+00   5.324213802612739e+00 -6.62904910e-01   4.10695750e-01   3.75598600e-02
C     8.827773052054761e-01   9.173081741035550e-01   4.471382931305024e+00  1.67273500e-01  -7.67205960e-01  -9.00319850e-01
C     2.687338034143381e+00   2.689003395394794e+00   4.416816973252476e+00 -2.73305840e-01  -6.67987630e-01   6.22940350e-01
C     9.626501718801656e-01   2.654467550600881e+00   6.227050863199175e+00 -2.18267454e+00   5.84398360e-01  -1.24994680e-01
C     2.645511293520812e+00   8.514008699292486e-01   6.232156914251348e+00  6.67496010e-01   6.45573590e-01  -5.68328030e-01
C     3.546669842273989e+00   7.092359361984455e+00   3.534885641423006e+00  2.71929070e-01   4.19240700e-01   8.43740120e-01
C     5.333100610403811e+00   1.771721451370707e+00   3.569910616777401e+00 -3.33659680e-01   3.70969100e-01   2.88334620e-01
C     3.529567688292532e+00   1.742894096446012e+00   5.348864959248185e+00  7.76498940e-01   1.13314551e+00  -7.89153750e-01
C     5.328772007533588e+00   7.097552633382175e+00   5.342677148441700e+00 -1.76135800e-02   3.26613600e-02  -4.70998520e-01
C     4.440477713364277e+00   8.602470175429339e-01   4.458325540878572e+00 -4.32081420e-01   6.94540320e-01  -2.60093850e-01
C     6.228713452165768e+00   2.677299235382512e+00   4.460412715928257e+00 -5.58848840e-01  -4.14767590e-01   7.17153700e-02
C     4.425448375418811e+00   2.661565097334273e+00   6.238830088154326e+00 -8.26945700e-02  -4.08116410e-01  -4.43434400e-01
C     6.222122664880956e+00   8.997340919443553e-01   6.219711274675574e+00 -2.43331230e-01  -3.78292290e-01   1.94953500e-01
C     7.078807367512104e+00   3.549948388954786e+00   3.550828624927821e+00  1.70675061e+00  -9.11816600e-02   1.68652990e-01
C     1.767071761050739e+00   5.322792260257191e+00   3.523442573773556e+00 -3.02680560e-01  -1.57698230e-01   8.14832130e-01
C     4.141793523769200e-03   5.305937052877552e+00   5.316177801925055e+00  1.53534000e-03   1.00730384e+00   1.36573310e-01
C     1.795063378728001e+00   3.576443541502085e+00   5.321746469121337e+00 -4.31582800e-02  -8.47700340e-01  -4.72040820e-01
C     8.929260001800502e-01   4.429174255135083e+00   4.413280248662121e+00 -4.96434700e-01   2.57208550e-01   8.47069830e-01
C     2.654745205588419e+00   6.184518398378895e+00   4.400758548964313e+00  3.08345310e-01   1.04946660e+00   7.96718600e-01
C     9.016836479321164e-01   6.214533712891845e+00   6.234675925975198e+00 -5.41127520e-01  -3.78943730e-01  -5.67270780e-01
C     2.658185468883820e+00   4.469552370311923e+00   6.193707456299768e+00  2.95075690e-01  -5.20143250e-01   8.70515640e-01
C     3.570850847837348e+00   3.591247187029367e+00   3.518837595431868e+00  2.29946230e-01  -1.42405948e+00   1.14353312e+00
C     5.354206796678661e+00   5.336860610548659e+00   3.534836237885797e+00 -6.17474680e-01  -2.44369640e-01   6.94265680e-01
C     3.547696298500318e+00   5.330961330616321e+00   5.299173744175753e+00  4.07678350e-01   3.09313800e-02   6.17726650e-01
C     5.323171921109325e+00   3.550395650906036e+00   5.354852525789463e+00  7.67460400e-02  -1.06024390e-01  -6.28073920e-01
C     4.472836106141231e+00   4.445283504644980e+00   4.455692581140124e+00 -9.32528200e-01   1.29641410e-01  -1.10450483e+00
C     6.203469097662683e+00   6.218027858030706e+00   4.428224356620373e+00  1.11923764e+00   3.11437530e-01   5.07096370e-01
C     4.423415011128360e+00   6.213245879965779e+00   6.219070592544833e+00  2.35711440e-01   1.28774890e-01  -2.69591350e-01
C     6.214381805900455e+00   4.442858537352394e+00   6.211298740841709e+00  4.63368700e-01  -2.13102350e-01   1.44897640e-01
