64
Lattice="7.10842262195238 0 0 0 7.10842262195238 0 0 0 7.10842262195238 " PBC="1 1 1" Properties=species:S:1:pos:R:3:force:R:3 Energy="-514.59185204"
C     7.101769705101489e+00   7.100337997701595e+00   3.664697522782660e-02 -6.38197900e-02   2.07029660e-01  -1.09826831e+00
C     1.774655452807112e+00   1.785595670640423e+00   7.100398774714995e+00  3.05316050e-01  -4.18036670e-01   1.28486700e-01
C     1.507675112434140e-02   1.755742570331662e+00   1.789530537981724e+00 -4.39491670e-01   8.47581060e-01  -1.60295300e-01
C     1.776562500427606e+00   1.443550031979120e-02   1.784931672883489e+00 -6.19004800e-02  -3.52517930e-01  -9.32812230e-01
C     8.968044266457484e-01   8.943002004409486e-01   8.709286309613292e-01 -2.77388160e-01  -6.70210000e-02   1.05277589e+00
C     2.667596238506212e+00   2.643021070908574e+00   9.099463362171519e-01 -3.93795580e-01   1.25747388e+00  -9.19162720e-01
C     9.005080569992207e-01   2.679984442027217e+00   2.661096794452067e+00 -5.22715550e-01  -8.62550970e-01   6.50570110e-01
C     2.676745844681545e+00   8.806216049617350e-01   2.670600257905424e+00 -8.01556900e-01   1.66536860e-01   1.58990800e-01
C     3.571106466714763e+00   7.092035786586792e+00   7.106707357621794e+00 -7.90856430e-01   5.01119450e-01   6.13627810e-01
C     5.314691430755213e+00   1.776200041958212e+00   7.105113862523068e+00  9.63734480e-01   1.59730770e-01   8.10221450e-01
C     3.547455465141952e+00   1.783697437463978e+00   1.776275959911794e+00  2.82394660e-01  -8.03737380e-01   3.70756650e-01
C     5.324275077215723e+00   7.102133514171181e+00   1.773655724249835e+00 -3.42343680e-01   5.25492890e-01   5.55046620e-01
C     4.436776784211400e+00   8.928729002630788e-01   9.060207809094831e-01  1.59070250e-01  -3.10179450e-01  -8.50013650e-01
C     6.229903757533487e+00   2.668181190603612e+00   9.238482072508598e-01 -7.25274540e-01  -2.30045100e-01  -9.75299010e-01
C     4.440307040137171e+00   2.665462218951462e+00   2.635349092543260e+00  1.21321290e-01   5.68544670e-01   9.51935500e-01
C     6.220218460629511e+00   8.599114289110436e-01   2.675021910027743e+00  4.96299500e-01   8.67824880e-01  -2.10474570e-01
C     7.100367355487016e+00   3.543960111571245e+00   2.742145109891200e-02  4.84712420e-01   1.14205930e-01  -1.20211705e+00
C     1.778739383770754e+00   5.332600817209398e+00   7.103239442562400e+00 -4.78809810e-01  -1.71829910e-01  -1.70784240e-01
C     2.148776640109320e-02   5.327346626629825e+00   1.784740029809654e+00 -1.07322601e+00  -1.75360020e-01  -3.85207120e-01
C     1.780194548965295e+00   3.572469151331017e+00   1.774681043128544e+00  1.01880000e-02  -1.11554162e+00   9.36627300e-02
C     9.029420519885351e-01   4.439357070538234e+00   8.731830671952622e-01 -3.47220220e-01   1.71101420e-01   5.74056210e-01
C     2.636194994835040e+00   6.212577474986820e+00   8.730135313157752e-01  1.24264726e+00   3.19154040e-01   8.86691130e-01
C     8.758277558310332e-01   6.227757795828735e+00   2.657895729577829e+00  1.29215718e+00  -1.64894460e-01  -1.73205420e-01
C     2.663893105742323e+00   4.416619003682509e+00   2.665333343249361e+00  4.92445450e-01   1.58874694e+00  -2.91653480e-01
C     3.556690159136046e+00   3.543693474638769e+00   1.777169630803580e-02 -2.18926350e-01   5.38360660e-01  -9.02149260e-01
C     5.344949924405993e+00   5.322460296920837e+00   7.093287508725949e+00 -7.71572030e-01   7.88939360e-01  -2.54431800e-02
C     3.554470483088725e+00   5.338135790482461e+00   1.777864905620042e+00 -5.17319950e-01  -2.07645190e-01  -5.13809780e-01
C     5.313580881889290e+00   3.587378356934205e+00   1.772421844251456e+00  7.49965910e-01  -1.01188929e+00   7.72411700e-02
C     4.438603151235156e+00   4.468526056254047e+00   8.641993005196539e-01  1.83104710e-01  -6.77045760e-01   8.32482730e-01
C     6.189408993141455e+00   6.219952179118165e+00   8.987397657882696e-01  1.26171770e+00  -5.19036500e-01  -4.66250000e-03
C     4.417124128193886e+00   6.244449011898531e+00   2.660460164122220e+00  6.13578470e-01  -9.82582050e-01   1.35564600e-01
C     6.224307793994344e+00   4.427368004947342e+00   2.679598667931629e+00 -5.62092120e-01   1.36276504e+00  -6.95358100e-01
C     2.593223656002200e-02   7.085035198737938e+00   3.545436957454777e+00 -1.41405875e+00   6.65323760e-01   7.90030900e-01
C     1.773977451457617e+00   1.742971009578760e+00   3.578621277855949e+00  3.83961790e-01   1.71208130e+00  -9.71832970e-01
C     7.097106722031222e+00   1.761990589477737e+00   5.336894730977235e+00  6.46412000e-01   1.75855490e-01  -2.33135140e-01
C     1.796967298642542e+00   7.092146962316569e+00   5.334975599038288e+00 -1.11648282e+00   8.49656050e-01   8.37713380e-01
C     8.883187471431234e-01   8.814141940838650e-01   4.443113942977130e+00  1.43868720e-01  -5.80804460e-01   3.23101100e-01
C     2.673793787851685e+00   2.661335850704778e+00   4.441109652135195e+00 -3.07076730e-01  -4.38770890e-01   4.28989420e-01
C     8.882408388312082e-01   2.654258491891627e+00   6.188335905662739e+00 -1.34285700e-01   4.91281300e-01   1.41484937e+00
C     2.683494296780068e+00   8.896837064546158e-01   6.252942013076455e+00 -2.06291030e-01  -3.97081240e-01  -1.42955142e+00
C     3.535833194158252e+00   7.102378683667345e+00   3.558748189652989e+00  7.86246190e-01   5.87546920e-01  -1.08074070e-01
C     5.342727831494981e+00   1.799666793216713e+00   3.549599436488370e+00 -1.59283680e-01  -7.29862930e-01  -3.33042190e-01
C     3.566525870262662e+00   1.755289266221184e+00   5.331119706272295e+00 -4.43521220e-01   1.16174445e+00   2.02020620e-01
C     5.315929789059843e+00   1.778527339524000e-02   5.321658751186206e+00  7.02669840e-01  -6.10424820e-01   9.04671100e-02
C     4.434447567371505e+00   9.028224883200666e-01   4.419280823616794e+00  4.61341770e-01  -2.27933930e-01   7.20445330e-01
C     6.245401398361158e+00   2.683298530821113e+00   4.451583415276182e+00 -1.19045989e+00  -8.27824480e-01  -1.23440000e-01
C     4.448737487196039e+00   2.672377932234233e+00   6.218840777241529e+00 -2.89349560e-01  -6.73423640e-01   1.10815830e-01
C     6.227306197739686e+00   8.755867803042152e-01   6.241683408993994e+00 -8.47266310e-01   4.85432590e-01  -5.30734070e-01
C     7.091597054742686e+00   3.570405007570622e+00   3.559522865550117e+00  1.35520326e+00  -4.08611240e-01  -9.75907900e-02
C     1.806597505271213e+00   5.365414504455163e+00   3.525257780573799e+00 -1.06676609e+00  -1.28892816e+00   8.61938770e-01
C     8.776200735104401e-03   5.326259535558548e+00   5.325757183331993e+00 -4.93120260e-01   4.38518670e-01   2.87492470e-01
C     1.774902043987800e+00   3.557254923313205e+00   5.332854801149611e+00  1.62391010e-01   1.39057300e-01  -8.35982960e-01
C     9.016434142600871e-01   4.471467521534203e+00   4.417879753518393e+00 -1.40504960e-01  -5.39118520e-01   5.76710980e-01
C     2.664957094440084e+00   6.220119155965509e+00   4.458753396836070e+00  9.47405200e-02   9.43989800e-02  -8.79638120e-01
C     8.690972880417386e-01   6.223627446865384e+00   6.241504347828196e+00  7.07777730e-01  -3.33479050e-01  -7.15710520e-01
C     2.665347204673470e+00   4.454464245711389e+00   6.206938434406601e+00 -2.22138710e-01  -7.38064960e-01   7.18579410e-01
C     3.547556760164287e+00   3.545994044535506e+00   3.544453649353752e+00  3.18775840e-01  -2.22468360e-01   1.45259720e-01
C     5.327722448933744e+00   5.357820221149087e+00   3.541006277635731e+00 -8.40651000e-02  -9.72796970e-01   4.59625940e-01
C     3.533220706676949e+00   5.336624539833450e+00   5.326349741441597e+00  1.14279476e+00  -5.78563460e-01  -6.63022900e-02
C     5.322889361310180e+00   3.539190359993226e+00   5.332011102468843e+00  5.90240870e-01   9.29891510e-01  -5.98451000e-03
C     4.446731063827317e+00   4.432068449404817e+00   4.431113859331178e+00 -4.48942310e-01   5.67439200e-01   7.56300600e-02
C     6.212130141951344e+00   6.219538540005908e+00   4.444070523409104e+00  3.45427580e-01   1.73894990e-01  -1.06147090e-01
C     4.438441363536326e+00   6.221456108091879e+00   6.205680385771313e+00  2.27365860e-01  -7.29759400e-02   6.61565900e-02
C     6.219937535767569e+00   4.447437641035745e+00   6.220923829406093e+00  2.44214570e-01  -7.38318520e-01  -4.86532000e-02
