ITEM: TIMESTEP
9370
ITEM: NUMBER OF ATOMS
96
ITEM: BOX BOUNDS pp pp pp
0.0000000000000000e+00 1.7084949165859321e+01
0.0000000000000000e+00 1.4796000000000010e+01
0.0000000000000000e+00 1.9999999999999982e+01
ITEM: ATOMS id type x y z fx fy fz
10 1 1.5368469894992667 2.1348445384773078 0.2692041586249688 -1.2698057461799630 -3.4987437321219135 1.5627906294057881
4 1 3.6757595778325967 0.7940151235665989 0.2253193908621860 -0.1496507372421399 3.4773423568770552 -0.6792597988782690
9 1 0.0713784899467068 2.0748967716093993 0.2697083884775890 1.7057231253735574 2.5412696228072638 0.3219679823393324
3 1 2.2518021653818301 0.8385227931820215 0.2561758393491232 -0.5993569390815836 2.8469781999211490 -0.4955042196269355
12 1 3.6000317053505260 3.2798847897584475 0.1808719473112264 4.0817875906275951 -0.6149229976538182 -0.5891251806516171
11 1 2.2071515762749923 3.3519969777640357 0.3052106260211485 0.9506061068189564 -1.7584421692572756 -0.3097783847423890
13 1 4.3863909512272059 2.0696683721381257 0.1135990182254304 -0.7523414452451251 -1.5991802544067508 0.1055663151379498
16 1 7.9778778775702053 3.2488715193796285 0.1805755057112965 -0.3088753126772470 -1.0133133652548594 -0.4312566841034684
15 1 6.5567398219202362 3.2466308857028410 0.1329490785433496 1.2245075987271012 2.2161841528685526 1.0873555970288404
7 1 6.5371886556443046 0.8530175070686800 0.1282641449605069 -0.2743248290530976 -2.6115753245738600 -1.0334236901182348
14 1 5.8128661992403314 2.0518269286067183 0.1326430868066931 -0.6621444880765547 1.5273782775903848 0.4173999721135718
17 1 0.1090422395092110 4.5318843473710722 0.1283374329935545 -0.8863717485226775 1.4335505776942912 0.4351258206014263
18 1 1.5574375997805556 4.5744005147788354 0.2398676095005972 -2.6823760767959586 1.9486367631393890 -2.1303767844920252
19 1 2.3209726674332156 5.7845956403766499 0.0388721311617059 -2.5971815618677034 -0.4172107812158441 1.2071274486003976
20 1 3.7419656116716657 5.6971586206293034 0.0771223157591468 -0.9693160021294375 0.5834563672633308 -0.3952793217088215
23 1 6.6000399759722743 5.7189793696217306 0.2034310524617307 -2.3244924274078329 0.2773964342259979 0.1526692269297859
22 1 5.8326253027485082 4.4845345760673654 0.1752498798008422 2.0411400124632619 -1.6687966433586099 0.5820336008582407
29 1 4.3921557017616140 6.9362996429978914 0.0666999760834339 1.4453104947125412 1.3793916692802686 0.6329363606461224
21 1 4.4156159682271703 4.4533021828818491 0.1213462527034687 0.5511429894262817 2.2118127351379022 0.9677540476653692
30 1 5.8240625533480319 6.9648492792457803 0.0937334885786538 2.5861617761123652 0.3512322215816451 -0.1985728934451245
8 1 7.9600276054326278 0.7657532051542805 20.1028406605049454 0.4154600479152253 0.3088951736919048 0.5171768764567646
25 1 0.1470042028638438 6.9470488475044725 19.9752777262224157 -0.0384154569570047 0.3992293022759711 1.4590535777092557
26 1 1.5666968262797503 6.9789163378341232 20.0446333213472236 0.0051310755483318 -0.7169531420414406 -1.2639018004316531
24 1 7.9952701787133993 5.7449538752904141 20.2346021329039267 -0.6141567188694910 -0.3034083269041392 0.5927174316653928
28 1 3.6865363741679600 8.1831605648777170 0.0384843719204120 -1.3072427975676195 -1.4739209257595665 -1.7159976941726547
27 1 2.2449709787307364 8.2318205525341845 -0.0188651284672743 1.7221938461412534 -2.5551554803055385 0.2243242689175149
36 1 3.6764177858221587 10.6626529667337628 0.0037890963000044 -0.2084913929548004 -1.5823605700612673 -0.8638506478356596
35 1 2.2506959757675351 10.6831529814819053 -0.0095067742871224 -0.6043645018388144 -0.8045041317064945 0.3363369131067192
37 1 4.3982251088504647 9.3791333354955260 -0.0570564913968917 0.6964217475914420 1.5379411993722751 -1.0724497885067856
39 1 6.5159819894193731 10.6725446303160982 0.0946361865064391 1.9979368259029304 -0.5263279700847902 -0.8126304040176276
31 1 6.5683807756585120 8.2268361505117031 0.0050769942641607 -0.0504317709546651 -3.3014162150372099 0.5465269278981388
38 1 5.8568656090747133 9.4119887184843662 -0.1043860400645312 -2.2926408855824794 2.3220774158982636 1.8555834205764810
1 1 0.1440604498501505 14.4038059221597674 0.0755691225720155 0.3110497165541779 2.7137343761975776 -0.0598835399679770
2 1 1.5810865498275317 14.4373566559015938 0.0787962975493395 -2.6200967259793151 -3.0747147323878048 1.7488797735110695
42 1 1.5339767123738874 11.9360016389424182 -0.0356921543899629 -1.3118469790292460 0.4248235891909292 0.2163645406310406
43 1 2.2355585663164703 13.1552750381770807 0.1104095258428405 2.7645406395048742 -0.8061139593966189 -1.9299000818163070
44 1 3.6746432229908166 13.1287948306244786 0.0905222163989728 -0.6888205006601493 -1.1042210919463782 1.2397111143414814
47 1 6.5406752894839935 13.1341674200917407 0.1392553438055079 -1.4556211037977345 0.7690475977825405 -1.3785500274590023
46 1 5.8343605935936464 11.9164436012817063 0.0871289827986755 0.5593166273250356 -0.7842932180694916 -0.7253083170911043
5 1 4.3727425330108973 14.4001661364030937 0.1667844612684925 1.1699269936037382 -3.3172182614285819 -0.4846119181558201
45 1 4.4028747163314410 11.8550376849013563 0.0651261748027793 0.2228142910456327 2.0795844192013129 0.3700267289490052
6 1 5.7831585709445363 14.3758214221845808 0.1975279741008187 3.2209050818723668 0.8498409025170257 -0.5026018089906126
34 1 1.5585068421255988 9.4283831199748640 19.8806247310914266 -0.0274864695172743 2.8105619044605135 1.7224620781555164
33 1 0.1647717561932388 9.4769379684301907 19.8563226411547689 -2.4997147906930492 -3.3148652941951156 0.9614775797918371
40 1 8.0056477239450192 10.6517817792502409 20.1315830884451117 -0.8995039278946485 0.3533721104262306 -0.2247825099579021
32 1 7.9496441294962699 8.2349366935869153 20.1503313238447674 3.1037050145803966 -2.0566585523330270 -0.6956233171620995
41 1 0.0865373763285442 11.9556371054246178 19.9531946850211419 2.4451823931557080 -2.9734407527893252 -1.5839310404394182
48 1 7.9636430770670188 13.1079776527640650 20.1000675395662931 -0.1409334862605525 0.3642571778638446 -0.4409686776128459
52 1 12.2394898131438818 0.7844655938413481 0.1859928021976491 -0.7919751493036040 -0.7531181512972754 -1.1105371895671223
51 1 10.8265413554925818 0.8124321813454589 0.1269440301154580 -0.8359437518214896 0.2023193146872193 1.6263224875114903
61 1 12.8757613786608758 2.0195732083861437 0.2303955031874962 1.7151381159784882 1.1758622516634931 -0.0735291936166794
62 1 14.3493859241581134 2.0415587221400169 0.1833756677532396 -1.4928618417775295 -2.0693211347356417 0.1140752982179125
56 1 16.5211360178555786 0.8798438750080618 0.1745168899869846 -0.4478782454301877 -4.1931183488814083 -1.3108533908843967
55 1 15.0840568083779871 0.8150084198907896 0.1457097377017662 -1.7896738082370267 0.3763059767653707 -0.2349731720385057
63 1 15.0372883004264395 3.2540181582438277 0.1803530657695912 1.7513381666378243 -0.6737929581250854 1.2683513274474021
64 1 16.4308385085114281 3.3087334039704865 0.1766163141241371 1.8955333999168857 -1.1843620246870110 0.0580126868809673
72 1 16.4812644845983058 5.7617423729450286 0.1238899565730652 2.0339094629423800 -0.0517665824876810 -2.0044246968886918
58 1 10.0996905296328379 2.0390658070430123 20.1593636469774502 -0.5543359030132591 1.5066459794131586 -0.0520320441933549
57 1 8.6896695321306083 1.9808214975005782 20.1478852022450425 0.1936356904968852 2.4587881136280147 -0.9379581380124995
60 1 12.1949826489515942 3.2872159206093308 20.3031912789875548 0.4302513124641330 -2.3120953016985926 -0.7533676688008309
59 1 10.7905335229926749 3.2991590112659432 20.2874038102320498 0.0200082898861811 -0.6456911087436132 0.1484189965027032
65 1 8.6863050341358630 4.4917235101268993 20.3323700881355407 0.6106959345036742 -0.7406240689218049 -0.9169329349519194
73 1 8.6772656139425628 6.9903256701762322 20.2538751165979001 1.0541917990352734 0.1781957892337824 -1.0014456807118262
74 1 10.1186435618185584 7.0093268601088274 20.2434441126989704 0.6480300040340379 -0.8766259590825325 1.1900443534682772
68 1 12.2575261740330390 5.7840208953460950 20.2287399422361567 -0.0131481509081921 -3.3410784769206465 0.6016511526847713
67 1 10.7924452583408907 5.7278085209536389 20.3447174895094918 3.2440938741873051 2.2435017606626011 -0.3947847896907182
66 1 10.1096034305714024 4.5150147888060967 20.3678109949156401 -0.4956367564852724 0.3194614540980140 0.4461997308673767
71 1 15.0759199443773859 5.7146830927984507 20.1308719085554060 0.8873646483093661 0.6496029734867963 -0.2656069866763713
70 1 14.3958484691038411 4.4702350297800697 20.2318301289885412 -2.0951449500539239 2.2857450003432440 -0.2764716358580944
77 1 12.9755590618218388 6.9675714534828996 20.1834018497101191 -0.8458226774492691 1.4156298742920683 1.6158837460035744
78 1 14.3565840478118645 6.9707852009552838 20.0760219795450787 0.5102509570423219 0.7337053672420740 0.7018232725772201
69 1 12.9632512344207846 4.4756343646640175 20.2281327896205738 0.3729051608213637 3.4105789113513971 -0.3427430923310632
90 1 10.1098366365782262 11.9449903155941417 0.1718177691112230 -0.9332943806500045 -0.2811709710001697 -0.8447429289088124
89 1 8.6777036466700110 11.9050094494229377 0.1783440232424529 2.0423467700355444 0.1803753644708166 -0.7777957196365382
96 1 16.5392732437199044 13.2062718552766007 0.0548839123697172 -1.5964885434810185 -0.9315033128035043 0.1312684252845452
75 1 10.8897903155386331 8.2087222006067062 20.2364444557063905 -3.8208297084949248 1.4102026049184757 -0.1094185922498586
76 1 12.2584856515575478 8.2443800681529229 20.3067414202787226 2.8188065169620211 -2.3752361412330805 -1.4116728571570993
82 1 10.1541273621007520 9.4473591234818066 20.1985751645882274 -1.2101173774799709 -1.3766583273449362 -0.7682708361541749
84 1 12.2679053595867398 10.6958623254177958 20.1062187516004265 0.1344619944420885 1.3386605735376715 0.6347661338093931
83 1 10.8507026335238894 10.6719172250823995 20.2259836992267452 0.0401143547683186 2.1104948188339416 0.5819606813536546
81 1 8.7256427028565131 9.4307742541238184 20.1824594130314878 0.0734478075386850 1.4431036883772790 -0.8964817657704738
85 1 12.9605876635649722 9.4511558700589067 20.0783862226266727 1.1047740571365028 1.4227081538715094 -0.3610779215976175
88 1 16.4816331928834892 10.6526438660520402 19.8167991375284060 1.5388526381446339 1.9482449488173659 1.3418737779586860
86 1 14.3592505837519635 9.4374056828862276 19.8917011703989495 0.8299132371262479 -0.7321958087261822 1.1679782846263307
79 1 15.0863110132685119 8.2022906369189723 19.8812683776787829 -0.8951832688607309 0.9613478875306785 0.6949641733826144
80 1 16.5234450927568837 8.1758315782711328 19.8902464055203865 0.3218025609483190 1.6970476565126920 -1.3734313401743727
87 1 15.1001725055063449 10.6753958230897670 19.9878217238064053 -0.2790218555663270 -1.2489427519987288 -0.7588042496944847
92 1 12.2630461117920095 13.1623097436460945 20.2105217020134553 -1.6866377164257134 -1.4739207157070504 0.7466225655458406
91 1 10.8043943198114718 13.1826661682832267 20.1415965949430529 0.6548093292432218 -0.1883009393742263 0.6065996479540604
49 1 8.6463109870799890 14.3413824498322331 20.1200410097580402 0.3815487743574968 -1.0200731074954084 -1.3404917036368242
50 1 10.1037497100151086 14.4119228403116626 20.1608892068940335 -0.2324504997871917 -0.5053504871321147 0.0603926785285273
54 1 14.3714027574265106 14.3708233461661763 20.2026691710760993 1.3229638095637311 -0.3549785517680125 0.2470631782358780
93 1 12.9980347625360615 11.9248548441032831 20.1644033808612519 0.6223298885855746 0.8463009693991800 -0.6960537271496414
53 1 12.9495719997093293 14.3547095864573659 20.2453496554462085 1.1520768528873355 1.5951965221561579 -1.3341424948715215
94 1 14.4420887324077540 11.8955718860544390 20.1029175057607468 -1.4685541997431795 0.9552822457586876 0.7659761527312035
95 1 15.1598029066666129 13.1763397484704701 20.0536482133119343 -2.9245201449229512 0.2753564593275429 1.9793270922456681
