ITEM: TIMESTEP
4950
ITEM: NUMBER OF ATOMS
96
ITEM: BOX BOUNDS pp pp pp
0.0000000000000000e+00 1.7084949165859321e+01
0.0000000000000000e+00 1.4796000000000010e+01
0.0000000000000000e+00 1.9999999999999982e+01
ITEM: ATOMS id type x y z fx fy fz
10 1 1.3706854080698552 1.8274760684846107 19.5415160127301100 -0.6554137198191835 -0.1452068644944569 1.1680525737560290
4 1 3.4800305250697194 0.6253122814605936 19.6221638777560337 0.2903877736394160 -0.0010577373430452 -2.0671879703954636
3 1 2.0574806334642126 0.5669435469083405 19.6280201654321793 0.0741435466775201 1.7267956117005148 -1.1539722605221698
13 1 4.2323023640983504 1.8268868464129777 19.4502245931663751 -1.0263364681901270 1.2340407024215128 1.7560121478951303
12 1 3.4977621525668710 3.1210165417787059 19.4495754763830568 -0.4970144556796976 -2.4594332888489054 -0.9311928433054197
11 1 2.0604463212815727 3.1077373754060691 19.5291731782909466 -0.1960500863432365 -0.6319000805446379 -0.4682395223278155
14 1 5.6666194971246284 1.8268764323146045 19.5462434343516733 -1.1812851682222016 -0.2790212344153455 -0.6045155352331145
8 1 7.8176219308965420 0.6183353888229318 19.5018281424542046 -2.2137438700811050 -1.9704392155508854 0.3313930653970740
7 1 6.3767656777163788 0.6011955566295925 19.6152880885696170 -0.3975077085176730 -0.7416544374104771 0.8382148069209159
57 1 8.4750883332538240 1.8305116764020695 19.5018215930708863 -1.8270314230518601 1.4877217929563478 -1.5032293767543341
15 1 6.3565443397290862 3.0828327234410993 19.5982767836045539 0.7507119355438308 -2.1312814211847586 -1.4989908100154246
16 1 7.7539952782966344 3.0942057241152683 19.5211984246265722 1.6688623164013840 -1.1120870212854845 1.2808198537079851
20 1 3.4549296312346391 5.5432093311904191 19.5332117629709288 -0.9941791602292369 0.4079875084894524 0.7388360820590294
19 1 2.0265995381284894 5.5765327150294768 19.4628607982561377 -1.3418139127511530 -0.0668480604368378 1.4292005149270739
18 1 1.3015112037131198 4.3017340337577430 19.5144846100753107 2.6640655715041306 1.5290566160756243 -0.7819260356223962
21 1 4.2334286635588505 4.3008529933634696 19.5463759029773350 -2.9820730787164642 0.8273242575230684 -0.2736436775420018
26 1 1.2894395935491587 6.8095438909110584 19.4471016623338606 1.1489097594949247 0.0717095465376553 0.9572681062657844
29 1 4.1098597829177006 6.7793735730809619 19.7552775086948174 1.2246608060080713 0.7468976675655490 -0.7873295536342486
65 1 8.4811369231582727 4.3118730234406755 19.7159819517563690 -2.5336957423453983 2.9723086404688019 -0.0528844543716585
22 1 5.6354330777281296 4.2710731216728748 19.6431984474467569 -0.1691584955817410 0.8935533682288249 0.2065612995602398
23 1 6.2372012602620304 5.5301428497907512 19.6998376756940843 3.7664170431944610 1.3193369997408226 1.2461429759905671
24 1 7.7001354050229320 5.5858617213902999 19.7022420775279592 -1.0809043860067418 -1.0651958354946327 0.2941264880264104
30 1 5.5459122398292182 6.7514040779245201 19.7932198718207069 0.1662185250616205 1.6940382557013434 -1.4107846618098785
73 1 8.4121956753734750 6.7800363988182681 19.6998629807128260 -0.1046085709701934 1.9954186090047314 0.4244365739825303
34 1 1.3761490952858380 9.2910499865871294 19.6779726309462752 -1.7750822974817186 -0.1050362067187157 -1.3340233779957822
28 1 3.4446290647064024 8.0280007515452478 19.6882528008176045 -0.8638387805102700 0.7789516964633075 0.1317656509331036
27 1 2.0075899944561093 8.0424801545934059 19.5587932509056373 0.7367081862995952 -0.7482324797765458 -0.1072819993525592
37 1 4.1393126552959449 9.2823844502893156 19.7984010426978720 2.1761253237178129 -0.2366701388872173 -1.4011173034677502
36 1 3.5055735396710439 10.5231132183306428 19.7322719379886884 -0.1372583799529893 1.0133320195129245 1.2198202130126117
35 1 2.0881723364181539 10.5442196167088511 19.6993294747600238 -0.9239367717641797 -1.4851239666455276 -0.8749375755195485
38 1 5.6046382704098390 9.2990853141728493 19.7809592927920512 -1.8244222928109517 -1.1372839895123346 0.7984455473019618
32 1 7.6529692383110284 8.0566080055083376 19.6950962902345061 2.2277451210739256 -1.2098273771780417 0.6620718676907777
31 1 6.2786343143816614 8.0354263080234194 19.7590896333463490 -2.2282286248566807 -1.8177965937531571 -1.1272352706977806
81 1 8.4105257333279191 9.2919793227551573 19.6703405119815500 1.7185295539408783 -2.8785419985217349 -0.3016362620581269
40 1 7.7394090749000792 10.4966332331244434 19.6911785178391696 1.3626926345615304 2.7220824232405496 1.5592927721323397
39 1 6.3192847138669697 10.5303547026894062 19.7541482795238821 -0.5086436351096089 -0.2795369121894192 0.3434096526697411
44 1 3.5425915971804529 12.9880579035202057 19.6855232203611124 -0.7402121384650091 -1.7086828368188547 1.9429153692397105
43 1 2.0898471831747498 12.9749612709734965 19.7629529792228951 -1.1683011675012400 -0.6333149137801727 -1.9682577471026419
42 1 1.3879924120682678 11.7539039639631362 19.7178970504140914 -2.4658714550638043 1.1456289663840635 0.9595817573036663
45 1 4.2325416801794198 11.7275035255878617 19.7785401498504996 -0.7133094914102698 1.7034259103419194 -0.2835901261342633
2 1 1.3271866195577207 14.1860776922748588 19.7065574702828386 0.0083152897270745 -2.0248346829224610 0.3926245311119988
5 1 4.2162008905481407 14.1948010256240025 19.6611246784409879 1.9110182675125429 -0.6377340726699008 -1.1440130829102422
89 1 8.5213604364044020 11.7066135139511740 19.7076029760626277 -2.1813206176577467 1.5199134143254198 0.2909789964476485
46 1 5.6194969376546213 11.7655216109116285 19.7868659494596919 2.2895807784332032 -2.0473899968266274 0.2884272530379159
47 1 6.4053515903879514 12.9629540024649348 19.7855784130129138 -0.3590393269138036 0.8953449756271199 -1.2153752106577609
48 1 7.8228697119544677 12.9820826464977266 19.7128629280190246 0.0940715747767803 -2.2860527895901619 -0.0149492724140036
6 1 5.6660810823668672 14.1640641519929833 19.6871559571706314 0.4445894000070509 0.3030600897496715 -0.1235291378586133
49 1 8.5419518262988561 14.1936657536515174 19.5876364681421009 -1.0304664743195096 0.2786352443909593 -0.2414472824279655
58 1 9.8570455036592932 1.8682984180255946 19.3786401665245265 2.9915188093839915 1.6824580080808824 1.0108756649362358
52 1 12.0523309073475406 0.7017194578088477 19.5779896876690920 -0.7999544617274268 -1.3766569964516200 0.1596717609579809
51 1 10.6136621533846522 0.6893692862733338 19.5082740522714033 1.0865592442035108 -1.8645178304781189 0.6192517070137405
61 1 12.6985988484133738 1.9252483929961228 19.5964525666288232 2.9020563094428868 0.1122518321150255 -1.1074103735345164
60 1 11.9933554855062745 3.1639617575756738 19.5413124300250090 -0.4726759560720631 -2.3698811935196602 -1.0443173586020302
59 1 10.6146839844176704 3.1518538956146367 19.4518473853760341 -4.1866689243281483 -0.9614370620468252 1.2977038212902112
62 1 14.1443126996379274 1.9282562784579047 19.6362783726423693 -1.1107185897939857 1.9066671876523658 1.4662357575312175
56 1 16.2358181702661639 0.6543538183026892 19.6997350996703169 3.6463450752925857 -0.1333630301206399 -2.1419726985306435
55 1 14.8404723370225327 0.7027221439201928 19.7143473746733591 -1.1408768771604711 -1.7517684944058391 0.9239531164587741
9 1 17.0204243955389423 1.8308015715942223 19.4876212656856040 -0.4440437753685340 2.4975534723134620 0.6735307978362508
63 1 14.9165831492300125 3.1474892670918275 19.5861434285067624 -2.8248379012461609 -0.4376829882638993 0.2658810696299211
64 1 16.3112750104121069 3.1128365899626700 19.4619444991961927 -0.5497197512352420 -0.7316799233604515 1.5899245245201190
68 1 12.0129717516808583 5.6261702334847135 19.5080483279875736 -0.5725006186326501 1.1130307417922414 0.0883112568813357
67 1 10.5681165726520483 5.6226965773573871 19.5410068766322134 1.7974223513425387 -0.1158214063519449 1.8134186629608662
66 1 9.8732948626392663 4.4008004466057828 19.5762895283865888 1.4737873886349653 -3.3122474740107153 0.0926338519942808
69 1 12.7032041859816598 4.3639699246506609 19.4852778659619226 2.3493050866865839 2.9283149759685001 0.8965325080539192
74 1 9.8687494771332194 6.8368558996864310 19.6933609643718022 0.7373729498058375 0.4218766709343198 -1.3900729447124176
77 1 12.7708082784697972 6.8581345694637506 19.5090486376776582 -1.7179799321278431 -1.0182563925210242 1.7210433785681465
17 1 16.9994131920260614 4.3487645867331759 19.4246080525619611 -1.3732240278585577 0.4832455742157165 -0.6554201395665119
72 1 16.2921079874198753 5.5911662361780845 19.5279703585030227 -0.7585164988483427 -0.7121310495486575 0.1553967032063337
71 1 14.8702734397438086 5.5931087824009387 19.5349894078620814 1.5642039288982736 1.3867794307114023 -0.2082008099091212
70 1 14.1575511264739866 4.3840217595551865 19.5175616193619383 0.4133724871712511 -1.8101373815274986 0.8029743789670851
78 1 14.2065225551327625 6.8571682819554951 19.5698987486015383 -2.7873393501025916 -1.5081388870798880 -0.8342136637437908
25 1 16.9724148268598363 6.8068847556875953 19.5337063498035590 0.0547067306799052 1.6296387568361901 0.2511944893717329
75 1 10.6061576869356848 8.0914164434705782 19.6768690052504205 -2.0617737625217081 -2.8871341721982393 -1.4245544465730275
76 1 12.0312352022434972 8.1116747507321563 19.5961113842870560 -0.7678812943905863 -2.9934740652608043 -0.0081103482997775
82 1 9.8706545391582061 9.2703495311206634 19.5605351536864767 -0.7886965522208658 0.3004166595202761 1.0998536049824594
85 1 12.7471151557218842 9.3074337919126364 19.5919926569523106 -0.8708125415091534 -0.8619879519535576 1.7215686879354593
84 1 11.9996766848764498 10.5010397757083922 19.5739753770116671 0.4224942095635622 2.0048941165231997 0.4574058777272456
83 1 10.6030621684160504 10.4792946999567356 19.5356820510401548 -1.3736583678684116 -0.1816708753402227 -0.8600346310887577
88 1 16.3298041112273040 10.5219353839574872 19.6232675619185031 -2.5610175716225170 -0.6607279864894792 0.8873972719758428
86 1 14.1858485645113142 9.3200374806699013 19.7141606371346043 -0.3701272489492254 -1.4558752889237931 -1.3469014098178604
79 1 14.8866394429085247 8.0877476613534149 19.6497335276162346 0.2617823606000238 1.0423501118418832 0.9764556776852638
80 1 16.3326978918763821 8.0630779388897427 19.6468613136646226 -2.1156326900099205 1.0176941763867520 -1.5061415872356929
87 1 14.8721231398364360 10.5168267839961622 19.6215356747628356 1.9055412077685407 1.9811856096650766 1.1102871602536437
33 1 17.0429394617797101 9.2936871016756690 19.6363617105036070 -0.1245063190467513 -1.1950724112320028 0.2358076054350765
92 1 12.0565446001430452 13.0245315927389367 19.6433162966091643 -2.2951718362430453 -1.1641744838012102 0.6909727981770299
91 1 10.6402934859878577 12.9651730660006965 19.6525007075686915 -0.5971676397898227 1.5562775083134281 -0.6182053780012390
90 1 9.9457154999143000 11.7220756451484380 19.6357863530476422 -1.4882352287978753 -0.0482998919903921 -1.2992208167749852
93 1 12.7097585895564116 11.7599252734598014 19.5993867309292966 -0.9710720401483711 -1.3430447985422278 -0.7966685486172697
50 1 9.9633368994947276 14.1984376317676695 19.5826677016814585 -2.0106167904459138 1.7295335947924328 1.0792515573326136
53 1 12.7281944087057735 14.2373422717329472 19.6462062279080065 -0.4007107355838129 0.4647723106300881 -0.9852994179575448
41 1 17.0119280996953499 11.7331552187471768 19.5853585591768322 1.0781783929907642 -0.1509372961086752 0.7210378551928758
96 1 16.2511017876030799 12.9563070932153988 19.5206650058049789 1.8107098042976677 0.9370828394082680 2.1974922201016596
95 1 14.8082709391580405 13.0461767914185387 19.6602303388669277 1.0274136056768228 -3.7745509235535635 -0.8299133015648070
94 1 14.1071320446781812 11.7523813162551658 19.6323007366758020 1.5126426415850900 0.1238653326847189 0.8255417962657582
54 1 14.1422545563564981 14.2600735004333394 19.7031447284671053 -0.8662419650302056 1.0362896281613299 -0.0467553622424128
1 1 16.9751853189488955 14.2029400759779136 19.5987092395586906 -0.2277361836972198 0.0378137999121766 -0.0069525497575255
