ITEM: TIMESTEP
8500
ITEM: NUMBER OF ATOMS
96
ITEM: BOX BOUNDS pp pp pp
0.0000000000000000e+00 1.7084949165859321e+01
0.0000000000000000e+00 1.4796000000000010e+01
0.0000000000000000e+00 1.9999999999999982e+01
ITEM: ATOMS id type x y z fx fy fz
10 1 1.4971256644107267 2.0796546238430218 20.1815014496857970 0.7276609931008554 0.3183743178385213 -1.7864001527651316
4 1 3.5944808908311074 0.9024197006211424 20.0904924916754588 0.8397534396128636 -1.7418898846492583 -1.0750450355939118
3 1 2.1842901632749925 0.8464617089647350 20.1568971484553749 0.0755596042492471 -1.0028037209430298 0.5509481038775108
13 1 4.3073658234087455 2.1011402966983455 20.0128616814166591 0.5348324661302870 0.5747022792908025 0.4868167726588557
12 1 3.6190827109095598 3.3446523419281982 20.0252116548209109 0.1154026971724744 -1.3352006061750714 0.4382242307743264
11 1 2.2047762895732061 3.3074091951647033 20.1769104345094057 0.1858886307243516 0.4656344973225393 -1.8791356417314327
14 1 5.7295988248234782 2.0453184003908960 20.0192591497998080 1.1002183153857570 3.1768198433197505 -1.3064612582823312
8 1 7.9028371771586032 0.8681636756730512 20.0970563713255750 -3.6033461662324378 -0.4081148611722274 -1.2182183022620843
7 1 6.4672898391790197 0.8194966582394138 20.0083370805130443 -0.1110770959805362 1.2599978271758496 1.4462833576628515
57 1 8.5375661354886550 2.0973178855847654 20.0234556932395478 2.2503617956340012 2.0072640122787542 -0.3273663089840154
15 1 6.4534569867539311 3.3747603601933394 19.9147862818646217 0.1238357124424264 -3.9854380508502585 1.0000397684236439
16 1 7.8819145060437714 3.3436284856482734 19.9904018368084664 0.2608172869983176 1.4594295877267487 1.1584389751958617
20 1 3.5931855903121410 5.7911726428596584 19.9392754494671145 1.6667435885854898 -1.4104480542073548 0.5200799035493997
19 1 2.1815390966299146 5.7929820443905555 20.1109700366948374 1.8480766045698767 2.1019561006012379 0.1476349532211059
18 1 1.4870147240384453 4.5843948836521591 20.1314675142760642 0.0290269036149704 -2.5569516792631397 -0.3809863758962697
21 1 4.3177941716758772 4.5310327438865006 19.8728771678420770 -0.2303578956008754 1.7344075199741420 -0.4040252055945722
26 1 1.4693696787054933 7.0431796532532500 20.1555585068935912 0.8154934829326952 -0.0305281212109769 -0.1522453776074993
29 1 4.3762121886915297 7.0195156788662523 19.8486115809149481 -3.0830499229613033 -0.3751174002445988 0.2936934686951768
65 1 8.6263828283647470 4.5925490051345621 19.9668208885524585 -1.9596405174635181 -1.7707579707360095 0.2414590170417101
22 1 5.7323727733423473 4.5741753725388161 19.8660345545919625 0.3609452583789695 -1.7477377376451084 -1.5808417815165021
23 1 6.4724079065639453 5.7668346187550492 19.8035052424473399 -1.4653891021457315 0.5394913711519975 -1.0133280107010600
24 1 7.8901061087646571 5.7940819970138113 19.7893597254632887 0.3459273109256337 0.7776117789869308 1.7371511523007952
30 1 5.7485638497722880 7.0305397417107862 19.7736492173259286 1.4521101585095590 0.3153304279892731 1.9203384238353691
73 1 8.5663841054964536 7.0186684809020887 19.8144839716800654 1.9948417250010755 0.3534089560787561 0.2129786964180896
34 1 1.4950269513346532 9.5043881414407707 20.0893230308080497 0.7845983157432759 -1.8276694781848299 -1.0012624373074364
28 1 3.6269930396666532 8.2231737457660152 19.9345038359764288 0.8158188969111085 0.8935201081071130 -1.3425067058958240
27 1 2.2357544090241235 8.2574298187941491 20.0473738856619903 -1.1875590362252550 0.7433769711216178 -0.2432154452416657
37 1 4.3421405213020829 9.4481772161061723 19.8620999462963361 -1.0732344840998771 1.3806280144033245 -0.3667750203059022
36 1 3.6409460650446293 10.6537770175772231 19.9959843444065797 -1.8238966745348160 2.3989516888343583 -1.5275998909358015
35 1 2.1715109505375381 10.7371379188793163 20.0676048363439712 3.5101276454263504 -3.0834978591157425 -0.5039985778095893
38 1 5.7574002659419250 9.5042277214132707 19.7812035217844766 0.8239524951488629 -0.6737624897792714 0.9294543409665603
32 1 7.8557405656771992 8.2549079411269517 19.7930181363527922 2.1751838984230707 0.4749724576651609 0.3768324681955662
31 1 6.4654285464876136 8.2879793356434526 19.8642939300237664 -0.8733508810484125 -1.8084670267813641 -1.0135605789458859
81 1 8.6084424158901864 9.4753931844928569 19.8108063122200697 -2.4266769953135547 -0.0019139562285504 -0.6318691286072099
40 1 7.8547545441139137 10.7360459690945884 19.8981405626225651 -0.7152845228873407 -1.8700684199979283 0.3581451781388484
39 1 6.4377334771275443 10.7637343704901767 19.8132380956611236 0.8376734020690846 -0.6647036047126430 -0.8255927453203863
44 1 3.6072060205750827 13.2089674897486749 20.0420620404599568 0.0683969639880255 -0.6378170512260837 -0.3188579360293364
43 1 2.1730256017754295 13.1668583453887358 20.0907130933876736 0.3261593261714891 1.3863297990427059 -0.6190087925699908
42 1 1.4759975995270453 11.9286997221278011 20.0475761279683269 1.7209408174478511 2.7253325805093578 -0.8229398574942286
45 1 4.2908841364004253 11.9535198610589468 19.8959622828762797 0.4729171567398626 -1.4767147746639406 0.9784244309560095
2 1 1.4844790099470555 14.3808082278934233 20.0815017166395684 0.3356989403230681 1.1852762401025185 -0.8803756517276926
5 1 4.3025754792257951 14.4596820286476611 20.0739193824548074 -0.0595670073273621 -0.5385154210522085 -0.9904859322649554
89 1 8.5359959233209342 11.9472165065032314 19.9059433837441162 1.3197381529315368 1.3923607826043845 1.4784707115092426
46 1 5.7050608109629337 11.9638509333411509 19.9180949692389966 -0.7917229523264279 0.2215615500302920 0.1309128064221019
47 1 6.4047205331375388 13.1973127093205385 20.0243481293831032 -1.0656502827712009 -1.4281641548893660 -2.2907586998839697
48 1 7.7982662692659890 13.1864157717285888 19.8756092801095754 0.6813784595074007 -0.1209613570885602 2.2814199470244478
6 1 5.7007002379039298 14.4238646110844755 20.0021787548635501 2.2992092432088955 -0.4174639637862493 0.2389089217251464
49 1 8.5492604837943560 14.4282179818882170 19.9317066503906339 0.6853834143084545 -2.7490012975177240 1.4098459353108268
58 1 10.0191495542546818 2.1066745299624690 20.0846310331347375 -0.7305506588360668 1.2615487456310510 -0.2072471445964617
52 1 12.1225989080251484 0.8171619362996257 20.0252927662667375 -0.6171878241623363 2.0377696590942826 -1.1700274984559602
51 1 10.6778970995510853 0.8267961054846428 20.0255170765985682 1.3808895685073623 0.2038796834025475 -0.6126122239078224
61 1 12.8465195166544444 2.0388482767860636 19.9799785208185732 -0.2103704456813540 3.6226458702110893 -0.7132945186729143
60 1 12.1532985148555959 3.3465100136509105 19.9181621830831332 1.0822706499821131 -2.5445888934098315 2.2541254062450036
59 1 10.7203229838006191 3.3723786356139582 20.0208093596000083 0.6905466224503201 -2.1652671337872054 0.7490588645330214
62 1 14.2838754607135279 2.1403504989564821 19.9574405441497653 0.1617575785554031 -3.2488739301355301 -1.3089090249732525
56 1 16.4634637120032785 0.8973147159376806 19.9067903725839699 -2.3843384105622225 -1.3261647128986276 0.4000479796153488
55 1 14.9874706623765306 0.8612669018235815 19.8633155024361443 1.0834644288457005 0.9498789063536383 -0.8472355170838957
9 1 17.1669495386300248 2.1107991442379874 20.0172025624584720 -1.6557690658185304 -0.7597393628082871 1.2088823050621946
63 1 15.0240296846869530 3.3219802194823367 20.0202046246720471 -0.6141878779100056 0.9909497822467931 -1.2513479800231473
64 1 16.4340197555303789 3.3375377498466867 20.0349318374616097 0.3995837901056327 -0.5822989868999865 -0.5785890201472690
68 1 12.1870994031919668 5.7618110982227524 19.9322732792685962 0.6976014533024094 3.2712099119361944 0.8025283904586590
67 1 10.7987108225646988 5.8360428685388399 19.9305716421970409 -3.7053150892182645 -2.7706545220875167 -0.1769581466888115
66 1 10.0234298488852307 4.6134756600326066 20.0318947771107538 0.9749744459877890 -1.4721525334588355 0.5622313416107821
69 1 12.9099822221909832 4.5471283248207355 19.9370990510044805 -0.1941225849709631 0.0294994954813540 1.4677037436017111
74 1 10.0136550916116907 7.0074643699435297 19.8951855336120964 1.2748153325394480 2.9875674968672867 0.6530501136518516
77 1 12.8522029448212596 7.0117949733096987 20.0958843268565666 2.3389807300676200 -1.2164827150840507 0.2276804525452625
17 1 17.1603797998279965 4.5595797277287593 20.0828987542092356 -0.3059699798190135 1.5258748547084395 0.8503618803438262
72 1 16.4702711826577293 5.8037104025539872 20.1510039693956315 0.5706032776676863 0.6774115372611278 0.8960531433071868
71 1 15.0520795601228325 5.8218583821654368 20.1196482606024389 -0.5558722055880215 -0.6435132346741986 -0.2718532291347600
70 1 14.2908591917218235 4.5651056986640288 20.0311147611385714 3.5543501280463250 0.2486187852524834 0.1482985178803542
78 1 14.3108528946064020 7.0480821451474585 20.1698927694368173 0.1471114439658409 -0.0054938450937464 1.1050881210199581
25 1 17.1549641596332094 7.0661890934615457 20.2231787542388766 0.4810943515708233 0.2605285346102490 -0.6144619653324193
75 1 10.7514215616749258 8.2538780485545757 19.9089530233089071 -0.7098797676202504 -1.4407803112982691 1.2021444093522895
76 1 12.1410489897174703 8.2367207851600277 20.0301188481098862 0.7221281849685726 0.9311359898495273 -0.2902727889455947
82 1 10.0101462453088654 9.4660745865395111 19.9000656704574546 1.0515737672183159 1.1949427204107186 -0.9783620965892166
85 1 12.8673712674620884 9.4559193832240727 20.0939899336780208 -0.9080875778472306 1.0212709677744445 -0.2698454237688912
84 1 12.1530779836513680 10.6923235402268411 19.9501376990672128 -0.9951353941505579 0.6377929397408386 0.8223139765231705
83 1 10.7050920003257009 10.7114940433844161 19.8960114165893387 -1.0716784972031683 0.9971716948199744 1.9664663679830225
88 1 16.4255233770586564 10.7763046671403053 20.0681206833243628 0.4777599064568833 -2.1365839235229132 0.7606676486331069
86 1 14.2831353981018712 9.5018464715093813 20.1657614783614783 1.1248198549756330 -0.5378917843135960 -1.3358576663616284
79 1 14.9895612289381699 8.2860690628683358 20.2006921625114693 1.9190278838260193 0.4570069985930445 -0.5433763479527808
80 1 16.4088614811687314 8.3052692914802471 20.1657320454143090 1.1822860898548522 -1.1382402045822926 0.1050663443167624
87 1 14.9998433461473866 10.7620135254089728 20.0303313483291490 -0.9353327011252702 -2.1755811024365213 1.2318159292347250
33 1 17.1404849556553636 9.5416712141305684 20.1578087611861534 -0.3150490748968984 -1.2131161911379034 0.9144175451843497
92 1 12.1268807680932262 13.1930802728183902 19.9878361632829709 -0.2439228330674074 -0.7569604446663979 -1.8017741558614899
91 1 10.6959470963335637 13.1443605330107705 19.9730240460469304 0.9084708629103020 0.4005649425723092 1.0649799186060487
90 1 9.9548604617776437 11.9463729636449028 19.9869476101789800 0.9570871919436748 -0.6298813263390306 -2.1867956073197847
93 1 12.8328034542678715 11.9354334654420207 19.9569058635617189 0.2317718251917438 0.7901694924222358 -0.0183244075140245
50 1 9.9635439925758451 14.3769863750818434 19.9656641919090596 0.3976750712326730 0.1101367022106006 -0.5392552604728733
53 1 12.8604381394709915 14.4156516482798374 19.9192234625415949 0.3380025703323458 -1.3137462346680819 -0.9627734469322446
41 1 17.1605307414672730 11.9849363927867127 19.9932671716660444 -0.5897634835636645 -1.4456974010138801 -0.2135843168325945
96 1 16.4249622400607116 13.1727932438550805 19.9112015058747929 0.7941612729162097 1.4951282403628070 1.2641761665096825
95 1 15.0095756485495340 13.1621971986212625 19.8328649144201208 -0.1148454493631151 1.6636677732220599 0.6235174444577594
94 1 14.2769193818517177 11.9313807701502057 19.9221353849900176 0.3424114287728625 1.9190021339268573 0.3971480145358928
54 1 14.3129746275984751 14.4128591011219438 19.8392071997889587 -1.1466270464217805 -1.4413008677755021 0.0432743754184996
1 1 17.1557201615509314 14.3863129688089604 19.9321942087957034 -0.5601988543079075 1.8105269585089852 -0.6823422290350734
