ITEM: TIMESTEP
9400
ITEM: NUMBER OF ATOMS
96
ITEM: BOX BOUNDS pp pp pp
0.0000000000000000e+00 1.7084949165859321e+01
0.0000000000000000e+00 1.4796000000000010e+01
0.0000000000000000e+00 1.9999999999999982e+01
ITEM: ATOMS id type x y z fx fy fz
10 1 1.5718513587031882 1.9752295943203346 0.1819959690875654 0.4861702723760931 0.7297437045448472 0.8455153444345881
4 1 3.6822891014442996 0.7900602422068290 0.2187417847598057 1.7051312051141556 -0.4027541308722325 0.0324838416754095
9 1 0.1516378860127996 2.0456271847507348 0.1760685070562534 -1.8743408426670483 -2.5168160485160049 -0.4166368294451989
3 1 2.2837480301899173 0.7469119445612770 0.0943777116840586 -0.9854984620644550 1.6898499967175618 1.0270262965932382
12 1 3.7364204392260780 3.2612371364366584 0.2249585588399755 -0.3921203408614118 1.1415601235055972 0.3786647277968425
11 1 2.3164600018926391 3.2397696810902890 0.2092534144918166 -1.8994710234598131 0.5419599553551975 0.6444844909529113
13 1 4.4326166658507020 2.0150461161417472 0.2749506596756899 -1.4434042489307577 -0.0879479016999863 -1.7374873067236385
16 1 7.8908586955796167 3.3519474486372478 0.2785123592948620 -0.6493622622217823 -0.9919624077734888 -0.2751083985930498
15 1 6.4789726907654765 3.3017625147478196 0.1690686070470507 0.5044150210690281 -0.6053108375921706 -0.5827821309395629
7 1 6.5552347650737195 0.7650493600346701 0.1660093547260543 0.8399702899028987 1.6219963364956469 0.2444486909289131
14 1 5.8509702003329123 1.9895447870008756 0.1753855469587070 -1.1327095007191577 1.0261053534870503 0.4559009528965166
17 1 0.1493558538784685 4.5052197207718603 0.1367182036619021 -1.2746665690580832 1.1660151260347922 -0.1877352261228054
18 1 1.5776858074994873 4.4794615669751776 0.1001514848167102 -0.4193836550815672 -0.2314727453090286 1.9091513380961191
19 1 2.2209277687052551 5.7770517030363466 0.1772396834444205 0.7094510187475640 -1.1882519990754006 0.3893300516696140
20 1 3.6211607759551723 5.8033800099000450 0.2251065119711705 0.8013280988049174 -1.8924096005441391 0.4718356775938374
23 1 6.4771771474164268 5.7806502456915680 0.2351224631039983 -0.0575356609412742 -0.6656524725123936 0.6258300346757451
22 1 5.7545948557920914 4.4963486507696393 0.1741539048590784 -0.0543918695024155 3.8895984528569336 -0.1771163781999917
29 1 4.3351539113607211 7.0156229055609503 0.1159691569944659 0.3589510370557253 0.1320428888512561 1.0222960665517871
21 1 4.3435515775115023 4.5582859995019742 0.2298476877566496 0.7982852468696143 -0.8925772313158274 -0.9821316375455162
30 1 5.7504424919625547 7.0123218856585714 0.1658138512305361 2.6114946555557843 0.0593730473296039 0.6301780796206129
8 1 7.9729679011309589 0.8384364359398501 20.1004058384529039 0.7751950226739215 0.0658999547251725 -1.1645003454216800
25 1 0.1115705089633353 6.9736785460872488 19.9416351726939389 -0.8628555118259068 2.1927100443344907 -0.6940056146327747
26 1 1.5214539588240947 7.0349406736332787 20.0372313859176288 0.9433747639823764 -1.2810120328427306 1.2392676709988417
24 1 7.9454253724226760 5.7619395089268828 20.3436606745141155 -1.4522423223163459 -0.3095140927769351 0.0541145154459663
28 1 3.6504256124444803 8.2597441443236015 0.0815364692795117 0.1027266044244449 -0.7358813858551476 -1.4931931832756271
27 1 2.2412687349853355 8.2323307404301005 -0.0054644002064970 -0.1029792588313586 2.1422817472965661 0.9349016397547132
36 1 3.6478507464643064 10.6847431813807194 -0.0599851711929548 1.2542448291588157 0.9941396807481263 -0.5637767037371915
35 1 2.2604326365511844 10.6755972571807174 -0.0667903395959177 -2.0052365075260861 1.8600237421725963 -1.4021874784459682
37 1 4.3682857949316292 9.4450931183763416 -0.0050761967861283 0.9526168098938375 1.0081787686018457 -0.2683268961540577
39 1 6.5315303818962436 10.6603203841985206 -0.0499714857809009 -0.4686742952203709 1.5963987125759449 0.4310152339586790
31 1 6.5136776027121863 8.2467979332336583 0.0603171542762945 0.2221541322929936 -1.9502848064474696 1.1881814345896653
38 1 5.8370498386054175 9.4620796805087490 0.0638130261045619 -1.2190457448382150 -1.0213890685389337 -1.1759506981333927
1 1 0.0747359832982333 14.3895298872368844 0.1248116336178863 1.7510767773327927 -2.0406786940695616 -0.5528271140059479
2 1 1.4958471043341086 14.3347664849480978 0.0972238301746851 0.8884581116386917 0.2980701991496333 0.4304579909767224
42 1 1.5397366923461249 11.9290627543980960 -0.0586413741709688 0.2310730772907408 -0.6173159918539217 0.1338016235815800
43 1 2.2552519383934162 13.1564887618197250 0.0313512278810861 0.0047080970966884 -2.3000634590475748 1.5812548131943638
44 1 3.6947552209478665 13.1446111915593384 0.1621804764762697 -0.9497342444397862 -0.1252146272988643 -1.3832587247856984
47 1 6.5599456653124060 13.1331696539214615 0.1133722765174913 -0.0090418722636569 -2.0010250785168058 -0.2141105278191905
46 1 5.8229342311859744 11.9169532094896535 0.0340863823253182 0.0274887227467376 -1.2851007113562851 1.1855806411056387
5 1 4.4039687257134315 14.3749629550382991 0.2349947882306993 1.3917793009157364 -0.2965996105426346 -0.5406206708054059
45 1 4.4004809984187867 11.9568264664651558 0.0705393115223770 -1.4704049596118745 -1.9353720915096586 0.3023202290640731
6 1 5.8494551624927205 14.3331986566613132 0.1969251966874544 -0.7168144686392018 0.2841989481094558 -1.4867182778960819
34 1 1.5600516252126939 9.4730414960763163 19.9014099655036354 -0.9219959959788295 -0.9350719212601721 0.2682484345440416
33 1 0.1068706951944165 9.4573732522450893 19.7416726240523808 2.0943677307392732 1.0330952994330320 0.0283169857703767
40 1 7.9656004030208161 10.6916883110467342 20.0880950440208679 -1.0126080473803374 -2.0307694801664593 -1.1552595657034219
32 1 7.9397307635991883 8.1870531000386908 20.0123151433785154 0.7061840467398153 -0.2066726188143873 1.4063272856584164
41 1 0.1319880503691888 11.9437699909478798 19.8619371197473278 -0.2506120616838482 1.3102657567764966 0.3188604935016621
48 1 7.9496294223139579 13.1763145820098160 20.1478710750686076 1.7114695115435792 -0.7051354844550350 -1.6913530975359061
52 1 12.1908746810653597 0.8461244376282443 0.1856334100214075 0.9570789241821744 0.2594208661592624 0.1841102147534115
51 1 10.7740593621878791 0.8120098260495286 0.1615404609244162 0.5032887253228648 2.0106871851636536 -1.1677037716494181
61 1 12.9420581246483106 2.1171560847916799 0.2120406165824050 -1.3794587668243814 -1.5358112461001974 -1.4945949824470477
62 1 14.3803271496485010 2.1271336028552321 0.1994972369234185 -1.0786857400211671 -1.9698798836996771 -0.2953739522437880
56 1 16.4727730220622526 0.7877666108310237 0.1210864537329253 1.0612119616767690 2.4272300625536403 0.2738014663315957
55 1 15.0615412933834403 0.8700277339589529 0.1677418633460425 0.1618958307817663 -0.4052298903791929 0.1194276306132232
63 1 15.0916149843837832 3.3522270979967299 0.1932703806492911 -0.2578165883240442 -0.6684954871960250 -0.4821973687853865
64 1 16.4937582256485342 3.2628444727826276 0.1488460917745049 2.6433172984907078 2.3529922068405242 1.2323824993366643
72 1 16.5115770826058359 5.7578072855709514 -0.0174743901956243 -1.0049270864725333 -1.9577336273307684 0.4324047059297271
58 1 10.0307724939630205 2.0927244681731314 20.1289132235020638 1.8660208339580582 0.2622412751756178 1.5897086702442562
57 1 8.6289889627786032 2.1321613750709862 20.0842228931085387 0.8350504483538841 -1.1985776041935259 -0.3270763124817342
60 1 12.2360169351351491 3.3345103697857899 20.1747611243342391 0.3246211513867967 -2.1071785268851024 0.2706678717604232
59 1 10.8030710313777796 3.2991222290792046 20.2481589680780019 -1.7340022730627813 1.2794780806563657 -1.7543595054461667
65 1 8.6384503124079615 4.5452914477003645 20.3392182116581601 0.4697059824589735 0.6072346040453401 -0.0730705306619317
73 1 8.6627428021479638 6.9736962046094639 20.2034523528869023 -0.9397116673718087 0.7754081035868734 0.4876085371931853
74 1 10.0695615889322507 6.9929750566601019 20.3508987644815811 1.7286903112257761 -0.7812969091316334 0.2271306071235194
68 1 12.1884841099733467 5.7515467297350726 20.3268719344766282 0.6801586454815227 1.5750525613080597 -0.1358149429877031
67 1 10.7858154683541301 5.7602763816288363 20.3395783646947130 -1.6313884229701663 -0.1446772552108362 -0.7719629216746990
66 1 10.0610493025003471 4.5252337437888439 20.3123659350676640 2.0303835613835104 0.0204198150976511 0.4974008405326317
71 1 15.0570239282040799 5.8084104073609479 20.0059259516804353 0.8549877388801149 -1.2419070498887717 -0.4609186850578572
70 1 14.3704312591989147 4.5486295653038669 20.0895928426827339 -0.9901036887897726 2.5908304484433327 1.3891669895109355
77 1 12.8983648883013551 7.0271179360807965 20.2476833000548346 0.6741251148661437 -1.6034259614612940 1.3667654802567659
78 1 14.3455959376396258 7.0043684782773612 20.1449192316964520 0.3949212199372161 0.6890453112714302 -0.4628752925585057
69 1 12.9450656781157694 4.5506895596620858 20.2367980130623799 0.1428684366987648 1.5302070814793973 -0.1909967485487992
90 1 10.1174613807185985 11.8722400301586521 0.2261464193108252 -1.1784568255901093 3.2927040301419308 -0.7830014109292334
89 1 8.6910068868397694 11.9229353022764393 0.1372910543470599 -1.2069588801190461 -1.2296759816488714 0.3877511829499580
96 1 16.4555980285025178 13.1603754408507641 0.0700679783353235 -0.7753430502639400 -0.5344351269462380 -1.0178803658574731
75 1 10.8084741857927238 8.2365145172695016 20.3447445706693166 0.5550167581981080 -1.6679565796334435 -0.0132089727782332
76 1 12.2448275713059438 8.2381959998294008 20.2436193141722924 -2.7910411097742176 -2.3423452431260081 -0.5529761264519113
82 1 10.0685106434592946 9.4297731949227259 20.2131712733630700 1.1224347820712348 0.4589598313684605 0.8494441562909372
84 1 12.2032318451063571 10.6182898002300217 20.2457478798020745 -0.9673747823047715 2.6083350235927187 -1.7029020691274948
83 1 10.7669312565665187 10.6548367380774636 20.1386881082782381 2.9898594405776091 -0.1382778043805892 1.9876344081708532
81 1 8.6825408859597122 9.4198577005386461 20.0536237656054688 -0.5874181898834232 0.7495070452750034 0.1679439627530220
85 1 12.9402425669154031 9.4201360591854382 20.2327956233300448 0.1324102074270050 2.7078665790801497 -1.0952471565455006
88 1 16.5175838523543632 10.7237929498984936 19.8188178433625950 -1.6831283105620518 -0.1979707436105089 -1.0317844135338292
86 1 14.3434393377256484 9.4668774270536016 20.0728605793896904 1.8686742122925049 1.1530623973197345 -0.1449841650874224
79 1 15.0556319248304131 8.2486811875683053 20.0272479810238657 1.8279337928607680 -1.2649692658847069 0.2072252592585408
80 1 16.5073317223398099 8.2520892905917496 19.8048802462694624 -2.7006762384352836 -1.1182440268723191 1.8144821919660910
87 1 15.0415206674177693 10.6898987408637094 19.8334077543471530 2.1273499070827873 -0.1614358595143650 2.7025036607206849
92 1 12.2531829762156921 13.1400763460164924 20.1791459487982365 -0.1311021095717739 0.1804129299262520 0.7038734388119496
91 1 10.8275139993179721 13.1436653664196985 20.2139087922468015 1.0806913799542905 -2.0744095617446794 0.0857051933412959
49 1 8.6556431511317538 14.4014369795091071 20.1040631309280897 1.1662124628794541 1.1960442149119213 0.3543714499853448
50 1 10.1105424446804371 14.3773804275080401 20.1185180578749616 -0.8754730542371526 -0.8462070972459156 1.5809570459528666
54 1 14.3194692557853394 14.4053914718924005 20.1408695642417896 2.6528338589954252 0.2256423253223538 -0.3494776396359711
93 1 12.9351516379565030 11.8824112348144766 20.0840154829739532 -2.0319968218620570 0.4000577237323446 0.2062106378138018
53 1 12.9194724756114354 14.4159973998615101 20.1098616294181838 0.6399587719724433 0.4359605494609841 -0.1347630607098215
94 1 14.3450755459079815 11.9149193157444966 20.0315978487270812 0.1471218216800234 -0.3176352451584118 -1.6251264401025940
95 1 15.0451055694023559 13.1275604093829337 20.1742950188642709 -1.3506077365283731 2.0611622994680840 0.1521148607306495
