ITEM: TIMESTEP
170
ITEM: NUMBER OF ATOMS
96
ITEM: BOX BOUNDS pp pp pp
0.0000000000000000e+00 1.7084949165859321e+01
0.0000000000000000e+00 1.4796000000000010e+01
0.0000000000000000e+00 1.9999999999999982e+01
ITEM: ATOMS id type x y z fx fy fz
10 1 1.2941996604476400 2.5758014841630081 19.2376004237542375 -1.1769907238109374 -0.6841627014447429 -1.6773507788366619
4 1 3.3975785497613957 1.3169369313040373 19.1144280885541988 0.0318563827869879 -0.8566170017781519 2.0089067505693259
3 1 1.9816950127934994 1.3295031169200373 19.1698964761755413 -1.3036720549444487 0.4500624753098932 0.7163132826119238
2 1 1.2503876831621568 0.1087749104136801 19.2482962196050558 -0.3839044815332914 -0.5653420906945337 -0.6988761403515691
5 1 4.1243056820629533 0.0640046178722806 19.1842961406429033 -1.6852070542323472 2.1635497216525246 1.0491561212755429
13 1 4.0775488891223528 2.5706302364508327 19.1733394647366282 0.8235681591369988 -0.1216795767473914 -0.6412695297152784
14 1 5.4990380390692160 2.5676968183827049 19.1520761750173740 2.4166006486322593 0.7490432828502861 -0.3505318164410151
8 1 7.6312723416737906 1.3367857035907051 19.1213895679763866 0.3855097671910450 -0.1907921875877517 0.7737180858249918
7 1 6.2254731335081610 1.2944123380151020 19.1101915791054324 0.3342079751196646 2.0913009542035126 -0.4164274766736223
6 1 5.5381299152042915 0.0792146908411501 19.1903803468595626 -1.6448472292391654 -0.5934685629490437 -1.6510964602411913
57 1 8.3734678614095408 2.5734478991267511 19.1882098820788372 -0.9909535084392687 0.6345918700468857 0.3089061717346644
49 1 8.3999853750786126 0.1138610110234032 19.1754437677750253 -0.5873793614887881 2.1108898939914704 -1.5338546398666537
20 1 3.4328091429805689 6.2433885812880892 19.0482168104419998 -0.7933755195481754 0.5858177724685344 1.7347283868464300
19 1 1.9794428354617675 6.2218258485534585 19.1000849744980172 -1.0726838809209462 1.8854901388538106 0.0740377747342048
18 1 1.2339614200921067 5.0242876826266833 19.1068734029026892 2.3975314618993151 -0.2808996941783062 1.7536528271617311
12 1 3.3536238263093425 3.7815592908292279 19.1241654273685100 0.2208185204370643 2.4569661600415404 1.8484564248314390
11 1 1.9363372673080754 3.7800798995747473 19.2078984153779473 1.1075881067228837 0.6812420857653421 0.4473221792418299
21 1 4.1459467483506840 5.0225080374936750 19.1612651196853641 -1.8414900910297649 -0.6536718284852883 -0.5696863664143794
16 1 7.6874656484322754 3.8259774524838535 19.2473190826742702 -0.3495937614828377 -1.0837729737111532 1.2285560636123702
24 1 7.7273629886027644 6.3241983410202769 19.2933626405487146 -3.0142998662290967 -1.3454121960099568 -0.4201218746877406
15 1 6.2700563163189003 3.7977525891144399 19.1704271626751570 -1.7459598036852078 -0.0994186341677187 1.4639915187966077
23 1 6.2579741616436388 6.2530098491362693 19.1418223504182627 0.8956218941884353 0.3518175912517225 1.2940381602061051
22 1 5.5599200452888526 5.0007224206436645 19.1684708034262812 1.1897449850751720 0.7696439570776239 -1.3684221541073553
65 1 8.4261066539042098 5.0854614152722961 19.3340260862975057 -1.5468811022457130 -2.3779366031609093 -1.2854297724826673
26 1 1.2513926349061182 7.4713463848593609 19.1021776655442999 -0.7815096480967865 0.2338484318684687 -0.0466393727165142
34 1 1.2264599624074506 9.9579891608303353 19.1040524212852780 -1.2141092040828814 0.3440856985959151 1.8162254247953482
28 1 3.3660327234835750 8.7228494361558688 19.2072841984375842 -0.3699104554313247 -0.4655113636233369 -2.1608684465210932
27 1 1.9254996968592997 8.6965835782982790 19.1038678834020352 1.1322592876552737 1.3791101205731147 -0.9167120273172134
37 1 4.1040370066588236 9.9314209430479785 19.1854879770177043 1.0172572737847876 0.8713930894130821 0.8779353534896082
29 1 4.1319457558234065 7.4872508036343124 19.1399357071643585 -1.8825575054586796 -0.7982528271060394 1.0831860866804692
38 1 5.5905257790447758 9.9548623312109221 19.2435735122323948 -3.8541890175325557 -1.0548036909824641 0.7068903229721596
32 1 7.6899494192128328 8.7324875010050498 19.4162284391971092 -0.7125246642300287 -0.9004029476695984 -0.5860670037597236
31 1 6.2530808278076080 8.6903608879274721 19.3371499295655731 -0.1535745024421673 1.0987385792832405 -0.9759849991949805
30 1 5.5243261737031935 7.4955697798396406 19.2070540809533412 1.0103868828026772 0.1456482482918162 -0.0387885293349573
81 1 8.3985623952930002 9.9642240224469489 19.2393185976723018 -2.5304569116972133 -0.7126056238311561 -0.4176761076516262
73 1 8.4366999227254169 7.5221877076006622 19.3394848519634799 -2.0294950303855721 2.2419042842540806 -1.3260261540535307
44 1 3.4059615298091046 13.6267812899444323 19.1724111037303935 -2.0565242123690783 1.2488307569468255 0.0180569849026953
43 1 1.9580697944841789 13.6598178555837695 19.2376186824346114 2.1588791663214373 1.1174798733369624 -1.0600076132584992
36 1 3.3779475284635185 11.1797187803308322 19.1955685278088026 1.4671102245286232 -1.2011870472535890 0.3167117192444728
35 1 1.9827068854177545 11.1943476468734424 19.1776275946361316 -0.9427994341182350 -1.1079320295800030 0.5661289862360616
42 1 1.2865947179214223 12.4113305811792571 19.2473216626410526 -1.9140879756037665 -0.2598497229778324 0.5540207816075966
45 1 4.1114397896035486 12.3969319268490743 19.2023065550183816 0.5568984714461962 1.2869159084884765 0.3597709058448303
40 1 7.7164505169104283 11.2168009994727793 19.2005370840383769 -0.8753808620792527 0.9523471300342385 -1.7170846514080169
39 1 6.2400720779575636 11.1830610067739649 19.1823089475036745 1.5258496402560195 1.5005081895521220 0.5832699655139577
48 1 7.6952797199866954 13.6827984440489399 19.1798062715440629 -0.3289417186876341 0.9309629539971416 0.4550708261878589
47 1 6.2433013357831664 13.6803818265213000 19.1967054835658431 0.0541314917844766 -2.9696134949337258 0.4502399653759755
46 1 5.5283303229214331 12.4270680504846354 19.2174503478025898 1.7205049261489096 0.5083959970545593 0.8671128737450566
89 1 8.3930068110247031 12.4486179460602493 19.1056296157238030 0.8217871236732509 -1.0061496267001619 -0.5083891839130353
50 1 9.8262905243194894 0.1383262697514491 19.0533755045793001 -1.4522606548826607 -0.2614850793100254 1.3083137547064092
58 1 9.7830237176375157 2.5245971792257142 19.2133997799382392 2.9763438803030198 3.1096146655165553 -1.0925092386632700
52 1 11.9704330197797848 1.3338992820330664 19.0542820710500500 1.5171031188637700 2.0786267810730408 -1.0716081248606699
51 1 10.5851596606068501 1.3689981331121381 19.1469405018950880 -2.4034185937254731 -3.7169003500362248 -1.0160578941279437
53 1 12.7022088401214823 0.1228268220580674 19.0032149966754353 -2.4886637538864811 -0.3166478037856266 1.2518170287070531
61 1 12.6591837978345279 2.5738654622332615 19.0754776091173852 1.3119980188090723 0.4525197413399711 0.7416202408393838
62 1 14.0639808407686075 2.5753562975789497 19.1584606541844025 0.1992893669840042 0.3749475093198691 -2.0079226194322985
56 1 16.2177182640588491 1.3661391089970985 19.1171161193640273 0.1793021635138634 -2.2161604850649228 0.9843825817114651
55 1 14.8270330519796438 1.3621181978807075 19.1072035642793061 -0.5035342394975908 -0.6515626538383108 1.0651418145196070
54 1 14.0965432147889089 0.1211775201284552 19.0625731531745330 2.3843566436783403 1.0750534708701227 -0.6370661878357391
1 1 16.9178004585617749 0.1287664387229161 19.1988334235722355 0.5023575485997237 -2.0052553757524803 1.2631883756775075
9 1 16.9478990511177230 2.5621870692534139 19.1638686092727326 0.4665259498933232 -0.1914367743471900 1.0796300257967562
68 1 11.9555477315627012 6.2996460606613089 19.1828185657201971 -0.7571752578476709 -0.4234048325876651 -0.0084938209597114
67 1 10.5085652234993425 6.2876330400434126 19.2957573376906382 1.7794617417631242 1.1258289289915115 -0.2774623217448206
66 1 9.8148005883139735 5.0205406855898405 19.2595151001653235 1.4793898737784998 1.3748553890434125 2.0501372670977056
60 1 11.9441574066980696 3.7968730367176695 19.1268924624690229 -1.2130370850193735 -0.1793422642411228 0.0872420805112994
59 1 10.5283516369464802 3.7432453977438245 19.2515951911597050 -0.7050945716930686 1.1884092306186504 -1.7006147971268812
69 1 12.6255150300577395 5.0459018837295568 19.1527967747628232 1.4249747404404847 -1.0660342580102133 0.1209067351254368
63 1 14.7397964681796338 3.8053792965111253 19.1344294978303822 2.0294172367491430 0.1460867857125539 0.6207292459330076
64 1 16.1870760849764110 3.7746231843034308 19.1138400522301275 1.1064234319568482 0.3047802999995426 1.6096611410613368
70 1 14.0459123167320286 5.0401793589022494 19.0845307197447838 1.5729933615411842 0.8577388424306909 0.0423975777880894
71 1 14.8009281577931127 6.2498990954714237 19.1382083018696356 0.2585003409731240 -0.2984947388960968 -1.2404505918491600
72 1 16.2361484139635373 6.2491631770082883 19.1532872478736280 -1.4908498133178898 0.7997111769289281 -0.8786198785339013
17 1 16.9194473959025764 5.0007724984143875 19.1237022919493107 -0.4605944377501369 1.6001125889044618 -0.6077624051104995
74 1 9.8018373611637220 7.5465225314023749 19.1909697065989491 2.1455446787781249 -1.6585616079155132 1.6762376392266676
75 1 10.5671375600921209 8.7700595096261509 19.0645449351232585 -0.3571459690755832 -0.6122894032446774 2.0029011277810231
76 1 12.0025922881433047 8.7589357758397970 19.0761197696255280 -1.4366979951093639 0.1898316815698920 1.5289756762942033
82 1 9.7825355027371366 9.9976169307010601 19.1407994743643144 2.6698414071374441 -1.2344358639177107 0.0691008709427488
77 1 12.7071229729315593 7.5418117258037114 19.0914671622701242 0.6677792818601800 -2.6771509387939050 1.6889811298009869
85 1 12.7212330897987371 9.9637720135831849 19.2247697979200396 -1.1116983130261000 0.2451838967258517 0.5973325722091474
86 1 14.1297555540170734 9.9322182371417842 19.2705457958314419 -1.0949454600716595 2.1793144125014505 -1.0854754927554628
79 1 14.7864907343167271 8.7343267089607544 19.1662344266933715 2.5946662644162308 -1.2974020851660597 0.7636226505696750
80 1 16.2234087777509473 8.7291471725785303 19.2266867963299291 -0.6374173753517196 0.8825533549139141 0.4542012443312954
78 1 14.1399314795333115 7.4871189371078666 19.1136774320337111 -2.1080067400265912 1.6585511976488818 -0.3341802177737790
25 1 16.8912805817429010 7.5331959040930254 19.1281237006073148 1.8574938998198687 -1.4710975503183013 0.7293423849039524
33 1 16.8586195383818485 10.0047386824861455 19.2064681164092335 1.5600463945962064 -0.8768666364675438 0.4177617263445637
92 1 11.9471461901648706 13.6810764658101434 19.0071287230559385 -0.7680998964920833 0.0194627947432359 -0.2200678743158380
91 1 10.4987617153298043 13.7158228229050980 19.0661736413661913 2.3052338487884731 -1.6484729939631690 -0.6472038070928262
90 1 9.8212010618814922 12.4626747599644592 19.0848917195626697 -0.6505527712777843 1.0180431373763137 1.2725434042883410
84 1 11.9823733133518520 11.1830758060920967 19.2270072317718750 -0.1835497485416572 -0.2798749164733363 -1.5752242484570922
83 1 10.4960926300419342 11.2256635314196469 19.1420138649687210 2.4316848227094043 -1.4092662359425658 0.2327895853998667
93 1 12.6769923073137480 12.4388419940594570 19.1523561537126525 -2.6846228631930660 1.0667357380317708 0.3914239384616962
95 1 14.7891495797079529 13.6621566149249887 19.1678315915976007 -0.4550927300472646 -0.1724048627958653 -0.0774524469373861
94 1 14.0807348825730401 12.4451007489140153 19.1673957810649220 -1.4004812595324361 -0.8629798766621511 0.6171459160921730
87 1 14.7682085618742249 11.2119107071520236 19.2541374503127756 -0.9954833636474683 -0.4567489528684044 0.2808384264344104
96 1 16.2168064574652107 13.6615041772778767 19.2145230103486000 -0.3528933066448868 1.4948154063280339 0.9144993550190238
88 1 16.1388468550440329 11.2357277444618440 19.2061129812647842 3.7074243475551700 0.0773603300573655 -0.6168481714266474
41 1 16.9230871112586563 12.4109818534721477 19.2554829948004880 0.5943512584353980 0.4981198373233381 0.3353274677111129
