ITEM: TIMESTEP
2210
ITEM: NUMBER OF ATOMS
96
ITEM: BOX BOUNDS pp pp pp
0.0000000000000000e+00 1.7084949165859321e+01
0.0000000000000000e+00 1.4796000000000010e+01
0.0000000000000000e+00 1.9999999999999982e+01
ITEM: ATOMS id type x y z fx fy fz
10 1 1.6919796475930244 2.3997000825139922 19.1037913632413172 0.9715717938312274 0.5727048886182760 -0.5336484702681241
4 1 3.9198163613065451 1.1877171174504868 19.1064868832514740 -4.4424118130712182 0.5788089004502791 -0.4685698494999553
3 1 2.4137532468985436 1.2004805840574562 19.0983656902966139 0.9968226089036919 -1.0262027126009017 0.1110294452007955
2 1 1.6953226713658289 -0.0377057668388950 19.1179787263553358 0.1892013881103249 -0.9799429315445677 0.3804780146649856
5 1 4.5275478645561380 -0.0635649276535476 19.0727787475604309 3.3380639679713839 -1.7886145092598671 -1.0598751660482844
13 1 4.6303962254610846 2.4274717318455639 19.0381474462995754 -1.2717976548623939 0.6169442441587069 0.9731173689961816
14 1 6.0396948725910571 2.3959607986110600 19.1518487398156481 -0.8714413297616457 -1.0118687294290873 -0.0341794091783233
8 1 8.1315709824688458 1.2050934566578464 19.0056487776283269 1.1316668898985642 -1.5334978319329500 1.2284654196217761
7 1 6.6911787691453517 1.1455374161664458 19.1468832258169570 1.3659100793186396 -1.1423703774837821 0.3852971917366155
6 1 6.0017293121908191 -0.1003812210357611 19.1295345003918200 -2.9292780301853738 -0.4988688174865249 -1.1672389954637976
57 1 8.8566752255569110 2.4301340797050228 19.0587181793752123 -0.3418145174667310 1.1589442606917260 -1.0060130002986483
49 1 8.9047631394260414 -0.0656164826215788 18.9750290321384227 -2.6306538542300970 3.6086073061335675 0.3822192593286960
20 1 3.8788912070108745 6.1013530508190321 19.1234841103500131 1.1139280168184502 1.1833149973739461 0.3379660223408429
19 1 2.4665718650219866 6.0999496976483920 19.0272707153743887 -0.1771064776295923 1.0915454397020898 2.0665728961044390
18 1 1.7360941183616270 4.8816897822148899 19.0928899211683607 0.9555689510019769 0.4013477172669896 -0.8294847868759525
12 1 3.8690927013244423 3.6566945907207189 19.0621008539008372 0.1367233779350028 -1.1475268326786008 -0.9831998243736496
11 1 2.4379312996993887 3.6535463743374699 19.1780121100602408 -0.6398886423087879 0.4114904938675841 -1.0319860506402962
21 1 4.5799469894864959 4.8757914153758239 19.0510462858625438 -1.8359289581722531 0.3369064152668662 -0.0980049618117256
16 1 8.1220269247931665 3.6754412694259102 19.0716648533844939 2.9968852598342717 -1.2654833347685714 -0.8108074377086546
24 1 8.1039855291666605 6.1085360277857088 19.0776383902551068 0.6977485513000611 0.3547139765103748 1.0417419125474876
15 1 6.7411289976252320 3.6286475218506906 19.0457330760006833 -0.9626548147553566 -0.2279913212485813 -0.9288328382917593
23 1 6.6900467913278092 6.0667121875268100 19.1073685317278503 1.0259129541360776 1.2077611998573183 -1.9084124140205871
22 1 5.9634999545117493 4.8370184991452954 18.9635038707087027 1.3514554133301708 1.1843841778875617 1.2359436563767845
65 1 8.8589451850962391 4.9294943719735329 19.1083689756405697 -2.6259302213160840 -0.8508229937666649 0.0178026313800975
26 1 1.7529065727010062 7.3417210763890699 19.0816839180991984 -2.8371084460413214 0.2197214632791864 -0.6168115640227665
34 1 1.7345610685435537 9.8231330651812669 19.1748720267355708 0.4597348992274878 -1.7780317830424461 -1.9144478018226949
28 1 3.8821731007064768 8.5571192598679762 19.0926214700151995 0.8149514750242078 -0.5767932630135121 -1.0032645774024842
27 1 2.4666597570818363 8.5104549442017188 19.0954126802238342 0.7050217907984135 3.4386331799273462 1.1562355495352468
37 1 4.5929987124579572 9.7991622031840269 19.0404821063135472 -2.3789722848503869 -0.0130041542359642 0.2527222790607608
29 1 4.6152630024149746 7.3191452525693395 19.1004735054612560 -2.0275017218308049 -0.0040212509847458 0.7277485884727565
38 1 5.9834130150027205 9.8436265298330170 18.9592754202286962 1.5626524186695465 -3.4491427865773518 0.3661254102549669
32 1 8.1325389310970131 8.6000405074463639 19.0367709499993190 -1.8881103029389090 -0.2792638092182719 0.6470482185954672
31 1 6.7116194690900377 8.5458899161755273 18.9792918554116099 -0.7747535152511071 2.6537030251145759 0.2028657198321824
30 1 5.9974708731980693 7.3450718486325659 19.0878701287655872 2.6181771925227344 -2.4870947153955107 -0.3568198241649133
81 1 8.8331257033249333 9.8388779086077509 19.1191638009867333 0.5132645187497449 0.1993404753168667 0.0660979731255710
73 1 8.8249482425819412 7.3827109143337610 18.9970914588502637 0.0845037001043877 -0.5675589073907790 0.1486799733690798
44 1 3.8105451548422757 13.4793642523783230 19.0371087124841978 0.0919438212071754 -0.3495265204575576 -0.0506263797684731
43 1 2.3708398743690959 13.5077727268581125 19.1007385675992509 2.2427182849282374 0.1472376057555550 0.9337985548964117
36 1 3.8628215861137636 11.0176460008108226 19.1076062328514737 0.5075840550730278 0.0475531711248307 -0.7075945501755818
35 1 2.4257727682631902 11.0995991076648099 19.0816029971475700 0.0650784902173437 -2.7375745861383716 0.3605838730041665
42 1 1.6810054693379048 12.2968171734672058 19.1208455918582203 -0.4821167914677144 0.5352067913396555 -0.1598189249575943
45 1 4.5744966102989286 12.2531627104952037 19.1245020375393686 -0.4667441940624637 -1.0983932308711404 -0.9745107396381760
40 1 8.1356969454648986 11.0477097577264853 19.1446472787233866 -0.4620029150630607 0.3142859618077920 -1.3579159189141499
39 1 6.7022547616345820 11.0337852250179154 19.0764159638158830 1.7980150118838685 0.3904937390408598 -0.9789989479121253
48 1 8.1331408025211971 13.5454629671345685 19.1131723303968215 -1.0795622592384690 -2.2709396594267997 -1.7181582347091560
47 1 6.6945805930469255 13.4628831627823295 19.1680136984939935 1.1447586277455997 0.4553904159434876 -1.0625377684144852
46 1 5.9640805258888179 12.2349234283953194 19.1757466880717544 2.2172376682480230 1.2236103699317549 -1.2773191474978924
89 1 8.8164675365086413 12.3161542726653597 19.1104199922374249 3.3386724886169930 -0.2983321461886152 -0.3421127637090416
50 1 10.3273221330629745 -0.0347941124980444 18.9226801069920327 -2.4979498614709135 1.7339648396419887 0.7993338885054178
58 1 10.3151656603174100 2.4713984057128062 19.0369121474635925 -0.9892995574334243 -2.0330710893415880 -0.0769124525541950
52 1 12.4097840220760691 1.2347465539643563 18.9449283621160767 1.5350698322774861 -0.3903983517256725 0.0019475304293135
51 1 11.0116626641707764 1.2132914710321434 18.9752109694365956 -0.9760533679839437 0.8494498942941490 -0.3774924543448324
53 1 13.1132075485579769 -0.0158471070329708 18.9885308216013051 1.2633983722584254 -1.2851400052037805 -0.4665921203332605
61 1 13.1435861986519225 2.4609551931433034 19.0113877929238129 -1.0797830290709145 -0.9565630969141616 -1.4284799130683479
62 1 14.5543538344894685 2.4363640922617757 19.0037473177071767 -1.0608329808414150 0.4143772266570378 2.0368282892964591
56 1 16.6546791505792697 1.1767080509003227 19.2170703884462917 0.5792279677080410 1.0065498257298777 -2.0327800207329796
55 1 15.2479285697164002 1.2021239746975061 19.1169085943114787 -0.2629474132453669 -1.3945581508842233 0.5751437087363646
54 1 14.5303793418814742 -0.0372271022020643 19.0860023784066648 -0.2453296024690707 0.1132601494574871 -0.1419885091937194
1 1 17.3885959584528926 -0.0581488659253691 19.0858912711751998 -2.1926072021304659 0.3343220696520968 1.7435425444602928
9 1 17.3654938629252875 2.4342433239615957 19.1463502412948650 -0.9077591452903624 -1.4874028149837253 0.4773093056274716
68 1 12.3629358598198582 6.1342976736293418 19.1711730264811386 -0.4194959136303553 -0.3196136899587415 -0.4801003450568460
67 1 10.9373364165423990 6.1425537016641156 19.0862825029008185 0.2204351289814020 0.5585530073740258 1.0155141328660866
66 1 10.2421649734142832 4.8888148071833291 19.0990083074079742 1.0973854223327044 1.2338983597839921 -1.4271906918190493
60 1 12.4035798438984450 3.6849991552883510 18.9967001115216156 1.2077221677550751 -0.9233351728867094 -0.5417319881459653
59 1 10.9877723165840564 3.6984602120838579 19.1011000397340602 -1.4044728912583588 -1.1286341557665867 -0.1661174733911349
69 1 13.0767199045781339 4.8874346515307208 19.0690747207509617 2.1658174347275354 2.8669048239518098 -0.5148091779617743
63 1 15.2479823913094634 3.6658696004120026 19.0534640848566568 1.0338309348112116 1.6445028733903349 0.0218676932970442
64 1 16.6799782013960076 3.6680340010438597 19.1137393960747879 0.3858007619624712 0.1246913300528428 0.2418291756198617
70 1 14.5191095970097965 4.8972908271985718 19.1094732276934778 1.2736275090343265 -1.5015166548339312 -0.2791990696416324
71 1 15.2400551326861802 6.1190429412025944 19.0936085181799697 0.5951186312459666 0.3975730487760854 1.0149088980835774
72 1 16.6639949528672950 6.1285865555545849 19.1324856020873497 0.8611966365598543 1.7580288329788609 0.5674512555673037
17 1 17.4062127177158636 4.9398406951800302 19.1042759226846144 -1.2411839750292804 -1.9617369087891645 0.5239388600692870
74 1 10.2220430773215725 7.3634207358397905 19.1154471957842063 -0.3238818866674315 -0.7431132779842322 -2.2835171434567170
75 1 10.9403303044226199 8.5743090311307153 19.0647344884182175 -1.8434847325806571 1.7616036570191889 0.6599334697050098
76 1 12.3266336565146482 8.5927643186380784 19.2499808644007793 1.3395669320123944 -1.5415607189305636 -0.8873989547884764
82 1 10.2454889832453162 9.8691759864927775 19.0754654028567039 1.2021093492540291 -0.2553004152978935 -1.0187092301017029
77 1 13.0937929678555243 7.3557991300554360 19.1832698475517063 0.7960214880645953 -0.2806061754491072 -0.2245494837767775
85 1 13.0751436037436619 9.8270053715816790 19.2728671540705250 -1.0357538001854332 1.5033337316402586 -1.8006912476251280
86 1 14.4763197211146313 9.8277090924256107 19.2329567699211950 -0.0968978404230512 -1.1411545781816783 -0.5197614322281530
79 1 15.2135950076843436 8.6298529916478763 19.2428099188271844 0.2935582226950090 -1.4540178138136781 0.5553968943965608
80 1 16.6291757831391784 8.6106526968405177 19.1629471923998729 0.1731106168494918 0.7357681130623455 0.5405359151734931
78 1 14.5341381246839685 7.3702850015707870 19.1088254623296621 -0.3425006239357343 1.2784348170850406 -0.2596502312834615
25 1 17.3622434780875032 7.3880298739735606 19.2475098598895578 0.9306977801563068 -1.9239721255381954 -2.2510840245077057
33 1 17.4112931045023238 9.8078897973528694 19.0880295431033957 -0.7536476702472137 2.0329776916508271 0.3816780440858294
92 1 12.4222150245952836 13.5317610932498305 19.0658742255622009 0.3067571111496064 -1.0735929853102915 1.1026260865718116
91 1 11.0357499388800395 13.5588038458028652 19.0459537459047539 0.1868724447999262 -0.2779405714253865 -0.8209994327640486
90 1 10.3002429906109594 12.3499478369403093 19.1433868026530618 -0.8680841291087176 -0.3865302887802019 -1.8672985518881660
84 1 12.3885331358723789 11.0886579129689817 19.1505007389138626 -0.3215867972886093 -0.8597218766954700 -0.0712971320058086
83 1 10.9707770338468418 11.1132958446657302 19.1372399115951843 -0.7461146846226162 -2.4227977006974677 1.1395998800907678
93 1 13.1054592302002568 12.2579458527679339 19.1252594853052749 1.5039302309934230 2.8419521088866473 0.0638633139527445
95 1 15.2476185788785923 13.5220242675815108 19.0693850758864833 -0.1760825451353809 -0.9645787261290241 -0.0490446609703958
94 1 14.5497129752500456 12.2353217486373360 19.0801711672119403 -0.5010130731850374 1.4948027917292583 0.5169240223989003
87 1 15.2390244024173001 11.0314242836521217 19.1686067487654483 1.5656796265609820 1.3274377569643092 -0.4850920567365512
96 1 16.7065611672589114 13.5171355427733815 19.1443086236631075 -3.4877627390563659 -1.0186098391416787 -1.8329320261759392
88 1 16.6712077600834334 11.0546124292973325 19.1197888244574443 -0.2796333179790132 -0.1129092344049860 0.7657759798618891
41 1 17.3589840624873304 12.2794845857302377 19.1510909422339992 0.2967637938015937 0.3562677260427008 0.9330060486313780
