ITEM: TIMESTEP
8390
ITEM: NUMBER OF ATOMS
96
ITEM: BOX BOUNDS pp pp pp
0.0000000000000000e+00 1.7084949165859321e+01
0.0000000000000000e+00 1.4796000000000010e+01
0.0000000000000000e+00 1.9999999999999982e+01
ITEM: ATOMS id type x y z fx fy fz
10 1 1.4361929987954518 2.1543261150670223 19.8691167981154990 0.4951765282162097 -0.7130286917489904 1.4024210051794286
4 1 3.5688919165479063 0.9457643067412728 19.9415311978718215 2.6349989122604951 0.6924733907832765 -0.3978360155459848
3 1 2.1630002320714365 0.9411744358782719 19.8661045409445087 -1.0193279903370247 -2.5006888360843411 1.5264179548780483
13 1 4.3258186928617208 2.1422468013151308 19.9032525985242970 -2.8557981120804792 0.9291361805629217 1.0495051548041248
12 1 3.5886002385496449 3.3532006686884106 19.9556742987924451 1.3965430878070082 1.1115241226704167 0.9606859161305223
11 1 2.1753507260015805 3.3679072813884146 19.9641392446957404 -0.8830602692649534 -2.3030307823704570 0.2357546505677815
14 1 5.7098755807535291 2.1142056103954432 19.8196720266203208 2.1293593937615194 0.9312723559440503 1.3612457082687586
8 1 7.8257871790331661 0.8527114136898020 19.7816377424878560 0.5033625283328627 1.4805972715485367 -0.8693453943778413
7 1 6.4225833674960944 0.9156023214958868 19.7967871396789015 0.4200056461465812 -2.2965718006507481 -0.8925950326123926
57 1 8.5970306354479238 2.1059214577815624 19.7495640635740450 -2.4564308877379490 -1.3132133855785202 0.3527883406049776
15 1 6.4312025024702164 3.3215402805319596 19.8719963095596164 0.4097838621448555 1.8912072475305859 0.0594359705024838
16 1 7.9304290981308068 3.3517187596840805 19.8858539163722661 -1.2019372638304782 -2.1508920078578950 -0.4451784786439106
20 1 3.5906896027626929 5.8543695756122904 19.9667829042604055 1.1717469132679663 -2.3127189681390581 0.1741402469756764
19 1 2.2046922894689240 5.8128611639449890 19.9391753904958122 -2.0490359775470290 0.6138528651024366 0.6775723749523961
18 1 1.4772340568365763 4.5620942630174666 19.9601795130459649 -0.4591961121799704 1.8292812252659023 -0.1263248075517432
21 1 4.3085890240498514 4.5792738740367893 20.0129436865644728 -0.5858382311663966 2.1036778534042444 -1.6770240976248805
26 1 1.5015334469406230 7.0387831309148874 19.8605503237104557 0.6398470142100485 1.3367269554927832 1.3558206011380303
29 1 4.3084871513976539 7.0598887556771839 19.9196335761868859 2.5810003707753348 -1.9423079561880763 -0.7647362487799667
65 1 8.6427999459178011 4.5588956857685892 19.8970746599642219 -1.6859833048474937 2.2557204411998564 -0.7294332328285305
22 1 5.7086186458889756 4.5556720836407392 19.9131076889815049 2.5632105428923442 -1.3286724937509820 0.6014028574039887
23 1 6.4629056325453185 5.7760612535908145 19.8544640001235990 -1.1527991769436285 -1.6618072555157484 1.0514791289806811
24 1 7.8653257314553375 5.7573096977414258 19.9545008253430183 1.1920645639924303 1.5139288000581095 -1.4674708880008480
30 1 5.7693319741014575 6.9765431079912359 19.9597042024739473 -0.4035520443705947 2.5229724869211716 0.4070558014333657
73 1 8.6004418351356602 7.0420338108645844 19.9337517139444103 -1.6367799076917373 -3.0272549941820546 0.7068087007490923
34 1 1.4567012177872802 9.4961553669337189 19.9755746234180194 2.6890099922841317 1.1627292666803166 0.2085390944445405
28 1 3.6566599132607265 8.2749134077584827 19.9325052019357720 -2.6262399899785858 1.5457199886853026 -0.0782328170797762
27 1 2.2258245399666232 8.2902122160031357 19.8716178778914596 -1.4465611875160638 -0.1347903173533895 0.8755389598085673
37 1 4.3138053626820927 9.5170262528052412 20.0024642655735114 0.8169471156279898 0.0836493296050138 -1.6053057574627825
36 1 3.5867800561430023 10.8038943942184975 19.9531083463202066 -1.0373118652718758 0.1553466034966489 1.2917467938072749
35 1 2.1526089455811639 10.7668866141161068 20.0386210148358401 1.7943060920701479 -0.6097542240943128 0.3625116828163146
38 1 5.7541311324756457 9.4810931460621433 19.9748308265476240 -0.0534453311398108 -0.3773613956086951 -0.5905334212815202
32 1 7.8752574285080819 8.2534131774122983 19.9478844439104641 0.3239536885135549 -0.4005016027652566 0.9245783921199833
31 1 6.4868892583872864 8.2255432662440899 19.9341984756061912 -2.9023033463311467 -0.5890587262579108 0.7450705394894735
81 1 8.5503794999343690 9.5012703750599350 20.0674197070987610 -1.2551324519268774 -0.8526103069683403 0.3258535306273574
40 1 7.7932954931497447 10.7442546902153211 20.0501602992853449 3.6860540792106740 -0.5702338987555134 -0.6273978631699652
39 1 6.4067385242799455 10.7502107471909962 20.1038546892863330 -1.2119330874337753 -0.7404910024875618 -1.6149456961500623
44 1 3.5952872553234649 13.2978511298435844 19.9459628888529998 -0.2556648775645256 -0.9027057812800980 -0.7144774901009604
43 1 2.1277677797538295 13.2318191193572403 20.0153253140917151 1.4308786140349867 1.1737682685865698 0.2462045570200961
42 1 1.4142834646573199 11.9686434497988579 20.0170293870009353 1.0811466967871985 2.5211307112127210 1.0865625282508229
45 1 4.3076694021048301 12.0543834567943478 19.9526457214119297 -0.5596164788218849 -1.5197932293359058 -0.4818580786030195
2 1 1.4228309320306980 14.4741586043648223 19.9585457787832041 -0.3976472584698021 1.5087630091403788 -1.1643097061767682
5 1 4.3404360192471900 14.5324385288363018 19.8538825733301181 -2.4641452537588471 -1.5998499236746917 0.5580529134242515
89 1 8.5118871083165999 11.9758101802979553 19.9082324832244666 2.7601804533738186 -0.4077741344686073 1.0390380834232709
46 1 5.7121212552754166 11.9717805877725656 20.0349551423516132 -1.5813297881977437 1.0626573821828333 -1.2615002854558086
47 1 6.4034585520859810 13.1929225625601916 19.9066894179612319 0.6066273184928209 0.5215845451140364 0.5925848519926125
48 1 7.8046844175109529 13.1751400098417015 19.8758898271115712 0.0326195025069214 1.6371775586450870 1.1219927077907570
6 1 5.7516593219502710 14.4561758542292953 19.7867574743565946 -0.3224437227730028 -0.2197174111857593 1.5000639450237476
49 1 8.5039778096588634 14.3988273765996730 19.8758848865993336 1.1044239387325396 1.0241537208611329 -1.2646540156404531
58 1 10.0047994825921300 2.1150245580640084 19.7081060884058807 -0.7484236457113025 -1.3742402885286942 0.0201715027266529
52 1 12.0902460119176602 0.8771827906951799 20.0113135836532692 1.2303194904873842 1.1303428015601191 -0.1389554554675181
51 1 10.6809539338558608 0.8694599561382350 19.8622425656154959 0.5330267929217081 -0.0372418559852423 0.5932523823247455
61 1 12.8069493084334187 2.1138458244265674 19.9985693296459601 0.3796574732230448 -0.2823023192643611 1.7238208786917064
60 1 12.1450069746070231 3.3741587753625564 19.9521142260618518 0.2653178481403409 -0.0640887926734374 0.3298567825029608
59 1 10.7231772813597495 3.3250422053294852 19.7887131601380339 -0.0447935823335993 2.9972060872828035 0.3903514414007813
62 1 14.2599736765775482 2.1498485133574396 20.1039257130959541 -1.2490431429665803 -2.1820178464899485 -1.4337605190037697
56 1 16.3521440567033700 0.8878224361303705 20.0586768830016204 -0.8478781743230970 2.6642467163242647 -1.7180568628914941
55 1 14.9233821167796421 0.8835737218431182 20.1448487578284308 1.7194667705479063 2.1548026727605771 -0.5294526553252108
9 1 17.0780495330580528 2.1204374110042146 19.8924748666963822 -0.1175604365305437 -0.3938035274649746 0.2140947979988213
63 1 14.9782323583668067 3.3918380180175660 20.0591897771937333 0.8964326957854297 -0.4313906150759262 -1.2941283613747196
64 1 16.3952748201420064 3.3924689939012462 19.9476184423722458 -0.6511567119540710 0.6874249237182353 -0.9535659739969182
68 1 12.1607082057702023 5.8560373076130050 20.1209529736766370 -0.0305432703232257 -0.5904452336891256 -2.3743227283887105
67 1 10.7488932075524488 5.8307261257323413 19.9614378010100708 -1.3903149199368410 -0.6455178229055913 0.6586939175541711
66 1 10.0679109979231391 4.6173744006623698 19.8109369229416821 -1.0278559119786483 -1.3732776259129218 0.8393595929081714
69 1 12.8217447056424287 4.6316336399121960 19.9211712967921244 0.4835743878824816 -1.1717503225818922 0.4042846397734345
74 1 9.9785433523105116 7.0127720375179576 19.9016601784728451 2.3902749352300026 2.5675989402013184 0.9795636088028297
77 1 12.9126841659315836 7.0630458126339342 20.0319587750567294 -1.0119699421700861 -0.2400623043842426 -0.3558710488674517
17 1 17.1728185397639521 4.6154557792039048 19.9176337679549498 -3.3318305430939454 -1.1992224156609201 -0.1002778846725131
72 1 16.4191628050167395 5.8564581033704597 19.9404212310439419 -0.1239703757160125 -1.7489054571696223 -0.4511870527260119
71 1 14.9933070189279505 5.8429728249057415 19.9902372916620408 0.0649721876610680 -0.6196014878481920 0.4316092475383533
70 1 14.2535978780254418 4.6263459899208561 19.9951971791085263 -0.8017324048259994 0.2259292626795505 0.5801819839580212
78 1 14.3003826179982010 7.0565508900847247 20.0726226749954222 1.5224405328384327 0.7256521253766464 0.2497851858925816
25 1 17.1534498513493645 7.0716247592675128 19.9570426182912577 -0.6933176740362800 1.9037910713667121 -1.5009724522902257
75 1 10.7212441914780836 8.2802554102290014 20.0012650561083305 0.6040354975266089 -0.6921539420750820 1.2272949431229734
76 1 12.1918491528344060 8.2766108776613834 20.0364524163488333 -1.9754250089155336 -0.5517793795187892 1.3297019713368334
82 1 9.9761238373506060 9.5031186195273190 20.0674989317126986 1.7995237656998166 1.1268249329441726 -0.7172346186524490
85 1 12.8172380331377838 9.5302770202839362 20.1122660922333800 0.6323245749353072 -0.4759263701475441 1.6198119549316869
84 1 12.1171673151456911 10.7664518240640952 20.1191791719043351 -0.9572576199242988 0.3470267852523932 0.1164052495212387
83 1 10.6863864138704354 10.7426432445627356 20.0033384860259780 -0.5018434947864562 1.6221790294413854 1.1580334019175060
88 1 16.4115692655640792 10.7978031226146314 20.1979086296118773 -2.2300783364993988 -1.5264985411106022 0.3982614893507442
86 1 14.2316455226183169 9.5995815380019831 20.1978959331815737 1.9737719584415472 -3.9833878567876759 -1.5797388138289565
79 1 14.9854361113983092 8.3030194210249917 20.0592592158061507 1.4454236263572091 0.4368768564135799 0.5377250356989773
80 1 16.4386308462291382 8.3325454738926670 20.0153674534629822 -1.4715947742243505 -0.4466809786404103 1.4743191707088428
87 1 14.9400402107895616 10.8065697489394417 20.1772164647495202 0.5951111945084546 0.5344180809391326 0.2097802254150398
33 1 17.1128446087119883 9.5816569366812292 20.0783703572379260 -0.1272103224587576 -2.1473411958727553 -0.4971651565938193
92 1 12.1110174234604528 13.2057432137897734 19.9816520782568467 -0.1967913645225378 1.0636677105413943 0.2457325953284751
91 1 10.6713773441277961 13.2449302692325155 19.8858004552896013 2.3213391128987242 -2.3919843057760861 1.5666808648329145
90 1 10.0006343508712252 11.9783557799389104 19.9593441648009922 -1.2921094463301488 0.3026518863510963 -1.1036168434746592
93 1 12.7825809297142285 12.0070267122179057 20.1202920840238058 3.3551138157500136 -0.2451657782819113 -0.3683965915897176
50 1 9.9735001338744773 14.4488362397027572 19.8237052482274017 -1.4206381766885483 0.2467274972925507 1.1830033153441368
53 1 12.8421383559631064 14.4586500601202559 20.1176487038052265 -1.0857395242664625 -1.3269960668317800 -0.8058696069066493
41 1 17.1073019969674860 11.9952892258520638 20.1651869799109242 -0.4466432458354225 0.0227242028818013 1.1401467781347741
96 1 16.3532382315909892 13.2193980620896596 20.1837585885288213 3.2850632088935763 0.3896386092863200 0.2036199107427200
95 1 14.9600351982390549 13.2280677765664585 20.2155079668657365 -0.5802018256098860 -0.3525271206989957 -0.6124419466300576
94 1 14.2388453405807169 12.0141724215989161 20.1512676247880975 -2.1963268813263683 -0.1482073801871575 0.0290529133555552
54 1 14.2482955399685540 14.4367417322180351 20.2127013470354910 0.6959398230026916 2.3254743035602772 0.6723943284299034
1 1 17.0621196622627451 14.4956984200696617 20.0584201430620404 1.1369276644315089 -1.3317485525804538 0.7676220135625549
