ITEM: TIMESTEP
180
ITEM: NUMBER OF ATOMS
96
ITEM: BOX BOUNDS pp pp pp
0.0000000000000000e+00 1.7084949165859321e+01
0.0000000000000000e+00 1.4796000000000010e+01
0.0000000000000000e+00 1.9999999999999982e+01
ITEM: ATOMS id type x y z fx fy fz
10 1 1.2516465063184190 2.5102161250222039 19.2330757172393021 1.9710946676230008 1.9211718997506591 -1.5014151953231101
4 1 3.4424551543499153 1.3276047462579261 19.1172916884682920 -0.9997670654478579 0.6309267675983556 2.0022343656450090
3 1 2.0196431828088777 1.3151293060793394 19.2359641683926661 -0.6634471125919680 1.3675031642808282 0.1621148062054213
2 1 1.2432917914309765 0.1150888585099406 19.2240333078495844 2.1876770727374240 0.2238352946481909 0.6703702739736012
5 1 4.0915458867728765 0.0726280621930938 19.1334059164787185 0.2115899108577080 -0.8298395407625130 0.6901486575049559
13 1 4.1233993022066953 2.5731473046327205 19.1486366210809216 -1.6129494146056949 -0.7893917900776417 0.2581080372770919
14 1 5.5518879065987363 2.5689811831235114 19.1885024187217326 -2.2525511349097691 -0.1813675750182633 -0.9108229877828491
8 1 7.6528466512266187 1.3364112790346563 19.1530703846984593 -0.1856120913944230 0.2487268263160729 1.6937045243562046
7 1 6.2292259651039652 1.3410164724063687 19.1383346227496283 -0.6093974092207226 -1.8817136534602328 -0.2793117349579792
6 1 5.5209696292427886 0.0689144637373842 19.1727554580531887 0.6856434121290180 1.2071937409808395 0.0947720127752881
57 1 8.3830356404955637 2.5796857923552166 19.2529315714008114 0.6515185183471445 -0.9646521785728672 -0.6319199292877085
49 1 8.3284868059098738 0.1241692136232683 19.1755533847053883 1.2939947731565313 -0.1316183624796309 -1.3397481667823943
20 1 3.4145191060311499 6.2456709878857399 19.1354430156933972 -1.8074841977338156 -1.3164517965082503 0.0894683172730406
19 1 1.9662073499258257 6.2074421598490330 19.0711756767079912 0.8036614493167957 1.5515193071830529 -0.5817794710840223
18 1 1.2273457622754995 4.9887641729553369 19.1161052304344672 -1.4347292130814622 2.6836981518438261 -1.1244997721118408
12 1 3.3637698578004112 3.8247131893060238 19.1902778179510811 2.0913486904872665 -3.3719418791624798 -1.3896374918547958
11 1 1.9493309977433957 3.8023943307074943 19.1832114579463777 0.6919125960589672 -2.0505611592746358 1.2165468818159433
21 1 4.1144970828558227 4.9944126503490844 19.0968482486003275 0.7518541480763654 1.4527563827887049 0.0397727610601248
16 1 7.6696889122751744 3.8337079213103715 19.2661139922454758 -1.0704946299097968 -1.4000166962263183 1.0165369420250312
24 1 7.6561071387225059 6.2538387874632884 19.2465071099827973 3.4435839262873804 1.9616180204849794 0.0405028407366176
15 1 6.2456068832733189 3.7984240066218735 19.2457065027071010 0.7351412013287385 -0.1607105243477222 0.6200614623405624
23 1 6.2777957908375344 6.2743710910075752 19.1946597305850197 -1.3314515789552623 -2.0522146023150558 0.8537028256200971
22 1 5.5425862387838540 5.0321845416662674 19.1597049841515421 1.0834214244902285 0.3094748206511863 -0.8292559821861548
65 1 8.3608029495857874 5.0309073434887850 19.3270671211421323 2.3057206637235619 -0.0121562578494957 0.5975243185207522
26 1 1.2546800332758745 7.4356443180843383 19.1245354462016870 -0.6991490467706100 2.2624438198818071 -1.8789461334636033
34 1 1.2163111247370340 9.9395128890033195 19.1253133881402064 1.5592164938100463 1.4776544516387025 -0.1918288426418037
28 1 3.3950179716222069 8.6867017478638893 19.1567559235993770 0.7482070125419191 0.4540932326172945 0.1087275960868542
27 1 1.9838441952804047 8.7215254360889087 19.0853987254198678 -1.8290003746477863 -0.5560920863339358 -0.1286403777852334
37 1 4.1012422146940439 9.9236396132190787 19.2130411946125932 0.2323131211216992 -0.4388494161091686 1.1270642447898438
29 1 4.0861150039639584 7.4698943250224428 19.1640624424440027 3.8050308713692829 0.0202999980091758 0.2005081442543030
38 1 5.5044756803004002 9.9307333613252791 19.2328279379012486 2.1585736418452872 -0.3986082020761442 2.1253347780932796
32 1 7.7002046195747482 8.7009256524469389 19.3215987381027929 -0.3591564915935376 0.9990754786864071 -0.6180580453527894
31 1 6.2823103343074855 8.7354251020794020 19.3893281709456957 -2.9269387684434331 -0.8594849701144314 -0.9520714332772197
30 1 5.5752667215752032 7.4806243855514705 19.2397069649512105 -2.1716036363452873 1.8629686772408860 1.3180829078167615
81 1 8.4030022337784818 9.9656605815175752 19.2806095834347460 1.5157230479777910 1.1457998481562250 0.1352856184326924
73 1 8.4269559448286540 7.4913656214731406 19.3633876140645995 -0.2407756738433995 -0.5519291407211209 -1.4222440298439891
44 1 3.3683027661045939 13.6644372697283902 19.1622217546712683 1.3327021300281074 -1.2422982867417511 -1.2907980657301321
43 1 1.9597437008161576 13.6929409387686576 19.1562111339675170 -1.5948788061594048 -0.9259803278204665 -0.5240425903223124
36 1 3.4056094649542556 11.1584841358526372 19.2222052322050097 -0.6918976429476795 1.1847608846480924 0.6766931746698535
35 1 1.9395256128882623 11.1893120008914426 19.2029785437312768 2.1100627536047289 0.6851171904818283 -1.1873556523814368
42 1 1.2571268106698417 12.4464128195305932 19.2217567567926721 -0.2086205160590168 0.2743541477354698 -0.7667866100809464
45 1 4.1340473061378802 12.4136244194388361 19.1700420643441021 -1.1178395698423067 -0.2943022831737457 -0.2038971270682712
40 1 7.6503152853280154 11.2174722531818656 19.2303349584669938 3.0576706955443229 -1.7183757817425080 0.0393069940457541
39 1 6.2739870323075255 11.1900421646946331 19.2443834773687641 -2.8061853400523806 -0.7684644668808887 -1.1128079518935168
48 1 7.6470049295584497 13.6755884882006349 19.1665306733170695 1.4323220236997489 -0.0441511553258650 1.0016721079496753
47 1 6.2624830502375355 13.6392519005652879 19.1678317504419802 -1.0799248133327997 1.6327933590412840 0.0159788656001870
46 1 5.5618543436545638 12.4121271920849985 19.1815748346786812 -0.0966567405174548 0.8017074694629192 1.2786543576455223
89 1 8.4065605154070582 12.4716236512756549 19.1215779766744731 -0.9248200270643960 -2.5624442835343060 1.5917602583361956
50 1 9.7844106788797056 0.1239447312742430 19.1229104030271913 0.1171674599008661 0.5920752970019403 -0.8903410441427955
58 1 9.8144528940700884 2.6029351145428654 19.2465858528746843 -0.9726710341540290 -1.5504791671444256 -0.9674391262553322
52 1 11.9503290663430004 1.3558709789872421 19.0075085215852368 -2.2981463768915207 -2.2125228410547404 2.0657631854672607
51 1 10.4931283777670146 1.3381864506496581 19.1709268192951399 1.0951264954147950 1.1866357508967551 -0.8820621992659045
53 1 12.6309857333474440 0.0883963310034719 19.0036291830223654 2.0045648862182750 2.0840876106618205 0.6456247840441387
61 1 12.6564588303488357 2.5796727663439847 19.0694598532840018 -0.1171603839927752 -1.4806078407906336 0.8254832980152910
62 1 14.0575011772690033 2.5679364519511392 19.0418490848129238 -0.6380790403389633 1.8968056754338511 -0.6563926802698279
56 1 16.1981772190818276 1.3631086233605636 19.0950939375747026 -1.3370972431775501 -1.3674778137375898 -0.7670132171444227
55 1 14.7664402322398356 1.3548890145177672 19.0503609302942145 1.6909946520451511 -1.2639108919012223 0.4956866123025157
54 1 14.0998904707487309 0.1065114160084807 19.0530816920300481 -1.5724029376891171 -0.7489635107176552 -0.4140910586303959
1 1 16.9103236285716427 0.1102556106742422 19.1747502775324286 0.2414813377621877 1.3360475338768414 -0.2232832429772049
9 1 16.9132515751642316 2.5836617117148837 19.0888763843071274 -1.1208271954015214 0.4713942896196832 0.0538935931027981
68 1 11.9355897323319393 6.2527170391395392 19.1740270031181907 1.1831313755233150 1.2823258849123338 -1.9215784458791854
67 1 10.5267358543865672 6.2666774947317263 19.2033915367585060 0.1325390897584512 -0.8814255204876801 -0.4499990094690124
66 1 9.8084025619870818 5.0525701945408663 19.2675321689183541 -1.5032416100708468 -1.5541705496417604 -0.3203158945712649
60 1 11.9277617790694652 3.8024621359326698 19.1389076598885062 1.7061039034678633 -0.6653557636668258 -0.9160460722861107
59 1 10.5247546377825909 3.8237708171280600 19.2761941510210235 -0.6996463260721988 0.6313490259060905 -1.9737770890502762
69 1 12.6270203305447808 5.0285435980848101 19.1184522848872902 0.2739431969005425 -0.0959567700662775 1.1800782762376161
63 1 14.7416941706515168 3.8257699754467440 19.1199242083319483 0.4130016076796025 -1.5691638398387515 0.7970751818956647
64 1 16.1788489084350857 3.8118429529749429 19.1132178147122360 -0.9539430417277213 -0.2392668249337998 1.0804111090189024
70 1 14.0288357955033103 5.0458707200891739 19.1067856790611046 0.5727170111105118 0.2132882865885160 -1.4285582446731593
71 1 14.7828651744998592 6.2285611201356224 19.0606883175499924 -1.6249531165480890 2.7506362508942672 -0.6827520029473895
72 1 16.1712272093484835 6.2228917347750023 19.0505057540844689 0.3106526143438461 1.7489327962600201 -0.4292620042007305
17 1 16.8656390911158205 5.0314674467845579 19.0679673369103959 0.8343193775340134 -2.0648510125232704 -0.0188871565174120
74 1 9.8891086738040173 7.5146748180191487 19.2387631671054002 -2.6159993229559908 0.9195098223718292 0.8320097330528724
75 1 10.5683524222418441 8.7636726615787914 19.0977712170482121 0.4240787636504799 -1.2403360228186422 0.2155905061986180
76 1 12.0234743448309231 8.7237933496763667 19.1069279844063367 -0.0524652194626569 -0.7068196206272784 0.4511305120778963
82 1 9.8709872936322594 9.9636393149844977 19.1229157020082958 -1.3851936161630887 0.0689995697912904 -0.1006387681066606
77 1 12.6865123748116684 7.4571443719385595 19.0421406735368635 0.4256938288883917 1.5534020482879503 0.7764386887203838
85 1 12.7304463982429432 9.9431665606647872 19.1749127734811822 -2.3821773616708555 -0.2171679807763440 1.1148102816882950
86 1 14.1263122533332250 9.9703806484578621 19.2084706087069073 -0.9943674550986964 -2.7047982650042832 -0.3662192566590672
79 1 14.8359988884461256 8.7016816165022046 19.2345957354782513 -3.1856361574868148 0.1534426290480602 0.2187671467334556
80 1 16.2011288793731154 8.7270650577020987 19.2545654828829420 2.9014651680818591 -1.1400214034201588 -2.0115412244516202
78 1 14.0814662993843118 7.4800225404651597 19.1241788196578675 2.6449977859823397 -0.0620702394232702 -1.3477474767573898
25 1 16.9341841492376659 7.4522075115621407 19.0924737427573668 -1.7328702871690651 2.3063594203639295 0.6508662713943084
33 1 16.8834251432522642 9.9468035240621315 19.1938691569956354 1.3804332632747729 0.7394887861773217 -0.9512103846482127
92 1 11.9588871594333472 13.6513610065021584 19.0012766384016416 0.1091882855003454 1.5916931983066465 1.5821395709181374
91 1 10.5554170300894565 13.6871570233901121 19.0966830042766702 -3.2553272662467378 -1.5158447844145808 -0.0756099004431320
90 1 9.8476076935948544 12.4450525423559171 19.1303414521121695 0.4658990377925443 -0.3106636866428636 1.0654984531932894
84 1 11.9718879784014991 11.1656889715148022 19.1839791233391459 2.7152987680601366 -0.3609954276106093 -0.3808875829659354
83 1 10.6024791521355528 11.1912578556524505 19.1739596076697438 -2.8139183590324355 -0.3083493729511113 0.5500295629088201
93 1 12.6446026128966054 12.4174137936808524 19.0808628571981060 0.4107069769520464 -1.0426133173703840 0.8240968314344359
95 1 14.7969466473922786 13.6862670790608529 19.1482274322020380 -0.4037897258142454 -0.9165885101655140 -0.0523921205372429
94 1 14.0513901534848848 12.4196925098314956 19.2349577757772821 0.3943558809235015 2.0643777568994706 -0.3990806307953371
87 1 14.7532698430222062 11.2081240107873548 19.2119831876737734 1.3888584628829248 0.1323207976395823 -0.6720872985701782
96 1 16.2508282870880336 13.6567782850663644 19.1967208582794910 -1.7643998127065446 0.2173095234975452 0.6745037159270221
88 1 16.1878752365911360 11.1785309185213304 19.1598789461032339 -0.7823353402734730 0.4052532768767939 -0.0581256028825866
41 1 16.9046648120171312 12.4117299023754946 19.2526443663731719 0.6607663920478585 -1.1196782617647534 -1.4837037956421066
