ITEM: TIMESTEP
8210
ITEM: NUMBER OF ATOMS
96
ITEM: BOX BOUNDS pp pp pp
0.0000000000000000e+00 1.7084949165859321e+01
0.0000000000000000e+00 1.4796000000000010e+01
0.0000000000000000e+00 1.9999999999999982e+01
ITEM: ATOMS id type x y z fx fy fz
10 1 1.4784978335796199 2.0745649996546351 19.8954346326935294 2.7889317772515456 -0.7497210702886300 0.7622202530651734
4 1 3.6625822896125508 0.8289314128723739 20.0456247874435824 -2.9403679565035801 1.5913928850732304 -1.3641750444290295
3 1 2.2071596649546463 0.8909350542929404 20.0607967160808300 -0.1376118301760287 -2.2740366652109287 -2.1987745467912703
13 1 4.3340176571471636 2.0937912673766523 19.9781830128718205 1.1795214333665260 -0.9055793173905483 1.9459536016975838
12 1 3.6283100981185883 3.3237776379347781 19.9491275438339031 -0.1132723215184935 -1.1401591847946491 -2.1374976233582714
11 1 2.2080770112261279 3.2738203737832201 19.8686629007603166 0.4254419044612951 1.8013987462359771 1.5871462853910432
14 1 5.7499121238053856 2.0538907587970705 20.0748466610441909 -1.3017622957121675 0.3947346859701339 0.7834375720031522
8 1 7.8959718692595269 0.8605104946694209 20.1145944463477448 -1.5726199754818229 1.4098076811942943 -1.5540632701754686
7 1 6.4617288462655367 0.8677919821424904 20.1594735021153824 0.8249671522636601 -0.3409324359787942 -1.7658001907183727
57 1 8.5670582401614190 2.1188229098800266 20.0666706724935544 2.7873034318891747 0.0348989997285039 -0.1575593059210216
15 1 6.4506249732884342 3.2742862730134217 20.1091379736058329 0.0304798278914651 1.5969911840996540 -1.2024584792654500
16 1 7.8857597641228399 3.3500140476533966 20.1148011281727754 -0.8709146992126362 -0.0360504778779949 -0.1799184530633444
20 1 3.6798934153858527 5.7440816406603661 19.8262373155498537 -1.9489680273876715 0.4879305935665560 1.0868947941117604
19 1 2.2562415484676435 5.7151037437500634 19.9676670516668437 -1.3654930092154975 1.0467411518487777 -1.2515417413666636
18 1 1.4977259047149509 4.5028468311289682 19.9920034507533622 2.3810441343056787 -0.1842543923486877 0.8038108516877356
21 1 4.4067289034601718 4.5383963948330042 19.8126413139256670 -2.7529254784866719 0.5568625946842863 0.9274172498585966
26 1 1.5247296601043547 6.9911280373224312 19.9336792892499943 -0.4333170555415756 0.5902011178380543 -1.1129771043162608
29 1 4.3259910777073323 7.0141019532721938 19.9346941892490861 2.1302484455833390 -1.3995538250103818 -0.1835000833363385
65 1 8.5768761401968554 4.5907329323630819 20.0826154659963265 -0.4302569195056576 -1.8268411421701582 -0.8088881742680885
22 1 5.7771899596076173 4.5255242212372568 20.0527850060385333 -0.0465034552222390 -0.4370379428265559 -0.2252726032868065
23 1 6.4587363344857014 5.7589358453551638 20.0122826420907707 0.1836395999491264 -1.0030271654107048 0.3616783604067080
24 1 7.8858192128633364 5.7964310406404298 20.1135115951637609 -0.5151474502920813 -0.2583427707951749 -1.3369526516665227
30 1 5.7467829104758081 6.9678615076161652 20.0185337281963776 -1.1753402825004429 1.5110800129056372 -1.1209096231825235
73 1 8.5695808986298054 7.0374579274498066 20.0774087156398942 -0.7735603286534380 1.3436544352004876 -1.8631047752092635
34 1 1.5282530342035794 9.4697466902595480 19.8163481865566595 -0.0064863828976897 -0.7349038696106960 0.7042394294317625
28 1 3.6353570274664473 8.2344713220752190 19.8236207643074387 -0.1736731874973728 0.4288309978320474 0.6984404379949836
27 1 2.2291312559261294 8.2308160188780484 19.9011992645885663 0.7434809449981419 -0.1047456438056396 -2.2280208898758458
37 1 4.3760207491500491 9.4496175693777840 19.9230145615113088 -0.3678884144141484 1.7988553368769327 -0.9727825353859724
36 1 3.6776622364639091 10.6896648504845615 19.9596971999223136 -1.5873728726884471 0.8113779339179416 -1.3253171430071355
35 1 2.2248692470732210 10.6734111345691005 19.9231800971700075 0.5114741700577350 0.2967517089349732 -0.0364153753684249
38 1 5.7835019045602865 9.4644550743158700 20.0107317327182948 0.7280600489912044 2.0819334786465347 1.0350804111334255
32 1 7.8775948121277457 8.2593389361231413 20.0118827034450462 -1.4938142428539316 0.3594405791182265 0.9705585641258532
31 1 6.4436493439532523 8.2344778148601190 20.0005099900528336 0.4601383542679784 0.0432189486570473 -0.1994311442044419
81 1 8.6092565425618890 9.4809027075185988 19.9770753753390977 0.6003780132165639 -1.3428122824480584 -1.2049302963047344
40 1 7.9395852761568166 10.6971452717461055 19.9707106184839702 -2.9349001496146832 2.3847980613827628 -0.3065389443895941
39 1 6.5003036810947803 10.7186133192564004 20.0329198748663586 1.0869541448091695 -1.5738358045782501 0.3252095605256744
44 1 3.6526932072516627 13.1750106878409365 19.9183957591240173 0.2728750751517379 0.1490163268394591 1.6871074587267960
43 1 2.2193521258584847 13.1690466269474680 19.8958543190860162 -0.7520051706589130 0.5151010190159931 0.5997057148834971
42 1 1.5293861515934661 11.9228508997285232 19.8742511679121172 0.3031822308914927 -0.0290618211311622 -1.4176350871016519
45 1 4.3762150585722663 11.9247002116751553 20.0192585521037074 -1.6480001213702680 1.8175852016795502 -1.2777338180107338
2 1 1.5129970731857940 14.4534334129752011 19.9850299875832604 0.6315765631606323 -0.1931137571346233 0.8676733804256107
5 1 4.3455632742367669 14.4079891879837731 20.0662427930219778 -0.5540554710246611 -0.7305827085291835 0.2164501390348726
89 1 8.6322890572486841 11.9249165850125305 19.9630153094553542 0.3460090185397853 2.1788629318841912 -0.4192417170924966
46 1 5.7786231824026499 11.9627971382782921 20.0368094173856086 -0.2521639413027758 -0.4171880991523925 0.9746318615319485
47 1 6.4803757215626332 13.2241756557050731 20.1225332368824681 -0.9252167939831797 -0.8474703557723765 -1.2258687649437521
48 1 7.8783757351513035 13.1930130445303320 20.0591007306830598 1.1554841364851873 0.9947332814584740 -1.6240756163814594
6 1 5.7583480859716305 14.4442669813932092 20.0657566341209730 1.6705929591545987 -0.3712844531150029 -0.3852547023530691
49 1 8.6184564169178373 14.4617461420243316 20.0303401060628445 -2.3505124611970603 -2.6664553469757526 1.0030423098891106
58 1 10.0499242103036419 2.0787125128289246 20.1060943554818117 -1.0629012437257195 -0.4248613919688151 -0.3917901166473381
52 1 12.2012920202120547 0.8431532870693197 20.0742356894225829 -1.1192545960480942 -0.5369237310785282 -0.3804192876227382
51 1 10.7746170740171809 0.8259246021228777 20.0550322840656428 0.1533902054146166 0.2705184993705740 1.1277293605781220
61 1 12.8792063986686642 2.0942176016601768 20.0864102855719615 -0.3862190036862695 -1.6695382739425457 -1.6534258116032752
60 1 12.1682941428807858 3.3569664657686049 19.9665664158024114 -1.4399434209210633 -1.8398324933447807 1.6817477563884036
59 1 10.7184472333078507 3.3508909227978427 20.0452687065605275 0.9594428780447539 -0.8014864862416531 1.2014885715100354
62 1 14.3051369336582859 2.0557840004553101 20.0794487388590852 0.9377045196606340 0.9494830948866801 0.8148593908387352
56 1 16.4572718284858936 0.8508053318133282 20.0593905834536201 0.8938770181407271 -0.4715368656368837 -1.6222460009916777
55 1 15.0473840024368837 0.8362804929418058 20.0909543053526960 -0.0827771101046996 -0.5294917000365003 -0.3770405325046429
9 1 17.1766873609495470 2.0811043495778070 19.8925198110106152 -0.2670708424554264 1.0227090784167867 1.0708325857601282
63 1 15.0027565168553672 3.2855360136091791 20.0643024934963066 0.6459625058114680 0.3651790145695255 0.3627132335965184
64 1 16.4831700696079082 3.2993858037168957 19.9248680835779943 -3.2386515099413931 0.3040227841726154 0.2961636291593688
68 1 12.1543808817002059 5.8012569542646508 19.9039995448563651 0.0954330848730109 -2.4465715449260981 0.2410923863970048
67 1 10.6974347554619520 5.8217454267538651 19.9678434456667873 1.4264999683803044 -0.9687998137301663 -1.2319860974674846
66 1 9.9837583551518971 4.5935517713652700 20.0620302267350503 0.1522461240045130 0.4954207543012250 0.5936158516164561
69 1 12.8872283490572794 4.5403478984883936 19.9175192173290263 0.0127996241701258 3.1835814482437677 0.9891946456179483
74 1 9.9747669308334803 7.0455987339942991 19.9206013981224892 2.1005363279461560 0.1744928292767270 1.5290563054408541
77 1 12.8617625868890268 7.0042505591946851 19.8779528283831901 2.4621070927366624 1.4436549865112605 -0.8750480914937021
17 1 17.1779732417540139 4.5591364075137157 20.0720149201115419 -0.7171730682578328 -0.5566746935916373 -1.3812759411678865
72 1 16.4811717863463336 5.7833614054191731 20.0113920319625258 -0.6221999420902133 0.8759021985394346 -0.0268905307262934
71 1 15.0537964334467755 5.7618782769459695 19.9191206679630675 0.2220515218106155 1.1265629222743228 1.8794400790641554
70 1 14.3057994079984958 4.5388716751250362 20.1186410757904994 0.1581326439227874 0.6684524996596034 -1.9380481362266790
78 1 14.3147831714817517 6.9819315630189429 19.9020098948698525 0.5947542251395118 1.2880810660629372 -0.0118441042384725
25 1 17.1786234013658081 7.0202155056888618 19.8923379160066247 0.4624925462993973 -0.6685962530963092 1.6205245623817421
75 1 10.7373224177401543 8.2319585510255369 19.9420148667260619 -0.3338034822654021 2.5527228395146420 0.8212787450004155
76 1 12.1392714784158127 8.2402273651728635 19.8894125607381334 2.6321081838381453 -0.0656123687844547 -1.0036801773936879
82 1 10.0323853500236542 9.5332371108160885 19.9405503349699238 0.4599821557895061 -1.9703775919434301 0.0099532208301984
85 1 12.9070955143281996 9.4533300663570721 19.8327702136323687 -1.5400254509436868 1.6048295381655029 1.9984826524952228
84 1 12.1850083074090705 10.7358471549486030 19.9106041175944632 -0.9965150496025467 -1.6062716055596995 0.7783758856786406
83 1 10.7593192392657961 10.7550271133043758 19.9931896901376085 1.1270577255923695 -1.1457777565448606 -1.6350601447448350
88 1 16.4712632427016068 10.6717862325506943 19.9223307801595730 0.2683233336025787 2.1717469046127031 -1.0159346027396339
86 1 14.3029884804380671 9.4749891949727338 19.9417666501092583 -0.8438627271980055 -0.2279171056486785 -0.3015907648113565
79 1 14.9765724620534879 8.2716930819907528 19.8672448630178025 3.3490123158015637 -3.2990052050984846 1.5897581288152933
80 1 16.4344054154240702 8.2576804178606054 19.9347384224199686 -0.3836779524077343 -3.3114302542311105 -0.0833967785983524
87 1 15.0227214909976521 10.7279911474738618 20.0016242289960324 0.6634465409375289 -2.1135546967196963 -0.3420656192027429
33 1 17.1755376872041978 9.4185731201304659 19.9524222035373491 -0.8496916440444853 2.8707616610543689 0.0500410834280337
92 1 12.1975777795549494 13.1657571663884188 19.9974808122598624 -0.3165158341131002 1.2245089421335742 0.1099181231369778
91 1 10.7651175244021875 13.1700662959811901 19.9702677727365945 -0.4597149228565273 1.0403516349162407 0.2013113499474186
90 1 10.0437836749175560 11.9537405645432759 19.9939062900279367 -0.7740520129542442 -0.4861348333244215 -0.1018481264996905
93 1 12.9154309690912630 11.9446015227384041 19.9409749688311386 0.2509776455527325 -0.4112598729776522 1.7892829456503352
50 1 10.0126270590642736 14.4135299696508596 19.9571960242737987 1.8596158410633685 0.6795802423668577 -0.6865101227979803
53 1 12.8889743511994919 14.3717660155505396 20.0710258111634587 1.6131644923142878 1.9559543097743037 -1.5655255931535501
41 1 17.1893131217422130 11.9130337349769704 19.8361663685951903 -0.3947011037817045 0.0519397065563386 0.3756483622353918
96 1 16.4956057552266095 13.1926953554780653 19.8788950065264629 -2.6809498955403845 -1.0226397935003702 0.3675855554902728
95 1 15.0276956345084223 13.1987579442643739 19.8925308486362766 0.1153090026331707 -1.9280085916545122 -0.4239010114544871
94 1 14.3170954159280779 11.9404150123556985 19.9754899652626570 0.4209744642012878 -0.2924189215103483 0.7140764733063967
54 1 14.3433874938233643 14.4242092954179313 20.0370529231623209 -1.7738537004953705 -1.3544332703506323 0.0491191626689529
1 1 17.1790232846540931 14.4236348048630596 19.9069101018558534 1.3328233306413551 -1.0399117459878484 -0.0354124445239801
