ITEM: TIMESTEP
630
ITEM: NUMBER OF ATOMS
96
ITEM: BOX BOUNDS pp pp pp
0.0000000000000000e+00 1.7084949165859321e+01
0.0000000000000000e+00 1.4796000000000010e+01
0.0000000000000000e+00 1.9999999999999982e+01
ITEM: ATOMS id type x y z fx fy fz
10 1 1.3549451601077560 2.6322673990177075 19.0751647072339985 -1.9334977080932683 1.1289549575156397 -0.5069961490587014
4 1 3.5259417834993836 1.3875696268537328 19.1839951397920530 -3.6512832026694237 1.9705244673297142 -0.7090114649672106
3 1 2.0568790272638311 1.4031257469506373 19.1029691449483927 2.2648978116348832 0.2538917956271851 1.1049424744431477
2 1 1.3612006752447527 0.1563630948920023 19.0340477607449934 -3.1024069918628197 1.1289793859397261 0.8323267765210329
5 1 4.1806881658177710 0.1439372023600509 19.0435931908126008 -0.5500411641709324 1.7256005745882192 1.2754245919528802
13 1 4.1927163070464690 2.6716567003361615 19.2327202104253629 0.7325346128180671 -1.6280646426126038 -0.1093932059174280
14 1 5.5967401544988507 2.6266639260370708 19.2161707389874437 -0.6195208581417466 2.6380786278040231 0.4410802989634073
8 1 7.7334078553589443 1.4178671716869720 19.0648017978185784 -0.9968083514571926 -1.6950722964825189 0.5403017331967281
7 1 6.3262879843977435 1.4493867407298249 19.1508789628867646 -2.6935901520890351 -4.2966739358083448 0.6149451503121652
6 1 5.5947112113135500 0.1681169119325762 19.1048483977593975 1.9575471520211636 -1.4951655195911244 -1.2398871896565704
57 1 8.4240126788380341 2.5814940131706914 19.1788970962148362 0.4712833283966463 2.1042128093254076 0.9673480864942374
49 1 8.4508553916273197 0.1845914946708569 19.1513207353659887 -1.6842929162388036 -0.2757214467209421 -1.3305497102900032
20 1 3.4849969545657240 6.3352375084916028 18.9756227916474636 -0.1321510771192496 0.6243923693447484 2.2783135142018396
19 1 2.0389934290938179 6.3262392087009207 19.0369038922448475 -1.0455689097007783 -0.5920974244548275 0.9733400133201050
18 1 1.2943895844239515 5.0931304398311230 19.0331598473894452 0.8187964870519762 1.8704160885710059 1.4391241194574960
12 1 3.4767001983458652 3.9001965123647713 19.0987604200694925 -1.9295367950128413 -1.5479032976425984 1.6707441073411768
11 1 2.0397111162124233 3.9052518907178975 19.1046781875006850 -0.3776171675690763 -2.0159106571957577 0.9685138362561820
21 1 4.1908694038049035 5.0838498584729610 19.0717756717867815 -0.0836698591829592 0.4656655375654337 -0.8291020304245971
16 1 7.7169679068290478 3.8424826944719399 19.1513696672223723 1.8760933147985184 -0.5980280803212088 -0.6870496601879921
24 1 7.7057026324293671 6.3302038026662428 18.8686717907102448 1.9762088160083322 -1.6631208934144230 2.3911031403677780
15 1 6.3434155729037016 3.8359369623497601 19.0821386267713500 -1.5355215121976662 1.3942345393676299 1.8475983677288066
23 1 6.2906314043114691 6.3550340543718233 18.9595288609373220 0.3636169728750401 -3.5433818089603171 0.4586712344235063
22 1 5.6157532322792427 5.0643640458281700 19.0232680178496416 1.1502767919970034 1.3263058217105792 1.3768512469436200
65 1 8.4182727792274576 5.0734991157335667 19.0570438302712049 -0.2652538457542372 1.9472412746259133 -0.0674889367445204
26 1 1.2840652514834827 7.5722175778897531 19.0813549451501814 1.6704661947959139 0.2716245004288269 0.7193732340380743
34 1 1.3481879621840402 10.0700076258610203 19.0579102077593454 -1.3820788150945058 0.1138431646596990 -0.5240002317020301
28 1 3.4486694695590456 8.7756434112896891 19.0046724819943975 0.1225038555897567 0.4464491351360318 0.1161172931523751
27 1 1.9955232421251545 8.8230893735961580 19.0514396933172350 1.7325940192956628 0.0071027118344176 -0.3234344729553620
37 1 4.1590361188453766 10.0357335215137571 19.0194146811083513 -0.0173932057181965 -0.9013728719183851 1.1878057623733767
29 1 4.1644353388043953 7.5722517466713022 19.0271484934272230 -0.0076560982922028 -0.4249151656927569 0.6617072734026230
38 1 5.5726209520546641 10.0163351080621101 19.0377161608516197 0.0698219528378620 0.6129908043252457 -1.2591124774805020
32 1 7.7449816581088919 8.8470250080817756 18.8676595215664840 2.7407245668667835 -2.5511793473543816 1.4370412833103803
31 1 6.3591430207107642 8.7567391519083806 18.9444147568468964 -2.5542351210089591 2.6366619806253042 -0.2278787713511580
30 1 5.6034553911422496 7.5444419339623581 18.9541175230507122 -0.9590625249471729 2.3186331276974728 -0.5665160917319148
81 1 8.4909636636802350 10.0965210840290673 18.9243605289317216 -0.2809259400533221 -1.2595799421359499 0.4843309139658306
73 1 8.4236164278553112 7.5580521508631477 18.8780105922728509 2.0974231908202103 0.8051232059022257 -0.6807113793592485
44 1 3.4297539206052217 13.7393957240801399 18.9627301687116798 2.7677064662098876 -0.3479802309786793 1.0882112363664191
43 1 2.0431098408343686 13.7326074108538130 18.9455761399224549 -0.9107756275252075 -1.3563707183739082 1.3267647666544713
36 1 3.4284844546176214 11.2405581617891617 19.0009079853316223 0.6159028997528821 0.1642166772737361 -0.1648452194856443
35 1 2.0158706500839809 11.2923977803627054 19.0283354171270744 1.5612779334484999 0.0031454002503661 -0.9488938625620575
42 1 1.3167003123538754 12.5078324084643704 18.9669409335218013 -0.9393175147116344 -0.4187573373671171 1.3739397267923990
45 1 4.1311970204525483 12.4747009080733555 18.9637039522110840 0.8794272739352330 0.0456840668303840 -1.6244466857209419
40 1 7.7207847914451371 11.2247280180906177 19.0123585498958363 0.5486719130693234 3.9986726434616209 -1.2735899265551371
39 1 6.2751365589642987 11.2482307014740464 18.9277029091329609 1.5282536492619871 -1.2854952447768122 -0.5624423066466457
48 1 7.7407288534523326 13.7042754814451584 19.0843702038311207 0.8307936752538856 -0.1015717854513722 -1.3307226060190342
47 1 6.3071615006616959 13.6963855272679655 19.0495761802316856 0.8309739209000850 2.0438119213086905 -1.4098864810214091
46 1 5.5769100543585255 12.4650359240081716 18.8907703703783518 -1.0920669059818269 2.2946745490571105 0.3151657875343554
89 1 8.4653333060574099 12.4985638016149707 19.0490962146675500 0.6705207696486696 -1.6208899035777928 0.4362391852342479
50 1 9.8626846088984159 0.1782220569078306 19.1957394884421682 0.6145602649851434 -0.0236580009524434 -1.4144879578153502
58 1 9.8261217864352997 2.6063250395034290 19.2293679713680881 2.6715635557803270 0.5331408810645701 -0.6350155907705385
52 1 12.0002766654341624 1.4410630141709975 19.0855257508068057 -2.3343986467825597 -3.2086126860685651 0.4245284817484428
51 1 10.5485322343707164 1.3774191492137313 19.1951161636719618 1.6840471808332738 2.0197552451713046 -0.1910987180747480
53 1 12.7199199184806417 0.1738734965971941 18.9677950104643784 -1.1134181984948714 1.1717048726061630 0.3292153640852497
61 1 12.6542685407325681 2.6562191842685134 19.0580260496855658 2.1689504747097392 0.6847153066018524 -0.3053466938779212
62 1 14.1124353032033962 2.6887586742546308 18.9059269677590684 0.0545073154969069 -0.9768551517171045 2.2122823686556488
56 1 16.2639381557735696 1.4014115918929826 18.9583656982054549 -0.1696242883608243 0.8746447625154974 1.0993449236398258
55 1 14.8001321884927837 1.4497987881639356 18.9867891087044569 2.9271376028952361 -0.6245681178095697 0.8911938703332714
54 1 14.1232914816855626 0.2072411652966861 19.0506338604129795 -0.4585376825580278 0.7748298762598009 -0.4454920217707977
1 1 16.9615334523222501 0.1496904404571983 18.9775877072958821 3.3931594551376199 1.7618266763176142 -0.8103813584339739
9 1 16.9751192097660777 2.6397974186875990 18.9745441958483383 0.8532065271255729 -0.9371807885351027 1.6167524095974248
68 1 11.9327957314606365 6.3546377276669688 18.9930705199738270 -1.1861441393886516 -1.2564239743886130 0.6788783013181293
67 1 10.4723707286920682 6.3170681833088720 18.9568242720075091 4.1712103010998547 1.6116446909705262 1.3703198831810264
66 1 9.8249828707106612 5.0890136565674275 19.1116964056886651 -0.6500720750120076 -0.8292517484321746 -2.1402029120570560
60 1 11.9702137688598658 3.8765211923293501 19.0481938273361706 -0.6474527237147829 1.0638097926994863 0.3082775989318797
59 1 10.5509840940431818 3.8574595319327494 19.0717902428477686 -1.5941410735483084 0.0471844981004298 0.8108814141751672
69 1 12.6780542507716021 5.1340734031462611 18.9684674041559020 -1.2320296828951482 0.5453608750902232 -0.6791789543604143
63 1 14.8344539332422887 3.8978317852229485 18.9857194724528391 -0.1215565095506896 1.2856718961288465 0.1650033745533402
64 1 16.2464438168410865 3.8738082623445531 19.0150507373158995 0.9893542014458141 -1.4903019920917460 -0.3131161561309289
70 1 14.0950945974229853 5.2008278706063136 18.9330852537633412 1.7540535292387287 -3.9888517831792729 -0.8016558958613681
71 1 14.8051433636559064 6.4061509181264489 18.8349224718740409 1.6039198804910735 -0.2010447818434919 0.5205188967028213
72 1 16.2139893950128950 6.3570834472122559 19.0095165464886193 0.5406138937330471 1.0305546358223050 -1.5772062077930500
17 1 16.9428260119012251 5.1035893425931080 19.0020053818471908 -0.9010835460578175 1.8524867107166800 0.5420963272947809
74 1 9.8567016570926942 7.6100710138766487 19.0017480462722759 -1.9761605295691449 -1.2834966329308783 -1.6825368653160706
75 1 10.5613319882485914 8.8695831478861038 19.0489470695268608 0.8513244590321432 -1.7131310804989497 -0.4601567248514276
76 1 11.9653781821086831 8.8444787040618298 19.0621997316097378 2.8375342813588027 0.4509850340712154 0.4882255147084332
82 1 9.9367415831093808 10.1173768069021914 18.9813120677109133 -2.4884464442627405 -1.7626454663694597 -0.2252016068886520
77 1 12.6639983816879056 7.5519288130851807 18.9891105978051584 0.1907642687035421 2.5101197852428658 -0.6699271520239616
85 1 12.7452839668183611 10.0756947415842735 19.1570362918880157 -1.0017607341696075 -2.3275333235777138 -0.0115221418246461
86 1 14.1196096486771143 10.1137282771594581 19.0264247715340957 3.2352758117370017 -2.0140328331870161 1.3026334135262945
79 1 14.8533527053658236 8.8703649795107289 19.1203256785081415 -2.7851417528051350 -1.5740173257401870 -1.1441710603429094
80 1 16.2639518498318978 8.8406947449401496 19.0662480358399939 0.1044397899484022 -1.3964205693209457 -0.4323443329994631
78 1 14.1039571167254092 7.6197470695747009 18.9225003104396094 -0.4175556868641990 -0.1962270626255186 0.2834193758385175
25 1 16.9658768008373002 7.5754667266664928 19.0368072630784120 -1.6584418930698586 -0.7916855907492188 0.9651294204591030
33 1 16.9750520822590083 10.0618984011071344 19.0752535982794029 2.0823018762441143 0.7652176150767667 -0.2076452247551657
92 1 12.0364970154897666 13.7402571663550006 18.9495259438593742 -0.4603371197549058 -1.7248974675160644 0.2548858336017256
91 1 10.6175695001951365 13.7476087016558139 19.1251229559023130 -1.5040080798121827 0.8242579627605543 0.7832605902297610
90 1 9.8991991228939380 12.5509926610778013 19.0878635394151459 0.3146461302747424 -3.2550704827714059 -0.6393747564770007
84 1 12.0542567601487960 11.2993382490530507 19.0795493307280033 0.2455516925643362 -0.9000353564296999 0.2162941859339430
83 1 10.6372974798293942 11.3111641730788044 19.1102334970546934 0.9016521949118154 1.6286562483124367 -1.5084802950161582
93 1 12.7601224784387437 12.4499051774255953 18.9595719040093975 0.5844143235723027 4.3680689327158273 -0.2055973396436552
95 1 14.8631989401493403 13.7779509260323874 19.0001776079554965 0.2102750564426850 0.3394969375559000 0.0714154111156237
94 1 14.1978959277650780 12.5570437765037344 18.8656215594647811 -2.5830129432461377 -0.2906609670484820 0.5378884390631165
87 1 14.8647172626446658 11.3559330057865093 18.9248048300528886 -0.0847067193498218 -2.0698799631041713 0.9859202217643633
96 1 16.2840881174686629 13.7431511644168065 18.9106672760875192 -0.1251106609577233 0.1121531914807345 1.8586237905807117
88 1 16.2977345745700255 11.2992248359305698 19.0137179651622219 -0.4506902650941962 -1.2322350174461858 -0.4234086624796811
41 1 16.9856945089989608 12.5289686929964592 18.9847058824148718 -0.1326011060404930 -1.6117902600948182 -1.6568344653363796
