ITEM: TIMESTEP
1800
ITEM: NUMBER OF ATOMS
96
ITEM: BOX BOUNDS pp pp pp
0.0000000000000000e+00 1.7084949165859321e+01
0.0000000000000000e+00 1.4796000000000010e+01
0.0000000000000000e+00 1.9999999999999982e+01
ITEM: ATOMS id type x y z fx fy fz
10 1 1.8053387789618829 2.4090144229536654 18.8098995591156104 -0.2835309611616600 1.3798010509452936 -0.8090343929233825
4 1 3.9189236852177416 1.2055578204184065 19.0718710206560722 0.7278114649105700 -1.2262603819171223 -0.3532805349853337
3 1 2.4813529625709965 1.1519123782239427 18.9697305116433625 -0.0655553943042806 2.7207407348388961 1.0308146495966786
2 1 1.7741564324755859 -0.0365297252798282 18.9840837940184670 0.8671674992062908 -2.2515982575012514 0.2282856914105726
5 1 4.6449912901943744 -0.0213143227930804 19.0062848261303330 1.2468681375617159 1.0581974600076787 0.9556843620264647
13 1 4.6330798860382387 2.4498929508865666 18.9741176385700356 0.4315250221109266 -2.1311588998462532 0.3164983372324272
14 1 6.0626926103553789 2.4258417064475921 18.9803352612798619 1.0319081732817148 1.5257797235861241 1.4663666965421438
8 1 8.1549921027806409 1.1765709993929525 19.1737473626916852 4.1274646051758870 1.5236027077690713 -1.1953677743222964
7 1 6.7844752665572079 1.2137626047867165 19.0035936357537629 -1.5809646901587953 -0.9552912242050238 -0.8780625174286621
6 1 6.1070822571413270 0.0032444388241171 18.9498463750794350 -2.7938030124548905 -0.8764466375768820 1.3685727644933872
57 1 8.9361262832803128 2.4225622174023864 19.0825702878407597 -2.1032543949926086 -0.5547424906805706 0.8788756078640849
49 1 8.9549832359838053 -0.0233175834905993 19.2719201840462446 -1.0627028011982811 -2.6520842205162181 -0.4242095630440967
20 1 3.9554578913851532 6.1121951028171173 19.0321735561655281 -2.0653436529036053 -0.8460501419840870 -1.0658559666886565
19 1 2.5256618608226735 6.1358666997803537 18.8549339979692725 -1.6748155481248661 -0.5443818934054447 1.1262018484572631
18 1 1.7430585197602744 4.9174586315430053 18.8276953368993958 1.4443654127868999 -0.6979595042643337 1.2215102215838232
12 1 3.9614969393603312 3.6894116783266937 18.8385311988180497 -3.7682645558602443 -1.8922259872498348 1.5244608979122636
11 1 2.4694168407215935 3.6759256190945937 18.8386633743840974 2.0667371625538413 -0.1007245205304865 -0.7839232067265497
21 1 4.6819815767106148 4.8775366291414759 18.9546533948397276 -0.5377336976855869 0.1368314337315737 -1.1282395973480188
16 1 8.2343205690550327 3.6437822071889352 18.9454834498915368 -0.8402097429273718 -1.0139103718466242 1.0214606281106569
24 1 8.1987686174435872 6.1027691834593032 18.9136829982075056 0.3989692631945657 0.5118207941136622 1.8041368929327033
15 1 6.7865081079178511 3.6508699748253846 19.0223099726872782 1.7828636602126506 -0.2620692639485360 -1.7947475403104551
23 1 6.7856761435087440 6.0764696816949080 19.0186062055660479 1.4416511078060257 1.1249738895994175 -0.8899652268624928
22 1 6.0922022216551071 4.8471765042122126 19.0061381716132196 0.1178029668822187 0.8985468079235364 1.3095116949788901
65 1 8.9283175674195014 4.8665038908351468 18.9809876864845499 1.5807690195940334 0.3472168376925197 -0.8739061630520857
26 1 1.7791125198132123 7.3631873645027826 18.9521204975301600 1.9963562807951551 -0.0517595410591358 -0.7212317557433492
34 1 1.7870935543613251 9.8220618660140726 19.1310979128523186 0.1883255020741733 -2.0557391191209220 -2.0176748472338559
28 1 3.9343593550983451 8.5958725354394225 19.0353646881084622 0.5538250631822801 -1.5394240490079352 1.1269379182432755
27 1 2.5280035059537020 8.5608827371301306 18.9863435368396978 -2.0574524061004871 2.6214107449880832 -0.3344665508091345
37 1 4.6715920013807963 9.8474530067928185 19.0103458603714444 -1.5713726490592792 -1.9023598511502207 1.1664314290020528
29 1 4.6605496899983700 7.3192037688784657 19.0712382371929188 1.4218861383123216 3.2028875849676912 -0.7723541383343896
38 1 6.0780690641215562 9.8860924222026210 19.0515176685243581 0.9625059065412207 -2.7001396013442465 -0.0281229213862486
32 1 8.1994763592724063 8.6183692256466831 19.0646774573879689 1.5546435368238600 -0.7587221113711757 0.3038274279736730
31 1 6.8070113998606887 8.6381056470971469 19.0267927939714809 -2.7537360412360732 -2.2338696779612675 -0.4416393736766192
30 1 6.0843406958622159 7.3252320862437976 19.0693078461775585 1.5222997214282159 2.2377311653246457 0.4503797604153947
81 1 8.9281785937185596 9.8307124202795269 19.0661081686879292 0.0836064236998196 1.7110290820526688 0.6041039384643956
73 1 8.9251440503398438 7.3435742374372293 18.9999446641385958 -1.8881493959246392 0.0017406635907905 -0.0141737182526200
44 1 3.9458466269663695 13.5545991955548626 19.0702246549479355 -0.3804476434110859 -2.1976129025397739 0.4336994119193529
43 1 2.5440051786030593 13.4920384943354428 19.0219303447572621 -0.7132514220894777 1.1821175677306108 1.0410713320279139
36 1 3.9506378855404662 11.0554738015056273 19.1050352769197502 -0.5427705772034023 0.3945267952213789 -1.8146854302849689
35 1 2.5144261735711848 11.0278397520978988 19.0828138025640044 0.6044854361445652 0.3601423051691607 1.5903013491217159
42 1 1.8249838178930693 12.2661411793607229 19.0493184143181651 0.0218098256201251 1.2908617143590733 -0.7520583913771800
45 1 4.6639724510089655 12.2920017188028812 19.0528925565912282 0.3227057778266938 -0.0378956603028366 0.6953680233497691
40 1 8.2153491883895917 11.0636809924249899 19.1156252080417097 0.4376970148423218 -0.5725302898057081 -0.3588960973141638
39 1 6.7573427038540546 11.0908437294152744 19.0761705467090259 3.1249462667644958 0.9635974104767658 -0.5486102525759980
48 1 8.2000370124376012 13.5470271993106124 19.2172969717378557 2.2855226980149608 0.6943816511595939 0.3113233516803550
47 1 6.7923700464816319 13.6015214031706577 19.0896836968627532 0.6052920233271631 -3.3150501881024041 0.5056069962307336
46 1 6.1030744320214163 12.3318800154285153 19.0430461907553621 -0.1906468911227364 -0.5153491318811425 -0.2237314456612667
89 1 8.9104712415937559 12.2731206350411863 19.1142595825290655 1.9117298844395960 3.1360534011088630 2.0742770246753355
50 1 10.3815682456989400 -0.0935278809505648 19.3042428114635456 -2.0538941260385206 2.1954776202163520 -1.2954583781577507
58 1 10.3132604911798698 2.3913392508769515 19.0147948355861587 1.8709441187558353 0.5841254882438580 -0.2153398499707500
52 1 12.4256583279170627 1.1487780103045857 19.1355187126863484 1.2710096868079370 -0.3881069749954957 -0.3774879690380898
51 1 11.0364496666258898 1.1687457759792075 19.1997398618589266 -0.5274117279767770 0.2506387368965829 0.9439369801664497
53 1 13.1907843010766310 -0.0405474607842485 19.1729879132107008 -0.8692221794637688 -0.8522156475650584 -0.3993387438199946
61 1 13.1362873971877487 2.3847962973923238 19.1154589346880392 -1.3008016149516350 0.3087707381248320 0.0931017224222057
62 1 14.5133785021172734 2.4025488182984414 19.0442783911908826 1.7925807452681899 -1.8433992160814086 -0.7946540485371444
56 1 16.7373146164486997 1.1510552612105627 18.9266733107272991 -0.7341716585106804 0.5230665230384032 0.8102860138837727
55 1 15.3200880370218364 1.1845584496063710 19.0208139658860453 -1.6088619146250531 -1.7504689087966947 0.5232736056910765
54 1 14.6226353742376247 -0.0975915242036352 19.0872503330044552 -1.2301496018050528 3.6898348937309526 0.1776453742083564
1 1 17.4695837705299652 -0.1049758759609988 19.0191125906302290 -0.7153914066034801 4.1245591331855813 -1.7912780408420346
9 1 17.4557418117896681 2.3793983879526954 18.7822091262152959 1.1098462240599178 -0.6627750133949530 -0.4339113778475288
68 1 12.4281984956042439 6.1526763107632787 19.0190419710460930 4.3221136056570852 -1.6094913946856972 -0.7784125869658155
67 1 11.0633523962972848 6.1003102776513378 18.9964176317107878 -0.6882015048628072 1.4224002270518847 -0.4021626955688019
66 1 10.3705410783459335 4.8456931699277206 18.9932111307077776 -1.6159504188562597 1.6126047612877914 -0.2604300524390372
60 1 12.4420837420504853 3.6036670112123295 19.0647494936656408 -0.4346943556248556 1.9942409124751066 0.2080956817237134
59 1 11.0319783667361015 3.6292440759731157 18.9982924426767603 1.7110369882534975 -2.4014735312337896 1.2313751679038538
69 1 13.1683593998951469 4.8629144053812405 19.0232324383261613 -0.1195702113744568 2.4111690759995215 -0.2708482708684480
63 1 15.2735019438050621 3.5828210059300014 18.9663773299709213 -0.8186254987361770 2.3392197874853009 -1.0698339490737714
64 1 16.7144649660843641 3.6097275007157195 18.8118119116988041 -1.6285546191639875 1.6565350561003402 -0.4185580857012758
70 1 14.6059606115700280 4.8984663309097574 19.0032093317894670 -1.2268315906258753 -2.0242591579768683 0.0408545875938027
71 1 15.3422149138143578 6.1152283618630818 19.0564730097946047 -2.4960159763112784 -0.1195334601187758 0.2870467637836617
72 1 16.7121193003634474 6.1471033516161722 18.9749119825329267 2.4205377216205815 -2.4311507816605911 -0.4586668492233952
17 1 17.3670327800595778 4.8892704708570660 18.8688780411032475 2.9462007625694304 0.4423569964589430 -0.5450620684038980
74 1 10.3517184155370536 7.3650449927756476 18.9442959860724578 -0.4815844863765920 -1.4037125052275472 1.2752978984735068
75 1 11.0459818681310598 8.5624122341565467 18.9613387059692471 0.7648296746847036 3.1414951402221152 -0.7556707213698909
76 1 12.5234803150211444 8.5723347048307623 18.9853060255503969 -1.7279661079188855 0.2017749924210409 -1.0789743653949906
82 1 10.3382802598215591 9.8304820234445618 19.0533510833483568 1.4959253854365089 -0.4878010135523356 -0.8037065549057394
77 1 13.2353315417514086 7.3532998049165075 19.0260033544112339 -3.2082946351402768 0.4142911560752174 -0.1052203734455210
85 1 13.2109464784806008 9.7749708323161020 19.0451941636369426 -0.3054251223540964 2.6364171981516415 -1.5964181523053356
86 1 14.6483869748732030 9.7909027825965680 19.0164881204053060 -0.6463031522675237 1.4212079472951351 0.3339979186241198
79 1 15.3484171463069572 8.5730903002679248 19.0691887905338717 0.5298100565709829 -1.3721839215192113 -0.1951988177234293
80 1 16.7448807813243867 8.5847188620883799 19.0146904804910548 -0.9819398991335705 0.1344068029750010 0.6222189998600656
78 1 14.6139032742482069 7.3441456995164875 19.1306486989211493 2.7711633773425057 -1.4500060843265352 -0.9284038103428351
25 1 17.4382344870567145 7.3482346642840168 19.0111665209070217 0.7770927424609968 -0.0636421406098289 0.9828595451875146
33 1 17.4302187821477972 9.8273339036812537 19.0631241994410416 1.8171938120840423 0.9723710889977549 -0.6414311473503623
92 1 12.4954218432843263 13.5073794423968785 19.1909547822668998 -0.7114941623834928 2.0972506186894755 -1.8652611213510601
91 1 11.1132701271323846 13.5249667836827463 19.2277343605121942 -3.1718822095863701 -2.2356831342308907 0.7414740209863646
90 1 10.3779122230506111 12.3093574969895752 19.2239456342590209 -0.6888005070158623 -0.9095694254299084 0.5014645675919416
84 1 12.5116427623237421 11.0538127760887654 19.0832509376780237 0.3886875459201304 -1.6296504126604590 0.2968890161787326
83 1 11.0785503653234869 11.0589880261599784 19.1856859985584798 -0.3837126599370553 0.1929260850135394 -0.3845446695338735
93 1 13.1863424511926883 12.3450843527963290 18.9806328736246108 -0.3234114624527095 -3.0823076186453573 0.2756142219207007
95 1 15.3357084191162567 13.5536684856056091 19.0783515793860268 1.8264529441609807 -4.0385311322554323 -1.3550622491105253
94 1 14.5746020139339070 12.3220947845669162 18.9564335971731239 1.6753099482267637 -1.4535956486098314 -0.1439025905228949
87 1 15.3189594192805565 11.0349730508311126 18.9108687808651510 -0.0225091490130704 1.9387350141676636 0.2827279778159777
96 1 16.8188053630400418 13.5207745522107228 19.0835762191949385 -5.1990429761298671 -1.6170169219522434 0.6338639219557265
88 1 16.7177281060221183 11.0863394810384079 19.0369207038444657 1.3080141834865022 -0.8074555506370973 0.8087200913651398
41 1 17.4708765993580712 12.2760405842507598 19.0983071201564627 -0.4798410391228999 1.5973945374201208 0.3970113314081925
