ITEM: TIMESTEP
3920
ITEM: NUMBER OF ATOMS
96
ITEM: BOX BOUNDS pp pp pp
0.0000000000000000e+00 1.7084949165859321e+01
0.0000000000000000e+00 1.4796000000000010e+01
0.0000000000000000e+00 1.9999999999999982e+01
ITEM: ATOMS id type x y z fx fy fz
10 1 1.2593289158879983 2.2688587307865880 19.4069500516213616 0.5964885953482615 1.5479945348673996 -0.4169967181808141
4 1 3.3604472728304882 1.0637628726646740 19.2536049097849862 1.1372408824873803 -1.0260609558732818 0.0809790234528148
3 1 1.9538003385030902 1.0189396410731113 19.2678504247798728 0.3807481947491228 2.7350877711293897 0.7070397179065155
2 1 1.2758148019857953 -0.2112501688116225 19.1815145278134835 -0.5426760649230770 -1.4935389480070071 -0.8417824027914227
5 1 4.0407781976768895 -0.2167527300486021 19.2814904928774169 3.2135850168448821 3.8278317073201933 -0.4692178272315807
13 1 4.1333574206138914 2.2627167237146986 19.2065725829850678 -2.7385601085820834 2.7270982282195320 -0.1877875822467647
14 1 5.5416910423313981 2.2669234301550509 19.1780217732376954 -0.3958608807283207 2.5163685457518801 0.8464444527164057
8 1 7.6937253753705210 0.9641789632805829 19.1302583335134173 -4.3767522125333542 1.8776401075570757 0.1127966400696538
7 1 6.2300488419873234 1.0464605371878359 19.2162341218047104 0.4454005061791294 -1.5747728290762948 0.7379194279689800
6 1 5.4858400889502485 -0.2334361156832944 19.2375264810082989 1.5106847722358787 2.5434924552844453 0.9284098842221544
57 1 8.3355305831416509 2.2382673654873511 19.0133085982316246 3.2340005345933789 -0.7390723153734109 -0.0981727634194118
49 1 8.3691712489988372 -0.2147554496399293 19.0494212057593977 1.0062936432347431 -3.2291702056701719 -1.0753054816325427
20 1 3.4164167356306554 5.9607331392952316 19.2240879292384932 0.1126642275719874 0.7716137988115149 -1.5880177780339917
19 1 1.9659718415889049 5.9394097228121412 19.2043293328767248 2.1679533115084593 -1.3483943611756768 1.1169909439143768
18 1 1.2339541752307481 4.7337143175654495 19.2555530391692713 -1.0498584220528870 0.4903426014025386 1.2671933717998387
12 1 3.3626316850716735 3.5647787685757573 19.1078055150211128 0.7139861590443383 -4.3162588144026657 1.7543529063688421
11 1 1.9586345024238914 3.5236849062372335 19.3313591342059219 -0.1947096551493298 -1.0049637721865956 0.4024523621232445
21 1 4.1034845345325781 4.7444873862843000 19.2180623190375819 2.2703827114317501 0.7200068722911176 -0.8916108484570591
16 1 7.7313041994546534 3.4793456967137661 19.1464844153971647 -3.0532672282939757 -0.2100896770550915 -1.5075179988622209
24 1 7.6872184896049962 5.9666233378875120 19.0973198605129575 0.3533155662716374 0.8003466821578324 -0.9097129523506012
15 1 6.2525340984283888 3.5359150384830604 19.1642131480573816 2.5790315859270443 -2.7689177222061714 0.8580681229334802
23 1 6.2547836656585529 5.9658537283687156 19.1427070705288855 2.9270705560994421 0.5974519871420756 0.5585578080165788
22 1 5.5559439164077817 4.7475312106277299 19.2285138101473514 -1.0132962115195236 -0.3642411190184649 -1.5283395547060070
65 1 8.3907714697524050 4.7223947928488599 19.1046236873027411 -0.6822750068538423 -0.2240757289151696 -0.7356403520873149
26 1 1.2706062453645428 7.1275960485777974 19.1710365736390536 0.2821886011976065 1.9539882788164042 -1.3096210748877049
34 1 1.2790510416932384 9.5769365356631848 18.9954043298540149 -0.3078268859886629 1.1660271995853737 -1.0986870735088505
28 1 3.4537322741863803 8.3604141881896190 18.9848328913730278 -1.8913596725055637 2.3929551558824689 0.3551380674723237
27 1 1.9998699315525843 8.3430221329557828 18.9660765527553359 2.1512647119041239 0.5527147172983258 2.1223615524216317
37 1 4.1030153123340751 9.6561769823377297 19.0713736004192391 0.1751218298218440 -1.5424004840664129 0.0755605925306660
29 1 4.1629978397473391 7.1663771647765904 19.0960795695866778 -0.2292864651327543 0.4664400362096990 -1.5198013762132221
38 1 5.5036121259828654 9.6645220334054098 19.0645934501560426 3.0047808746095628 -1.2153005663696788 -0.1805071729226788
32 1 7.6457876683149113 8.4142738496781178 19.0368327156356045 1.1978522324208343 0.2469282494571977 -0.1365227481644491
31 1 6.2706035031451810 8.4011308878514726 19.0499961945713636 -2.6690794970791636 2.1549761442874433 -0.2838094119267259
30 1 5.5992400967074678 7.1652243125166750 19.0609291770391707 -0.9693071938259059 0.6429198879268223 -0.2733665621493315
81 1 8.3453752305535094 9.6552096441980897 19.0442880525999705 2.2227071658178401 0.9347576912259735 -1.4384738988231067
73 1 8.4598881441723250 7.1940099928052694 18.9805024894092291 -5.1217614837519791 -0.9129092103811034 1.3759487944856090
44 1 3.4046004358390776 13.3979476302485292 19.2415309282862133 -1.8406646399012507 -3.4067241550082419 -0.4197852365786550
43 1 1.9675323936848164 13.3412373308722216 19.0783476874498561 0.3832242835533523 -0.9462605392714949 1.4133727935714944
36 1 3.3857389039772876 10.8504971317023138 19.1105384824022870 -1.5588304460811120 2.2800527407101310 -0.8957221603394058
35 1 1.9570738932896787 10.8457259371976207 18.9742367638865694 -0.8319851441692820 0.7369343041839593 0.9926695369121682
42 1 1.2618990575678524 12.0931686189302123 19.1148654917893737 -0.7857030132228735 0.3895982238456008 -1.5728455399299883
45 1 4.0946922415396054 12.1270896238930099 19.1825682326815858 -1.7762441648691087 0.6656007709493106 0.4469652572266135
40 1 7.7013857977515183 10.9081942005907031 19.0637329635045454 -1.8803448151959912 -0.3952431063812045 0.4277710206992392
39 1 6.2325983091809087 10.9094591241634848 19.0640031909891405 1.2905992276784399 -0.7976354201481850 1.4647852734300513
48 1 7.6686909256162243 13.2821048555591528 19.0559834130260484 0.5682638894292377 2.8062720618847088 1.1646583531205748
47 1 6.2267501716410285 13.3316275631306436 19.1197628771798342 0.1113444374940323 1.5794887241926037 0.5369705024340987
46 1 5.4930396392650183 12.1145940977185624 19.1117520581932823 2.2100672340587288 -0.4679089372273170 0.0467700019668106
89 1 8.4352139716818009 12.1088500541661848 19.0988515703442516 -1.2367124563114595 0.1769371786694100 0.1125451638940593
50 1 9.8032936569502738 -0.2409530097704738 18.9865802624338222 -0.3227710203615694 1.4854452542294989 1.5641525804391287
58 1 9.7749171731711293 2.2286688966296948 19.0356742643221502 0.9572842745788297 -1.6678990856170455 -0.1715233216111433
52 1 11.9293179103618332 1.0224730057701634 19.2737048890096645 0.4879639202227262 -0.1666239582312627 -1.4033992940620279
51 1 10.5192095286020955 0.9962055129131054 19.0489812119665380 -0.6074556486983165 -0.2396236413002616 1.2227234571113410
53 1 12.6912458471376866 -0.1716669809866798 19.1706681475910017 -1.5376061173183928 -0.2764312912388261 -0.9105828458156917
61 1 12.5977261285229485 2.2671181065865564 19.1220661347796650 0.4952854349763235 -0.4596066284698055 1.7388413593037197
62 1 14.0363004264980393 2.2968064449267409 19.2039237852813827 -0.1409487589335059 -1.6372127364727191 0.9768837256303358
56 1 16.2491208569031755 1.0747790396381225 19.3467181115284745 -0.9154330584150387 -1.0996500005588725 0.0397602061246352
55 1 14.8206515480155403 1.0376710915982208 19.2409102909498415 -0.0652219604604085 2.6382254011895361 1.4184218439708434
54 1 14.1381751806818450 -0.1496189197193894 19.1683078333755326 -2.9548646135812628 -0.2134232659497545 0.7438434055087807
1 1 16.9282215504991278 -0.1914433928294046 19.2517698775213759 1.0463146787701187 0.5773342576961080 -1.1846582228168137
9 1 16.9380664230951794 2.2791719651654567 19.4015775736451523 -1.3936157417879365 1.0774800863606258 0.9145966457957178
68 1 11.9423891555915631 5.9508046098281682 19.0395496303550082 -0.1684563369176071 0.3297859878029169 2.1782415107369144
67 1 10.5204743974447226 5.9390726340960125 19.0821175552927365 1.3893917646080092 0.9794015420115441 -1.5504527180740046
66 1 9.8025148084886080 4.7082856887648310 19.0701368323751801 0.7837633357207103 0.6294159798649839 -1.1382728261281962
60 1 11.8806838995162831 3.4809807834825981 19.1102370368798624 0.2269276898406397 0.8864997667309404 -0.7480286481792771
59 1 10.4438961292390857 3.4651054673107620 19.1145009450912049 1.1386143412553951 0.8664976001206409 -1.6762123558888735
69 1 12.6256583662330684 4.6808239127518600 19.1226041438918912 -0.2277188991770606 3.2500374339376479 0.7702833359544674
63 1 14.7741953244007238 3.5174918584437127 19.2903415883081699 -2.2013649330202849 -0.2621177343506192 -1.9782936450563615
64 1 16.1708959835134394 3.5211769947200797 19.3524177439771883 0.3058425340530617 -2.3561497049394240 -0.8497085234250016
70 1 14.0721671531741883 4.7455916886583482 19.1384183655574454 -0.6491093472623183 -2.6874955213192147 0.5912134532860527
71 1 14.7646491728079230 5.9548095802043886 19.2284810146843519 0.6428988594833468 2.9078658136525064 -0.5135101058194690
72 1 16.1692842513283530 6.0036908735594103 19.1551837098267903 1.0946327363005821 -3.1345381180841949 0.3775825856300528
17 1 16.8696067838132784 4.7312104581676477 19.2881911497551357 0.2163042031253301 0.6243518441646886 -0.5941192431672561
74 1 9.8117171136079442 7.1936809430856510 19.0200589572639878 3.0207335994351099 -0.6760372224838944 0.1110685293017279
75 1 10.5062399776189199 8.4207625096865240 19.0782747236883345 -0.9452791003708472 0.1428998110256368 -0.5506794905193269
76 1 11.9330043476749275 8.4459592710652096 19.0892469414150874 -0.3960839946914398 -0.3335373063674282 1.5361146831866230
82 1 9.7882889027368911 9.6434946775668369 18.9868425232809379 -0.0157078650334019 1.4602295410720609 0.9639444927836573
77 1 12.6300441069693719 7.2119707121874681 19.1695088569709142 -0.1211716957897649 -0.0186991937910650 -0.2134683343147854
85 1 12.6110551009239327 9.7105337567780996 19.1148803197811041 2.8759280880822358 -1.5020805596392579 0.4351353926785850
86 1 14.0725165549983284 9.6515141720839406 19.2208025243682705 0.2785824709206833 0.3070340135194629 0.8973996194742724
79 1 14.7958976859465903 8.4429841929232960 19.1746287800223030 -1.4576116164082356 -1.8443146563885162 0.1333492513367427
80 1 16.2286432642641145 8.4009317723181827 19.1773010370725565 -0.6428536927383232 0.5292771194882568 -0.1009595666329001
78 1 14.0625241403049568 7.1928079611470279 19.1657413424583538 0.9397825954088387 -0.2365453185841888 1.5198759722357753
25 1 16.9629396819776304 7.1728052908013522 19.0668425031558009 -1.2204708818794647 1.0747209743235571 1.4016713138919312
33 1 16.9569835564411520 9.5908019308791950 19.1632971740090738 -0.1839269291284163 2.3898983727891183 0.9473915593809199
92 1 11.9668154918055905 13.3887919880847583 19.0679244540518447 -0.3381703742914069 1.4380928719509014 1.5107252073500033
91 1 10.5317875524196740 13.3220524678015533 19.0855171124960030 0.2375687094422938 2.8002642499675239 -1.6833606608402500
90 1 9.8773316066419188 12.1278692756787372 19.0901314374661588 -1.3859962326345845 -1.8858481358540584 0.0671871611259761
84 1 11.9231557685374874 10.9502140451010241 19.1521013240605491 1.7334318350218370 -0.2017933380234233 -1.1999938869404496
83 1 10.5439124330757323 10.8901114190973356 19.0774892753091088 -1.9638607983413723 0.2838807408493995 -1.3334601532942822
93 1 12.6795248082149890 12.1956545757477137 19.0978623352274397 -0.4683707804902639 -2.8784024530152998 1.2543627820580114
95 1 14.7940731851961527 13.4194210494048356 19.1611125913671714 -0.0042289276462941 -2.8748984494071408 0.7497772765257672
94 1 14.0554828364822164 12.1763659680725471 19.1764692198883715 3.0886493592627802 -1.0908881562178214 0.4499860308358915
87 1 14.7992556983991914 10.8862135276415319 19.2529798391893046 -1.2309498925264408 2.3853909330004677 -1.7187417913412046
96 1 16.1949665680822719 13.3583774247710618 19.1420367868769361 1.8820618985273541 1.4154945397248757 1.3803855414822326
88 1 16.2310077535660930 10.8703866628433197 19.2207578589105204 0.2366473222611069 0.6177602275461382 0.5644681797767357
41 1 16.9240341183764755 12.1358140636739851 19.1929465481362200 -0.5643407778214816 -1.8300664700002343 -0.9719586676407844
