ITEM: TIMESTEP
5300
ITEM: NUMBER OF ATOMS
96
ITEM: BOX BOUNDS pp pp pp
0.0000000000000000e+00 1.7084949165859321e+01
0.0000000000000000e+00 1.4796000000000010e+01
0.0000000000000000e+00 1.9999999999999982e+01
ITEM: ATOMS id type x y z fx fy fz
10 1 1.5146804392333872 1.8677035167346305 19.6319910577984444 1.2978886936965424 -0.2777317326114431 -0.6812162583747774
4 1 3.6345929326446282 0.6384567119832841 19.5976311801037291 1.7426256840150471 0.2353817799720948 0.6650631780234727
3 1 2.2529099364233223 0.6451599019218857 19.6492654798500688 -2.2856878082615326 -1.9301790390247939 1.4038291079632919
13 1 4.4009622734263401 1.8844565306503607 19.5966672066871048 -1.4709192877624344 -2.2041750339992214 1.1117399812654638
12 1 3.7330973586716580 3.1111585585096844 19.6207486985041015 -1.8492815739259245 -0.1510971563517993 0.3893825174706338
11 1 2.2535837242560244 3.0640204261098201 19.6923397963657365 2.0331037386793369 1.3655311768110310 -0.5150418216639242
14 1 5.8021007641201274 1.8467005852377589 19.6510762231383218 -0.6296845252394457 1.4695109667148150 1.3359675122771031
8 1 7.9330254334274031 0.6401170110376574 19.6635235756670497 1.9854584499110659 -0.9556779939818618 -0.4573795931317584
7 1 6.5399903928247287 0.6745745009711244 19.6605346503150997 -0.6640213366265327 -2.8394441202041234 -0.8823932359852421
57 1 8.6779208216640349 1.8532106128416761 19.6806815152204493 0.7852606090812273 -1.7696853107373500 1.1149693160806236
15 1 6.5320699809326950 3.0773769219528084 19.7710120127479776 -1.2986739767268085 -2.0359377797433851 -0.8787141667929352
16 1 7.9604926351635363 3.0379676072997248 19.7122479574144158 -0.0813685292613177 3.0508405719603235 1.0302317604582818
20 1 3.6978786994575628 5.6025032455324295 19.8096654914629724 0.0945310728909678 -0.7121963351145376 0.0765128484170590
19 1 2.2358805843163974 5.5363264352493564 19.7418751954041412 -0.0057661132624878 0.5071918094646828 -0.3341934307611879
18 1 1.5286307208346985 4.2852786601138950 19.6437182139874196 0.5653211382767476 1.3468109561102997 -0.4572362044402630
21 1 4.4139392053430910 4.3655394111366972 19.7376074732474756 -0.0587737149709961 -0.5550953166127628 -0.7305925716516155
26 1 1.5026160167991847 6.7810139572689172 19.6007200431885700 -0.3279851438879720 -0.2904865313964482 0.8598297195360508
29 1 4.3891607464583720 6.8304505948390775 19.8020669077434199 -0.4117690297953981 0.1871836885917828 0.5952052157876520
65 1 8.6591631516337682 4.2905247517394560 19.7676666929648448 -1.2338217658967288 3.1387243999177392 0.9511457527043248
22 1 5.8194735461942333 4.2854579921260161 19.8310174652934101 0.3615669045749758 3.3421571594449917 0.1037983871493639
23 1 6.4936012902352012 5.5703011908720601 19.8900713226458770 2.4272729718625996 -0.6898983646707779 0.6829794060569809
24 1 7.9460363927088267 5.5920410283328028 19.8021407971921874 -0.1585030723699900 -3.2673476217141850 0.6472392767042675
30 1 5.8181605925585060 6.8388506432099616 19.8761026326089834 -0.9420032529759801 -1.3264024072686147 -0.1422649811435793
73 1 8.6490195506113281 6.8179173555309633 19.7977621675943851 -0.6377382561804645 -1.1598294173348989 -0.4844684152894782
34 1 1.5265382655233342 9.2669010977725534 19.7172414527585786 -1.9614082164996038 -1.0585518839182815 0.3186734082176196
28 1 3.6707662047544023 8.0655033688582378 19.7527648097627022 -2.8129618353732786 -1.8570883944250716 1.2241904270231483
27 1 2.2118346847026671 8.0159414210433404 19.7171566445818343 -0.2027246205360502 1.2822701738887223 -1.5656886773013250
37 1 4.3610704051074842 9.2494082806961835 19.7789443331758150 0.1302702011954218 3.4442202201928160 -0.7667948407227860
36 1 3.6093502410904050 10.4986278249017264 19.7234731414206195 0.6900627227640482 2.3274588767844540 1.1181475157808036
35 1 2.1899974761416607 10.5502999474529329 19.7824158096999909 2.5019779400976123 -2.9817073500136857 -0.8996668368584101
38 1 5.7774203878103023 9.3013916296296220 19.7036777770304141 1.5777383566403653 1.8504753366308684 -0.5877247738115330
32 1 7.9069954843977373 8.0251629473444428 19.6963002403153098 1.5920620397252916 -0.0705603071709364 0.4472658886724084
31 1 6.4957562274870471 8.0721003333306207 19.7681720549555529 0.1142955082355104 0.2201101347750521 0.7660190445893225
81 1 8.6231516848379446 9.2641664237863388 19.6167644422364269 0.5036708061002891 0.0090257576112900 -0.4808479543804872
40 1 7.9509841471195042 10.4786480255791830 19.6431222119806357 -1.8656331734970770 1.1722293630932938 0.1526719904836676
39 1 6.4796404884196113 10.5838723549995564 19.6743912027579277 -0.7195623247475218 -1.4806668451237459 -0.9006030394277080
44 1 3.6866664945297094 13.0019703243503173 19.6440644371663922 -0.5030493254426307 -0.5762784675595574 -0.2099862769541987
43 1 2.2553679811147824 12.9838563054413569 19.7985754833670597 1.5891968191876651 0.1860558919200271 -2.1869607629030527
42 1 1.5414797572373753 11.7779609885814907 19.7493485169889240 -2.8757711794311920 0.3507206793755585 1.6638119190266818
45 1 4.3552159085137889 11.7630471049211245 19.6609055403571915 -1.0679539171974175 0.0782938567974406 -0.7307147813003164
2 1 1.5521933527233434 14.2053920729419154 19.7329326183850355 -0.9295675250582167 1.1568737737973935 -1.0188688059907449
5 1 4.4173104648427266 14.2336979650568711 19.6072285787185905 -1.7996688292021763 -0.9868924552590332 -0.8845304456062870
89 1 8.6750945237872301 11.7104613397538184 19.6541081639680790 -0.5279567360973447 1.1120158271967056 0.9662584590213459
46 1 5.7502764515782721 11.8051331384933587 19.6240538402400730 3.1747796422040833 -1.0597317810911715 -0.3054256240853547
47 1 6.5621718976496153 12.9743159255396776 19.6302559959817877 -1.8089390002068155 0.7187578349592016 0.4336456028423838
48 1 7.9678337688669716 12.9713104423387851 19.6451823254302909 0.0378928979431260 -1.9528860379112329 0.1849280137083198
6 1 5.8316384144546127 14.2094398233421604 19.6516945435453785 0.3093407053583117 1.9048602571735034 -0.0414665726037834
49 1 8.6288312179512250 14.2053318169299700 19.6909329898763552 1.7700157622211639 0.1157059275995963 0.0611645457928454
58 1 10.0874403339596448 1.8347168790994552 19.7684734143556291 0.8151875603406784 0.8497591324210434 0.7568440357951642
52 1 12.2382207090763657 0.6518479692298272 19.6631726006505367 -0.5141411151771853 0.8426179388070372 1.7275642324970644
51 1 10.8107315484307698 0.6363498155926947 19.7108481250333298 -0.5617832845244943 -0.0717222757017686 -0.1926288643430379
61 1 12.9496987466207933 1.8416909486972883 19.7054992084484830 -3.8862668692700888 1.7573933701829549 -0.6873850357928040
60 1 12.1772419424203324 3.0671066211557529 19.8262848063873172 1.5668930563937322 -1.3065648158118681 -1.6875317464905408
59 1 10.7670867452391228 3.0797217949287217 19.8926110466991410 0.8333149826192003 1.8718252869794947 -2.3588690397196412
62 1 14.3112622282646189 1.8373187108791169 19.7376995302857203 2.6904872864544762 2.3047282709583987 -0.4665396853050322
56 1 16.4916187826965093 0.6062661731246404 19.7406695950517026 0.2185833913568914 2.3504034580896311 -1.4632617674615374
55 1 15.0491457831669031 0.6518775058649992 19.7328752946376476 -0.0700974614190004 -2.4495048041945022 0.2381160838257304
9 1 17.1684430010911591 1.8785731548689910 19.7131557460709992 1.2648570848600647 -0.9284101412604389 -0.1506841864582193
63 1 15.0108548443776044 3.0680292024202060 19.7299098531913657 0.0130609886558505 1.8928612062633898 -0.2366494355929707
64 1 16.4066926395394503 3.1155874636895318 19.7626589070888095 0.7334403112493972 -1.7501427523422932 -2.0821704655543520
68 1 12.1829927296452762 5.5443998624608728 19.6809517719273011 0.0565681148974039 -1.6395092039602468 1.2211846502572694
67 1 10.7604405818822091 5.6162957836167839 19.7515338650663210 0.4209331190638793 -3.8443214738087730 0.6693190868538245
66 1 10.0479794564630591 4.3322353345453957 19.7818071346844135 0.8999657969061057 1.4169423903794169 1.5662048007625655
69 1 12.8978152301602460 4.2812875821884822 19.6963667007207235 -0.1301482475290778 1.5018642625751044 -0.3229308723972898
74 1 10.0821859827231570 6.8344147175489072 19.7347553092989116 -0.1683597159873955 -0.5610327428462518 1.2195970765603839
77 1 12.9061115945212652 6.7491650513183012 19.7258648610955163 1.2346888279995119 2.2354109243239728 0.5360461766235832
17 1 17.1557046589865863 4.3253411838179581 19.6018618156016018 0.3255888895344859 0.4880792937905596 0.8806906645562723
72 1 16.3932914226920374 5.5889806891077916 19.6139360242365264 3.3070487667987214 -1.5568712371519007 -1.3760314642387623
71 1 14.9964047752357601 5.5375374610617039 19.6575003059093731 -0.8538728246707603 -0.0953044867392833 0.3696817618817795
70 1 14.3066161682294588 4.3026543570464968 19.7229322834714402 -0.3706238042046138 1.2710432529748761 -0.9903885329893796
78 1 14.3349024621646208 6.8101333620530591 19.6353616447359798 -2.5556501253445845 -1.5348332327559044 1.2638560946127673
25 1 17.1692514008401069 6.8123464062547816 19.5502640215979824 -0.1395761551251182 -0.5579619735720276 -0.2169877754689518
75 1 10.7844005636969023 8.0406603691507907 19.6842384574791289 0.3367641942787645 -0.8336216014423770 -0.7758459883356069
76 1 12.1964707972748467 8.0221752066718626 19.6862735068634720 -0.0216611095297313 -1.0922678711137777 1.1261167834151617
82 1 10.0755392825739669 9.2669442526500205 19.7136149360340482 -1.2405517860209980 -1.5004324768567812 -1.7068278480145529
85 1 12.9139324561688085 9.2670693380504492 19.6952662916057335 0.6775708715380452 -1.3446524837506935 1.1287512822256718
84 1 12.2282726627428247 10.5116052337270975 19.8007147943103377 0.6375371070474588 -2.1472922189351760 -0.2386971019777406
83 1 10.8151617760040040 10.4642627583334438 19.7822751753014430 -0.2949061527179728 1.5147758746628275 0.4701530063781319
88 1 16.5113524056632244 10.5455317229820107 19.5536034191346566 -2.9341628793789813 -1.3663832354233754 1.5637240035200897
86 1 14.3368015353051899 9.2882145135469401 19.6728756802444380 1.1823593741535969 -0.2102034302148692 0.6982747596162358
79 1 15.0296889714756929 8.0104603561104586 19.6729872661536938 0.6206115737206381 2.2529438392342622 -0.2702195126787539
80 1 16.4444977407516433 8.0234413727228233 19.6660408679509970 0.7764109541691859 2.8722616360040352 0.3988893622924491
87 1 15.0246821285067398 10.5517344456919293 19.5726901756609770 2.2287897309821529 -1.6781037297585932 1.2235598400529217
33 1 17.1691435227484810 9.3049307029097754 19.7051029679573020 -0.7544116736838888 -1.6323452943852703 -0.3070309113598526
92 1 12.1812551247563317 13.0026497380240507 19.6569755023202291 2.4255254291288511 -1.6547476749746597 0.7365919189559575
91 1 10.7722894914392757 12.9414642512724907 19.6811173807061834 -0.0561971908732818 0.3189028350781656 -0.3007597010135045
90 1 10.1056099612303303 11.7135141264590743 19.7811749079538437 -2.3267618305521176 0.4708582412149396 -1.1824880536701246
93 1 12.9517890437880681 11.7188798601059911 19.7195880433072723 -0.7922682171785654 3.2879700437893002 -1.5116559178408184
50 1 10.0947892833553823 14.2080967480027880 19.6575380356533671 -2.1824946010395321 0.3598649036936719 0.4198592901140208
53 1 12.8824383903882751 14.2205287896467532 19.6900407280474461 2.7923089746790870 -1.7945546652740965 -0.2504792020616982
41 1 17.1691582274701453 11.7591212976268107 19.7516613849523850 4.0283304539756672 -1.2962131319442955 -0.5954704044456576
96 1 16.5191446560790141 12.9659382953184501 19.8211104576510166 -1.8001553871837930 0.9440124606914146 -2.0395795086449025
95 1 15.0731812909881224 13.0045066059369070 19.7560576328574875 -1.3109859179825409 0.5507245251023042 0.2567448152096857
94 1 14.3713637679598527 11.7549103885153752 19.6340519927989448 -2.3806059972919860 1.4798052774761914 0.1535479458109775
54 1 14.3474793122278861 14.2371564607987153 19.6948849458712303 0.4098651660621396 -1.6673091008806054 -0.0690862997169526
1 1 17.2195137912837737 14.1851960929423200 19.7464697196504915 0.8096658102700423 2.0265405768141562 0.9905880216284680
