ITEM: TIMESTEP
2070
ITEM: NUMBER OF ATOMS
96
ITEM: BOX BOUNDS pp pp pp
0.0000000000000000e+00 1.7084949165859321e+01
0.0000000000000000e+00 1.4796000000000010e+01
0.0000000000000000e+00 1.9999999999999982e+01
ITEM: ATOMS id type x y z fx fy fz
10 1 1.7386827830457994 2.3507068470644166 19.0963258248011911 -0.7396763143387237 0.8115609811561775 -0.2626056673305611
4 1 3.8606823499190774 1.1077012549978400 19.0682655483003778 -0.0479107121230842 1.5836860189298489 0.7940868930762898
3 1 2.4403203704912153 1.1135534749652063 19.0864129820407520 -1.7060367042965459 1.4949333191063896 1.7920036774432528
2 1 1.6860254216799122 -0.0799398064837821 19.2214629760391098 -0.2834642117060736 -0.5466950628633016 -0.3699117421670118
5 1 4.5511210815059373 -0.0985171301258581 19.1434810800603650 1.7339164803984259 -1.3673141207145543 -0.9972203974570346
13 1 4.5575548467870561 2.3468025195493669 18.9944225088483876 -2.5671408809843057 0.5875064857024377 -0.9703349569563177
14 1 5.9342510538060935 2.3523799762492317 18.9408740123970070 2.1855108655185651 -0.1096779936212003 0.9463854260868091
8 1 8.1263214180193533 1.1840357575053959 19.0834913247432816 -1.6432542942675252 -0.9363482978118320 -0.0419734532269487
7 1 6.6854933272336634 1.1443049700947434 18.9704793689932956 1.0945657045107162 -0.1278197348908062 -0.1629006215674066
6 1 5.9739266540703095 -0.1343761725586042 19.0019715728931295 0.7288882727888991 2.2443755885258945 1.0115615734415901
57 1 8.8537768746857282 2.3736966928646983 19.0521609691082752 -0.1229013372732621 1.7022877157985583 0.3878045716801908
49 1 8.8176593551398028 -0.0533747521724860 18.9712149692103971 -0.1389934129385508 0.7677593034219887 0.2748732120604732
20 1 3.8543431986431771 6.0571586158926145 19.2678949032585010 0.2433092150041652 1.2604371287899006 -1.7659031359593993
19 1 2.4306969600433250 6.0863504286164138 19.1488485250487130 -0.2172397165739622 -1.8274188845531527 0.7466083199637835
18 1 1.7448102801114400 4.8327780085628946 19.0758697197362999 -1.0025000866118579 1.0847912824102468 -0.4794648398682003
12 1 3.8138111284340330 3.5766615293849364 19.0557661161088312 1.1072159414893703 0.8206823282880864 -0.3373212983846545
11 1 2.4056719975168628 3.6040943106054293 19.1022094731478518 1.0107417940598042 -1.6743955495795539 0.0318883253598887
21 1 4.5270568749065605 4.8032721478331410 19.1247351914846426 1.6734882189127469 -0.5040249684212966 0.1892011936639179
16 1 8.1344768912096246 3.6219510463091469 18.9357303430822199 0.1254192701566060 -1.2618826430526990 0.0118577820029078
24 1 8.1611660044829293 6.0722639243189240 19.2146287877138597 -0.2288236619747481 0.6662544834940660 0.1720883221962203
15 1 6.7311956667504864 3.5674108812544945 18.9410662664311857 -2.2163774056664036 1.8420558161230582 0.5454708380769622
23 1 6.7287641572212982 6.0828221367586419 19.2155359549099458 0.7969274711369407 -0.1814366446591158 0.8923487874461151
22 1 6.0103260203540136 4.8482947619892638 19.1664884637287152 -0.8093200882555227 -2.6207190584464755 -1.8301542198368672
65 1 8.8662939065969031 4.8513929631285881 19.1010581586073478 -0.7075902888435578 -0.6804972151258384 -0.9839096937185925
26 1 1.6614125322699698 7.2538242347505344 19.2401538299405566 0.3074451324729910 1.1713194870240589 0.0358727390714866
34 1 1.6898474599981337 9.7521885421585210 19.4163672169337147 1.0722863683573081 0.6326964993341222 -1.0241575883707776
28 1 3.7816789230792636 8.5170232795673950 19.4060829235599606 0.8420214118057445 -1.4601774449583464 -0.4721392780210072
27 1 2.3555375571496251 8.4617861771262532 19.3212041244066306 0.9006713391979089 3.0527009702283436 0.0154898476609073
37 1 4.5387844847948919 9.7334230587437407 19.3186186433208498 1.6174472002932325 -1.1652010312367598 1.4465852028647270
29 1 4.5621986245449326 7.2876621382977866 19.2559869549320020 1.0942955614270622 0.6299677936988896 1.4153524593396047
38 1 5.9831644918659581 9.7521395604838048 19.2525235252050670 1.1073364133034427 0.7173528890798939 -1.3858907531633928
32 1 8.1516501907446841 8.5609904982749381 19.1206397183931891 1.2764713569419053 0.2414937698408042 -0.3118798405182076
31 1 6.7618873498307490 8.5502188629170277 19.1446074070396222 -1.7034433956547539 0.0020072162955507 -0.9123964985864312
30 1 6.0231145766905856 7.3344243269849301 19.1654592718680910 0.0111611139318583 -1.7392733639199605 0.6558164415436796
81 1 8.8618892035589703 9.8194054914254814 19.0854603579319644 -0.7460362210301601 -0.9133615117962759 -0.1745887304825393
73 1 8.8867098621455654 7.3246293658669615 19.1770743652442306 0.1149256302572982 0.9887763738108657 -0.0023391614300028
44 1 3.8823586010586491 13.4470268898166285 19.2010806586158260 -1.3603932653476007 0.9388033395139348 2.1543297161906585
43 1 2.4363864450239183 13.4597466316303613 19.3036393882033401 -1.8268087182067863 0.5818857472038541 0.2030268691176232
36 1 3.8298712535449813 10.9652697609764900 19.4239769825896360 0.1702254888407235 1.2612822171109701 -0.0462781882462817
35 1 2.4234968544023676 10.9714555118306496 19.4171103488522334 -0.5915394750575329 -0.4993646221557311 0.1852383718915721
42 1 1.7269432598483314 12.1894050018782600 19.3416489152229119 0.5791133455282125 2.9199496171943027 -0.2588601189959197
45 1 4.5150640123213970 12.1832188521186744 19.3218944488781368 3.2930038360424656 1.2926137822394066 -1.0851309567154499
40 1 8.1460181659371322 11.0160786615163602 19.1379010150120230 0.1469736537891697 2.3013076168461808 0.6117655631959095
39 1 6.6892702019427954 11.0332971045340944 19.1926984792994162 0.5018372144324930 -3.5601143068367511 -0.6035598713461914
48 1 8.1313301264202114 13.5042390436972415 18.9821738838705372 0.4146744451766237 -0.3656355996010334 0.2908148565123457
47 1 6.6974205779953104 13.4766814188628761 18.9904101113024133 -1.5663634800609081 -0.8432704320659001 1.7254892890069060
46 1 5.9810795122532232 12.1945729991120668 19.1349195915007151 -2.4019237569939280 3.6903610182939799 -0.3456623274916192
89 1 8.8784470100154511 12.2537039218419608 19.0824972317113435 -2.6436892202529503 -0.4170700112301549 -0.9032273465698614
50 1 10.2399768616080600 -0.0650326567733989 19.0196160280491604 0.4160227260637294 -0.0847197349743780 -0.5305553651943615
58 1 10.2553202025886598 2.3311343002173635 19.0267108858943530 0.9967242004734743 2.5944288296501390 0.9144610502769759
52 1 12.3678985228587006 1.1500026111193051 19.0619977285068174 0.6010387080303092 1.0950537164000338 0.3034998860314403
51 1 10.9393451676017417 1.1269800890643735 19.0265413648421955 0.7185732044415836 0.3981935291854896 0.8102779434068250
53 1 13.1183432774514266 -0.0275710744899881 19.0548984299353812 -0.2371052855378240 -1.2106422870382010 -0.9954105452382249
61 1 13.1073762935977385 2.3889230861787092 19.1672831118092866 0.1426891742733339 -1.9636242456329305 0.0069595920023139
62 1 14.5578959478468040 2.3989264799561765 19.1876220237403068 -0.9187112310088913 -0.0218932981533975 -0.9313469779177557
56 1 16.6395879008818248 1.1473201118599385 19.1484371854276354 2.4755841721132104 0.2972960064372642 0.3036085029599104
55 1 15.2468623853215650 1.1383459831623934 19.2438391213072570 -1.1156473246521517 1.2879010938645563 -1.8025100124465454
54 1 14.5352649693995524 -0.0653705277469762 19.2353082688233279 -0.1861337409186643 0.7087370713595111 0.0186348951779638
1 1 17.3288734134976643 -0.0648911663922061 19.2695739634337997 2.1982633292060250 -1.6908634491717878 -1.2263001730716545
9 1 17.3982251579753822 2.3929660617729787 19.0762257382573317 -0.6443362331855835 -0.7071612126192715 0.8115056564624257
68 1 12.4115253476902563 6.1123890797855625 19.2307225165204763 1.2476603796915973 0.6035157274946874 -1.5050512739273585
67 1 11.0126089494819190 6.1337625813543184 19.0710270897394061 0.0803821933770268 -1.4383393640060260 0.9184660970888493
66 1 10.2896312173082389 4.8356662428041428 19.0795209581536476 -0.3460384296670867 1.0477739052790416 0.9310635237313026
60 1 12.4126720483752138 3.6039206156330490 19.2316552467646780 -0.2921922054290436 1.6558493371567875 0.7637997334543045
59 1 10.9784334618433022 3.5628388732681713 19.1193629240115115 1.5376943599180759 0.3636031950220711 0.3289185540714147
69 1 13.1381556126319445 4.8821721330674164 19.2773181748435505 -2.5888703380307638 -2.0176988561421982 0.3022226851095735
63 1 15.2224399213194950 3.6217159464722530 19.1562461828155080 1.2650217752971988 1.6419910865522154 1.4043211055349456
64 1 16.6768783557334039 3.6828369251441440 19.1135685949951757 0.0243241377483960 -4.3646797275093725 -0.7802338492304994
70 1 14.5434618005098635 4.8862577051224889 19.2520149951692225 0.0593688874249055 -1.9630972162380900 -0.1322993032455541
71 1 15.2491148020920875 6.1000323534493299 19.2318124375504134 -0.8613744264463177 0.5605277008576959 1.1031734234490247
72 1 16.6759253141139432 6.0719061950273989 19.2626233127288984 -1.5694618743839350 0.3407388443224674 0.6767172746424323
17 1 17.4131625910447987 4.8756491622881448 19.1814445338820221 -1.7650923248651513 0.5428214294948819 0.3603285287527980
74 1 10.2972503255935983 7.3434986781496701 19.1446936514870210 1.1575927437568438 0.2966640281126427 0.2956465319155703
75 1 11.0331840634053115 8.6315354435208995 19.1102675344237909 -3.1074972687387072 -3.5453491350042152 -1.0198759901681562
76 1 12.3952960856432188 8.5939038245638972 19.1691586132889782 2.1475039250851160 -1.9185229564227546 0.8463058972423464
82 1 10.3118498882999194 9.7871113235383440 19.0879984227114896 -1.4575720952201539 3.1132675584392344 0.7191491774833458
77 1 13.1082801864962910 7.3479326776740992 19.1457874509731241 1.2252606784058035 1.4347936836227861 1.5453090936798839
85 1 13.1143719628805933 9.8016166957526494 19.1767018003010747 -1.0241849016062101 0.7102883355684497 -1.1800148505865713
86 1 14.5269070589070832 9.7745588019616800 19.1903392790768343 -1.1701015126930152 2.1147027083154009 0.2024456987904103
79 1 15.2524597925594652 8.5623408109664005 19.1657670050866820 -0.7363358509222913 -0.2477199838811407 1.2961980485099087
80 1 16.6859493916856181 8.5529407220936360 19.2663428369601633 0.1016865104546082 0.8169755562305980 1.2047950194309678
78 1 14.5223749115353638 7.3448899207689688 19.2319795270140972 -0.4183076033257404 0.7846540906872024 -1.6037273518388253
25 1 17.3623235799805471 7.2996968570229219 19.2267943439242970 -0.6394057580803325 0.6801033850868468 1.6999021305026374
33 1 17.3963625096510448 9.7686595063531954 19.4420787268199753 -1.4105225438894546 2.1877938641020171 -1.7882969574348873
92 1 12.4066771354788834 13.5430314474645161 18.9409405014678001 -0.8638177600899184 -1.0541816233435002 0.2391693357027531
91 1 10.9634894873225441 13.5070992807880383 18.9977506618168910 -0.3320530060844769 0.1240074510241382 -0.7756840583981953
90 1 10.2715284215977736 12.2632280651981524 18.9798019890637981 1.8148135760377238 1.0195282602739428 -0.0147270430984632
84 1 12.4110926089366327 11.0416395650234254 19.0356509561024652 0.0776650392668637 -0.0159564348728476 0.0507965274241040
83 1 10.9867968874897350 11.0489406588495633 19.1128329878261454 1.2089327022442573 -1.0986284279125378 -2.4486908964410379
93 1 13.1013526080553966 12.2753958427185541 19.1145612772124380 0.0410324874539645 1.6996052136480029 -0.8952170507237236
95 1 15.1980618666699598 13.5053367298833251 19.2469412421321344 1.7172917253486606 -2.2088221605769940 -0.0869839546228672
94 1 14.5461591494568108 12.2672458476776356 19.2347515117991641 -2.5992339559751736 -0.1270930886862671 0.5996887895080908
87 1 15.2063621460323048 11.0233418989957226 19.2952078311123287 0.3933290198108395 -0.4257456877186629 -0.0958043946121881
96 1 16.6470932703495684 13.4342200885281997 19.2950322518677666 0.3764040396143503 2.8673623861066302 1.0161593164432503
88 1 16.6262225919007349 11.0460829076422531 19.4406446474119257 1.0302921553252218 -3.4231162356459746 -1.1251518877657167
41 1 17.3898105066312993 12.2248215971889564 19.3303970693748859 -1.6121708614919295 0.3512656415540125 -0.1209599434390340
