ITEM: TIMESTEP
5790
ITEM: NUMBER OF ATOMS
96
ITEM: BOX BOUNDS pp pp pp
0.0000000000000000e+00 1.7084949165859321e+01
0.0000000000000000e+00 1.4796000000000010e+01
0.0000000000000000e+00 1.9999999999999982e+01
ITEM: ATOMS id type x y z fx fy fz
10 1 1.4375359408876804 1.9403213532943406 19.6001288953863586 1.9009429455519455 0.3864644805614253 0.3993065841224275
4 1 3.5946584139497424 0.6885861429100339 19.6999482984061274 -0.4914346126861771 -0.9531060384845900 0.9394432196496814
3 1 2.1666263107741894 0.6907624479631193 19.5929489263066401 -0.2972355784844783 1.8063989535335900 0.4096656612115234
13 1 4.2906342747323496 1.8946021412928336 19.8043364699087547 -1.1968730207726650 1.4839727644994700 0.3172245196641391
12 1 3.6120186863644150 3.1757006312907925 19.7937071325771576 1.4550874393505406 0.5683140425131241 -1.2180976865704811
11 1 2.1951660163436157 3.2030411171383828 19.7501429220126674 -1.4629036460112395 -1.7929849335065842 -0.7679930215050755
14 1 5.6567656236510357 1.9103999851587870 19.8711614609395575 3.6091736213524923 2.2601107299577974 -0.8716259677038828
8 1 7.8574082111955299 0.7205251631991572 19.9642315929189955 -0.8430748839522973 -1.3375057719748324 -0.7055024137481376
7 1 6.4206467613224687 0.7225095653050003 19.9437685596911791 -0.9280990448933837 -1.2608605870156127 -0.0573300511569932
57 1 8.5297685013086717 1.9392765158610112 19.8539038607289378 2.7297741906667756 -0.4335459862674760 0.9853231485539269
15 1 6.3788033569057063 3.1598120186881622 19.8299910737696656 2.7988576795766384 0.4782178558865772 -0.2031415452729104
16 1 7.8354530216490508 3.1778696451908957 19.8095105240456313 -0.6526847477460628 0.4848532321115402 0.3516405262053021
20 1 3.6326769938604047 5.6312439812354267 19.6572469589154117 -0.5226932085036002 1.8511915348789845 -0.7727523102126722
19 1 2.2333645527417594 5.6378356057557983 19.6395140863758044 -2.4601660263002167 0.8470285250071836 -1.2479966883154536
18 1 1.4529228949314934 4.4381349262634036 19.6933670776413621 0.4437535424925961 -0.7927057806544459 0.4169743862857931
21 1 4.3483083558998894 4.4247504993391402 19.7105324698421107 -0.4086382732978222 -0.3345977555582751 -0.8156472523032191
26 1 1.5108471213011549 6.8769976957691901 19.5878067771167537 -1.4518754476781679 -0.7507514620730897 -0.8754280522180298
29 1 4.3147015785638088 6.8785358825933915 19.6713369598071885 -1.1329134909767700 -1.1345676107450948 0.6482447885457295
65 1 8.5953257321695453 4.4210163881466116 19.7503526137602812 -1.2286433266411283 -0.1938974303169821 -1.2988439986627656
22 1 5.7758556951240179 4.4057571521734857 19.7469522461348639 -1.8064359455272947 1.2951170142996997 -0.9274294720834625
23 1 6.4757864633586708 5.6294647491687746 19.7056928263238582 0.3634287332768141 0.0936130793511667 0.5966887483842951
24 1 7.8888055624121307 5.6659029089140374 19.7447406538469963 -0.6817792883987888 0.8626599108488762 1.1600586507350523
30 1 5.7383057354617941 6.8822640417612071 19.6439318306554576 -0.4787660296906552 1.4696578657884958 0.2527026619912278
73 1 8.5927396249304238 6.9198893157733181 19.7759042721264855 -1.8201924330246186 -2.7974167941291976 -0.0425997576922791
34 1 1.4571044297719951 9.3768364755157787 19.5591890474881644 -1.0376858265470954 -0.2455492117834946 0.2642436267282502
28 1 3.5414460011887914 8.1134537044255381 19.6523551445459326 4.2582876523887130 1.0083135097502756 1.2666459878860103
27 1 2.1689382963344292 8.1259952810760669 19.5791304503051080 -2.1190435316144485 -0.7294828496644444 0.1798341134037481
37 1 4.2929228251631155 9.3302806915502767 19.7237536742039019 2.1667262013831632 0.1066462818536873 0.9528539329961190
36 1 3.6185641614613573 10.5981556513263797 19.8042636551248314 -0.8579282002207971 -1.2408838531173894 -1.8385141671055742
35 1 2.1912805531267621 10.5640471180819038 19.6263592218078315 -0.2815600411345032 2.7806589844275038 1.4830063525157016
38 1 5.7439440526930161 9.3496884191291603 19.8305992509254736 -1.3098432279946275 2.2135848644262439 -1.1224183861739574
32 1 7.8596796346513669 8.1117966059498521 19.8711609755600449 -0.4393464944568569 1.1692639303074779 -0.8892798094279303
31 1 6.4237436138949180 8.1416364263424121 19.8178695749108691 2.0107160623046694 -2.3905832825198052 0.0915752628360671
81 1 8.5704014094819758 9.3485298876047551 19.8482422893666310 -0.8134783467646587 0.1420548181779830 -0.2702204526168702
40 1 7.8661474697314615 10.5671374046725504 19.8383342622100471 -0.7984402764040569 0.7092933268376607 1.0787668453973720
39 1 6.4097223744631577 10.6451588994450965 19.9482966064033889 0.9398330459088672 -1.9914530440928837 -0.1681099091536304
44 1 3.5804098732976426 13.0374008937352208 19.7219062617573222 -1.8194870288655025 -0.7321289985449364 -1.0172745951717275
43 1 2.1517396961271036 13.0416031235344043 19.5935202317258330 1.5511352584706346 0.4634781600816376 1.6943073361396630
42 1 1.4572644298880695 11.8062095196138159 19.6326250479088564 -0.3626012255345749 1.0681982242359949 -0.1460462590188720
45 1 4.2533881279597194 11.8087868289932967 19.7930272734485655 3.2934269332423280 -0.3034540980013882 0.1991029654789569
2 1 1.4544785196396997 14.2796835942188185 19.5639895361990277 -1.3191074552511155 -1.4138875334447485 1.8092440281498454
5 1 4.2772737343844254 14.2536562441911574 19.7780757879612850 -0.1465195069903390 0.6222609117121081 0.0318711699270609
89 1 8.5692781299641787 11.8046446061883916 19.8487844341628907 -2.3123454249900020 -2.1128353977001666 0.0615105154843429
46 1 5.7137564271197254 11.8284445380612731 20.0000765425232707 -3.2603848230117691 0.9264619874559462 -0.0853469733643171
47 1 6.3823490018107254 13.0473514800128179 20.0186540784552243 2.1938613347144571 1.1913378075351528 0.0488729752080705
48 1 7.8366071913623268 13.0086909801761283 19.9938194265091447 0.7246885565123498 1.4226110919105477 0.0990931984482583
6 1 5.6833170625242575 14.2606966067284606 19.9382115501327064 0.0112754312619777 0.1286373464039082 -0.3651922550177405
49 1 8.5977094248647301 14.2466757256664582 19.9257518241703373 -4.0491055376539480 1.9871162083611891 0.2357155947733374
58 1 9.9873157759907052 1.9420344699036507 19.7327795062183284 -2.8334108942841132 1.2529870455508416 0.2252402471057595
52 1 12.1170297431856664 0.7201126772409190 19.6559252438539822 0.2846631687393061 -1.4818309067677153 1.9552048560499800
51 1 10.6690699180302389 0.7177293511735341 19.6746027870921338 1.8019416767316825 -0.2313068123298387 -0.7826924550582035
61 1 12.8407395041703456 1.9667309589649367 19.7344954007895588 0.7035294349648417 -2.6322850915851790 -1.0229558336201792
60 1 12.1353635454692323 3.1663693467616016 19.7002647852153778 -1.1910724495870815 1.3606204981949934 -0.2253985430809390
59 1 10.6850611197115271 3.1590317492789812 19.6991015550706230 0.9643778515976161 -0.9375830823036383 -1.1358503701643603
62 1 14.2620560783196968 1.9596559602439754 19.7211441375110290 1.0795463652743975 1.0842089579254754 -1.0766325945373592
56 1 16.4193591109213379 0.7237251917272989 19.6325696872696049 1.0028676744241072 0.2941850434434534 0.5398105968709787
55 1 15.0185749237441115 0.7527949367511284 19.6542867572182729 -2.6276739554108057 -2.2440451243355675 1.6523788139707500
9 1 17.1178417992860261 1.9224008207980285 19.5751110087354441 0.9758579927715761 3.2148308501003999 1.1833654757769545
63 1 14.9800392587598719 3.1873359768313922 19.7034080958545239 -0.4008436555230098 -0.8499868666690773 -0.6270795017487867
64 1 16.3830959653448609 3.2041959507083639 19.6163798516649486 -0.1693059023109509 -2.2186097449711379 1.0068595012468069
68 1 12.1509536677244352 5.6912857259470133 19.6629798364817212 -1.1179782968043399 -1.4583802678256683 0.3426703887668973
67 1 10.7366736899648618 5.6468722544066603 19.6218500568416339 -1.7446206931813997 0.6120615441566418 1.3150684992224710
66 1 10.0309059152852775 4.3937897375253119 19.6354625544368844 -0.2723061093981022 1.4477703841402918 0.6936092838120116
69 1 12.8257805287186599 4.4220010433739736 19.6440986806881916 1.2996878160787251 -1.1371935656174703 1.2883407801868687
74 1 9.9888460375293260 6.8887497305938030 19.6661268172643631 0.5937359611377209 -0.6002172315889357 0.1089061640246484
77 1 12.8609184352905555 6.9066090392593233 19.6293297451925106 0.1077723918975997 0.7570481938985799 0.4822094427874238
17 1 17.0951027792483821 4.4384594706848173 19.6154300404007671 0.6674950214036004 -0.9075084133244095 1.5126084406640392
72 1 16.3940557578691575 5.6518775283149800 19.6152616422545840 -0.8705209089689703 2.7524251518425116 -1.1335694905085374
71 1 14.9698972490013347 5.6476818825065793 19.7126634905551334 0.4277239982801659 0.6553470162340241 -0.5424857582545677
70 1 14.2361088349019660 4.4087424478544532 19.7598642527992183 0.6344399631771092 0.7225233943010692 -1.0654140542604182
78 1 14.2484762942926633 6.8558238863935559 19.6799215724068546 0.7224060051967134 2.5058289786608268 0.2877279087394472
25 1 17.1588865506394619 6.9078531080083554 19.5399478734836229 -0.6414504676459118 -1.8926954708926911 -1.1972141706249415
75 1 10.7306446686481234 8.1002168744197380 19.6989201094534501 -0.7185819327706073 0.5431854542704686 -0.9142967670784341
76 1 12.1486485998292277 8.1480176944517382 19.6245434857235175 -0.1561896744696409 -1.6520291724284659 0.9372063239354562
82 1 10.0027738947753360 9.3059678263422416 19.7829472939210333 -0.4167575514011053 0.2067505404017519 -1.5672478408772226
85 1 12.8675098935794985 9.3442977642215315 19.7445055593517225 0.7919265893524861 1.3356075031971788 0.3802987762877608
84 1 12.1297731032778611 10.5664302931543475 19.7922952097201872 0.0413352571590945 -0.2166922363463172 0.0853314429242757
83 1 10.7137425242008053 10.5379806427312950 19.7768705154457543 -2.3434827058327543 1.9677707838979850 -0.1213686939676134
88 1 16.3728891547497035 10.6197029331424595 19.5859467237783456 0.4432431152703976 -1.8788742975551038 0.0802191105446396
86 1 14.2696245268046287 9.3459187948443390 19.5866705559989072 1.2591942748182874 1.5318047984225593 1.9073332560464342
79 1 14.9805450994770037 8.1081927867956711 19.5927928957363520 -0.3095840940551745 -0.3842797842414548 -0.2104180239143645
80 1 16.4516906253399959 8.1079460455234695 19.4630538122081909 -1.7376097026583812 1.8369485590828554 -0.6808404912469065
87 1 14.9737399877618866 10.5941840606626929 19.6949530087080333 -2.6147777574044113 1.1387708354768282 -0.0189985936665958
33 1 17.1099088847760861 9.3867651074586433 19.4375367829342736 1.2373790557010793 -0.0391232669254407 1.4203199488360481
92 1 12.0500998951047027 13.0421024907432415 19.8790860841337640 1.1383992834023002 2.5338091881169937 -0.9621840414292787
91 1 10.6428928809711749 13.0527040936279146 19.8195235238868044 -0.4819853354092848 -1.0091897519583521 -1.1760465079955797
90 1 9.9401074270609708 11.7812385907136203 19.7617448053431808 2.9209287805835431 -0.1589469019109851 0.4920545532918349
93 1 12.7842597076805653 11.8439397572488687 19.8723237016743575 1.8526357827852227 -1.5579093710668062 0.3972659386348747
50 1 9.9644384604858427 14.2764793548851898 19.7565626857361742 0.3515733530909880 -0.3158975418986368 0.7478648302185668
53 1 12.8378277399705567 14.2835482013658126 19.7248012091924778 0.8557740164404685 0.1100152485462597 1.0170166808607208
41 1 17.0746328221864268 11.8160715339580271 19.6539299932478499 2.9311415312467077 0.2153157196670638 1.2569505924737723
96 1 16.3561433300638406 13.0343865510066035 19.7900262233759356 1.3575881514709336 -0.1518717854337007 -0.2237750260370723
95 1 14.9755888608362167 13.0144631786193301 19.7800313366325753 -1.5851839115165722 3.4467962281493523 0.1736041185329428
94 1 14.2445830179128397 11.8501026312802882 19.7852750433726001 -1.8614046767532788 -2.5544812652433757 -0.2557664506939239
54 1 14.2944640323954673 14.3241733176367951 19.7288857814615817 -1.5117637925750547 -1.9966695670484464 -0.8676171475949552
1 1 17.1170414363747838 14.2793102795140818 19.6477426205854755 -0.8988578644881622 -2.0281557125904937 -0.6705909245281358
