ITEM: TIMESTEP
570
ITEM: NUMBER OF ATOMS
96
ITEM: BOX BOUNDS pp pp pp
0.0000000000000000e+00 1.7084949165859321e+01
0.0000000000000000e+00 1.4796000000000010e+01
0.0000000000000000e+00 1.9999999999999982e+01
ITEM: ATOMS id type x y z fx fy fz
10 1 1.3271615243096995 2.6131298093352600 18.8750305107968579 -0.6514771882195300 -0.2101287148441668 1.2418623410314764
4 1 3.4439257304624338 1.4097894779008180 18.9784233909177651 -0.1115123210784953 -1.4280495516603255 0.1384795419485138
3 1 2.0328904796685641 1.4143178187894425 18.8886152239645533 0.1114937666472953 -2.3090319613784782 -0.1714452194084949
2 1 1.2546998909192766 0.1847986081207744 18.8868352057337745 1.6576104952603234 -1.3828753384571675 -1.6244823946876805
5 1 4.1526580023959916 0.1763565930364751 19.0580987009694240 -1.3705830714770393 -0.0100727290691579 0.1549448443074770
13 1 4.1250000861468665 2.6386162617480813 19.0802607817291303 0.3130057243164571 -1.6206645366483472 -0.8597259567594282
14 1 5.5202127119513849 2.6063193917743956 19.0156471297688370 1.5000030519159702 0.6649280682648326 0.2826980718421119
8 1 7.6919719120819963 1.3939446317764836 19.1132041362203324 0.8762637901333726 0.5247986128845060 0.2194636332416791
7 1 6.2962618146694256 1.3465332033213468 19.1728455577606418 -2.4826392096728656 2.1473846633180216 -1.8175413191616949
6 1 5.5475398472875570 0.1652039971697244 19.2253570459560024 0.9022641701565552 -0.9257686382654999 0.8417037662319886
57 1 8.4235164568901872 2.6072852233690309 19.1447956060660971 0.3703300720047302 -0.4276259121676966 0.5547511486758074
49 1 8.3340386158421911 0.1576427284124827 19.1454169511745604 0.8089942047787829 1.2793269357239445 0.7709265551261194
20 1 3.4291614526475085 6.3322915924538199 19.0871113252489089 -1.8015675058435716 -0.8518263739076499 0.3991750298433096
19 1 1.9856675731484970 6.3180256620389486 19.1017982263586639 1.0075986638866317 1.0456210930921017 -0.5747158768225055
18 1 1.3051473570202774 5.0510930974891375 19.0592698334710136 0.9228668583193641 2.0605983179850194 0.6441599611513779
12 1 3.4594849176168019 3.8393377344267754 19.0526740459055723 -1.1919124485002182 3.6268879177293800 -0.6196110926119003
11 1 2.0342380961679836 3.8284303383613936 18.9746793888684557 0.7787722256892956 0.1988859318806301 -0.3519822753442945
21 1 4.1324811595655584 5.1404438708347655 19.0665957012506730 1.1274578948432326 -2.7870887485411244 1.4684094252335353
16 1 7.6605171607048259 3.8087529757671410 19.0948957120432112 0.1583834849427678 0.8102198949380695 -1.7364634124863052
24 1 7.6873213660977804 6.2941486984721191 18.9517626802762678 0.3982545115822955 0.8036505531454616 1.9090244968538848
15 1 6.2274773110240753 3.8413872867047307 19.0487761227278831 0.7161379305562634 -1.2867547362102318 1.0601766038099916
23 1 6.2523243753835276 6.3116714097029245 19.0028203678749428 0.5908572529500338 1.1897356994413282 -0.6463805771191816
22 1 5.5769328281168056 5.1223581347599900 19.1213464717407682 -2.8052378672115239 -1.0771006868738673 -1.5407837148057166
65 1 8.3759550894167205 5.0515216762814479 19.0142762869417297 1.7471938112043859 -0.2103436778500687 -0.4564599664304200
26 1 1.3085963476034799 7.6140208397612081 19.1423655683767642 -1.5104922259116143 -1.2966039227775348 -0.5413929479621575
34 1 1.2572927706571730 10.0349790049208440 18.8894340927125093 1.9757678580378724 -0.8479066819603399 1.1822475909214960
28 1 3.4165925790519034 8.8038462238201127 18.9394829637177615 -0.3461468204846965 1.0900646447695885 0.7127638353184764
27 1 2.0180045057567186 8.7897946095683857 18.8992660887405286 -0.2627420330396686 0.9151483736689349 0.2609035877594083
37 1 4.0925276062779350 10.0506869982097307 19.0081749458601017 2.1364378725021114 0.6718034175109557 0.4672152833077446
29 1 4.1143909104055432 7.5674304890402135 19.0239751341953571 0.5858475119276730 0.9088289378922052 -0.8020927095779599
38 1 5.5364240004190828 9.9895007278218380 19.0122627480520983 -0.0655467466192946 2.3367366890461039 -0.9585358326343645
32 1 7.6658286527351800 8.7666202739782051 18.9786813016549729 -0.9289224264070983 -1.5704668255696426 -1.1229682012793643
31 1 6.2309594712565906 8.7729720984545079 18.9663718972028583 0.1882423205175773 -0.6941858571027832 0.3789367998229073
30 1 5.5248625273395842 7.5723200281478711 19.0531872962943609 -0.6271389288043443 -1.3478795323639741 0.1359512925465141
81 1 8.3588417542070825 9.9914162004950047 18.9589645389114345 0.6507644779976598 1.4438084877611856 -0.2521754667867326
73 1 8.3970672218180997 7.5279691587361386 19.0682460006367656 0.2827400737142753 1.0290675391832205 -1.7968806189565933
44 1 3.4114242063691536 13.7699268615061730 19.0082188001076062 -0.1799305336753755 -0.9234058311410924 1.1976330251228575
43 1 1.9844289106816091 13.7221936508608273 18.8650482549506080 0.9459617798277222 0.9099013529453059 1.0465065366754893
36 1 3.3889866534496820 11.2732894185920340 19.0185087061299676 0.0204517126233319 2.2787723953144767 0.5458671796975052
35 1 1.9737970937885938 11.2793599485701037 18.9957431962231169 0.4792761965225446 -1.2728453775991362 -0.5965194038510362
42 1 1.3131060837566491 12.5060095895644476 18.8725242666205091 -2.6891931830343196 0.2394926116560508 0.7802457629764454
45 1 4.1137792944676344 12.5466815355559032 19.0528216542677669 -0.8869237271450481 -1.5180103745894031 0.5537253572479237
40 1 7.6528257045347603 11.2738482716178918 18.9805058693279527 -0.1777082231411049 -0.4963617089924234 0.4602507881847505
39 1 6.2449126955171774 11.2387107803466897 18.9988586190827711 -1.3432465196554557 0.0051177400817136 0.0762057239550333
48 1 7.6227305510837686 13.7836694839263245 19.2179634911095611 0.0722260939813890 -2.1664716904597001 0.2940398650963187
47 1 6.2177190902839428 13.7520700946469265 19.2506689951881782 0.0806582198995965 -2.3281670080133807 -0.2418436578469165
46 1 5.5488470055534371 12.5093108135133821 19.1151999806058903 -1.6497904293643231 -0.8782416601256408 -0.1982022217641846
89 1 8.3744297581246343 12.5291555867773035 19.1036659440707126 -2.1351309405836085 -1.8847228759057040 -0.5010167434441956
50 1 9.7535687859440916 0.1591757739953572 19.1652851879350301 0.7688873495095145 -1.0132031802724981 1.0429729907638623
58 1 9.8471418818479783 2.5732744954883375 19.1384429732891306 -0.4733522426358300 1.4285448840877204 -1.3413451838564459
52 1 11.9590680164211207 1.3607745859724489 19.0282525611252886 0.3359187153132543 1.1135933721390645 -0.4409088221277065
51 1 10.5278052802176205 1.3636738940733515 19.1413340244007628 -0.2856307728450715 -0.6906447645757703 1.0800135249669540
53 1 12.6242033093276262 0.1230706780036176 19.0592928288312322 0.1519044700006527 0.4606388275426397 0.9955273983291538
61 1 12.6897184092732651 2.6112912840445111 19.0546769815374439 -0.5423687401746450 -1.2009279788277984 -0.1874630574022477
62 1 14.0857313561867006 2.6433979236298715 18.9186431882120516 0.3804389729559041 -1.9774814418834727 -0.0532532574978951
56 1 16.2176400784908630 1.3512531983119589 18.8521404636586460 0.4211030758829138 0.4818491240937731 -1.3559614813214125
55 1 14.7955032985493844 1.3744620338682483 18.9064080661559650 0.4235313433179531 -0.3683788179492516 1.4317152012459038
54 1 14.0471021660321096 0.1716315283079437 19.0380165554978866 1.5487070682419963 -1.9928650694660179 0.8000513884253646
1 1 16.9301247036404945 0.1200858750600993 18.8668845486309245 -0.7869505920242181 2.1938686163084675 0.4919819234507886
9 1 16.9865508637897378 2.5724002972009612 18.8013624240286994 -0.2861078267449284 0.4934178903262275 1.9737702348977677
68 1 11.9447849739299734 6.2955023989064598 19.1017332287071291 -0.7411738437423773 -0.7645499491371939 -1.3550687894028628
67 1 10.5159254338483716 6.2919860745337450 19.0117296967165395 0.6594567203371752 -1.5513306857848861 -0.0823018673221255
66 1 9.8160643343404548 5.0343502266794724 18.9673971554362772 -1.2940124345403197 1.4279145275125651 0.9180827631711563
60 1 11.9693420014148337 3.8433581152740093 19.0736046377919948 -1.5857096995475226 -0.4232984337810541 0.2994003064949340
59 1 10.5048006678320274 3.8250361665726706 19.0204713017956699 3.5019835542668902 0.1065807415457443 1.8262907671066506
69 1 12.6845949721202800 5.0461186283138888 19.1261755865036207 1.3780100035753449 2.6963914138885352 -1.6776860227908474
63 1 14.8408697991994636 3.8764097659449037 19.0316830618956736 -0.9204690394252235 -1.4659040745017518 -0.5999763441148785
64 1 16.2674979316118069 3.8373960102043254 18.9225034619120898 0.4432801307565444 -0.4052097348340353 -0.7796077345470087
70 1 14.1497955370493234 5.1100175081794497 19.0779860883600847 -2.5658643154140286 0.7361462807945711 -0.2848568811335833
71 1 14.8689644506973249 6.3290571196520133 18.9881409979820326 -2.4663414042940772 2.5129101750509779 0.8636475592447377
72 1 16.2744418941578814 6.3476307131077645 19.0074208508537730 1.4449950148149666 -1.7668150180399040 -0.2880236853662586
17 1 17.0042500846600539 5.0830233919830317 18.9871870100723505 -2.1258268897670365 0.1782386667585432 0.7211596706290858
74 1 9.8055892645479492 7.5073444787698662 18.9700853331431105 0.7799584818944103 2.0590185331933162 -0.1481252040278713
75 1 10.5141051143797757 8.7432402137941061 18.9297781027875089 0.7801301711388768 1.9111356695972317 -1.1127670325282133
76 1 11.9791436687931423 8.8005283073665819 18.9726342210501748 -0.9665922302521541 0.7434487778203688 1.2374694316638122
82 1 9.8106633002138590 10.0365502720067727 18.8924061712121798 0.5082400827439569 -2.1159026599689024 1.5533508591322160
77 1 12.6478472519511822 7.5595952605386536 19.0658692673508163 0.8563777938250789 -0.8292881223850663 0.7722362021766099
85 1 12.6712264869374440 10.0490989287291210 18.9779942712159659 -0.0667849872802284 -2.5288337770984883 0.1383173837414822
86 1 14.1075274413922909 10.0165876845795836 18.9888475971688955 -1.4267498375022092 0.5185214684908162 0.5654931274151094
79 1 14.8171652776766933 8.8002239812471217 19.1267384840419830 -0.6042636565911012 1.9652926401852113 -2.1153187344403044
80 1 16.2534162054216473 8.8223024958427398 19.0517637180996999 -0.9433137612348598 -0.1520131846856609 0.1900169059696084
78 1 14.1194794083930013 7.6088140722672319 19.0367929017824729 -0.4973829328497736 -1.9438583968278431 1.2784794380513080
25 1 16.9758774587389674 7.6145189447457629 19.0671750502700981 -0.9239352160550702 -1.8938148500788454 0.4123132071978526
33 1 16.9264357341610179 10.0614490644734857 18.9806391925386677 -0.2586460031233878 0.1514750881260797 -0.2685791688410517
92 1 11.9137551301099087 13.7034188982536591 19.1470286398368970 -1.7278022153876944 0.3412709796257063 0.9983238287837239
91 1 10.4630031036074804 13.7404228060488283 19.1610280376753224 2.3411753065042076 -1.3775019791491925 -0.1035946264141703
90 1 9.7887408955393180 12.4766146281727437 19.1386328211230889 -0.5614989709222641 2.7702732100810508 -0.0425645816289767
84 1 11.9495647574194717 11.2412933953235044 19.1612884113930342 -0.0839423805922053 0.2368653484534364 -1.0853520204267357
83 1 10.5146293595633669 11.2912631286410488 19.0291072692819263 1.0820141369145819 -1.9808968086012064 -0.3400285622792255
93 1 12.6567349604011952 12.5084768736692737 19.1008263286321522 -1.1785292085158534 0.0955463326576660 0.1421528830224923
95 1 14.7769765580517127 13.7181128994997152 19.0912161299342102 0.8059344967966601 0.6718680110997056 -2.1548803631788287
94 1 14.0561011686482278 12.5201169576260831 19.0783014338152981 0.1945757130759052 -3.0932484648734322 -0.3578541365396738
87 1 14.7598993250934480 11.2270979921880212 19.0185141082658866 1.5472661980688454 3.9703601283048058 1.2536722296592848
96 1 16.2084874359570072 13.7005519762252490 18.8551307630887131 -1.4992760802812226 -1.6532492096494003 0.5385315809885817
88 1 16.2000080360939904 11.2778889305564931 18.9814238408037070 -0.3633288554749258 -2.4026029530377464 -0.6321349691350983
41 1 16.9167559081580912 12.4574981913523359 18.8826683109161877 1.5840860561939736 1.2401534615916530 -0.1277240582401205
