ITEM: TIMESTEP
4870
ITEM: NUMBER OF ATOMS
96
ITEM: BOX BOUNDS pp pp pp
0.0000000000000000e+00 1.7084949165859321e+01
0.0000000000000000e+00 1.4796000000000010e+01
0.0000000000000000e+00 1.9999999999999982e+01
ITEM: ATOMS id type x y z fx fy fz
10 1 1.2186325190692713 1.8464149213752663 19.5205749046049490 -0.9987293496215313 0.2426229261392808 0.2497304348110487
4 1 3.3692736709322033 0.6817259372437664 19.5103843959742775 0.2537500312979604 2.1312778194283464 -1.8574247229005520
3 1 1.9616257773779306 0.6512288709832166 19.5027222769110011 -2.1220252414463694 -1.1813842099307239 -0.4762777391111268
13 1 4.0967112194109498 1.9378556816917292 19.3965351156718100 -0.8222017652771106 -2.1408431421716418 1.2405488927869905
12 1 3.3774355398716676 3.0945821397015485 19.3497094959285931 -0.8139374669877724 2.1335432060958177 0.7708246181139694
11 1 1.9698521369020130 3.0774726829421049 19.4576110896087684 -0.7477413770559478 1.1527270682773434 -0.8218471135955504
14 1 5.5087666148697583 1.8897282427100812 19.4436633602171689 0.9535877925724606 0.6887711484180314 0.7975904823523137
8 1 7.6385334447852680 0.6645150098506382 19.5774826648774187 1.0443737086870051 -0.9815187723681287 -0.6362214669782895
7 1 6.2177058807944077 0.6680291311141860 19.6005216742017119 -0.8267645757249784 -1.2366363746694007 0.2765053320526876
57 1 8.3023342384583838 1.9025535932759634 19.6201945045296320 -0.1237565353978680 0.1780475582560015 1.2569266092778151
15 1 6.2067129723637384 3.1557656577921707 19.4270214292678816 -0.0427696382563247 -2.9141303970069847 -1.3706855303830856
16 1 7.5998063770511761 3.1337074868548154 19.5792339648844695 0.3633289409679328 -0.0411397421592267 0.7311169973889307
20 1 3.4430400972323425 5.6254358973471952 19.5040277278995440 -1.9646204048594615 -1.9465360529200606 -0.5801477874638281
19 1 2.0030558769001003 5.5338343160524266 19.5138125509452713 -0.4322027051588766 4.2352518827058692 0.5265635676341707
18 1 1.2862286736799828 4.3229111640812032 19.5227787509546076 0.1141124235044158 -0.6854193149844435 0.2619190961959013
21 1 4.0662705403107520 4.3434895729731569 19.3157290792794427 2.3561284401977987 1.0453836296408072 1.7645620939932543
26 1 1.3054089883022937 6.8272375049645113 19.5404046205066422 -1.0307620607634167 -0.5004761101669828 0.0408592747814997
29 1 4.1602486046407572 6.8519104507746693 19.4694485443966769 0.2957726140978060 1.4723299227134405 2.5136086968720370
65 1 8.3105294042372524 4.3178714078048079 19.6142425399010030 2.3863076424647822 2.7458681566635756 -0.6077549862443662
22 1 5.5038210407911237 4.3386407736865582 19.3245527010738449 -1.2656158869277085 3.6060630226052952 -0.5389756608306138
23 1 6.2469793910466702 5.6253601936482811 19.3712166807358095 0.9097259050247791 -1.5652050634987016 0.0517405559123952
24 1 7.6628636584614256 5.5758268814603218 19.4934610051180854 1.0975394418280666 -1.2061557898849820 0.0733215860164718
30 1 5.5911215432746229 6.8437610130258113 19.5051383042389119 -0.8064867287438134 0.2404685304225974 0.1701914774630285
73 1 8.3934097548977089 6.8081769221328994 19.6258984517394417 -2.1397986102147817 -2.2259758711634201 -1.4348806836449732
34 1 1.2808596824410676 9.3199548475176428 19.5624503526483267 -0.7412411706473887 1.0193091713536693 0.2813121358231917
28 1 3.4390673331583517 8.1563374970696660 19.6487649557037010 0.2123430996822478 -3.2635973933002180 -2.5106063098312852
27 1 2.0030050503934924 8.1049288459892619 19.5663427616338303 -0.6097927247933421 -2.1516618657831450 0.9807789745455082
37 1 4.1140413102640805 9.3784181318379627 19.5584379089364226 0.0105977302534127 1.3096883676321360 -0.8816166477057922
36 1 3.3396514137965534 10.6175965212306078 19.5352099105378976 3.9743815893431189 -1.3053960618065024 -0.3966871566593896
35 1 1.9784077496429162 10.5787486717689223 19.5958462417892925 -2.2949009845462074 -0.5052528949714484 0.2325339138809850
38 1 5.5691080063654592 9.3231337638166512 19.5584541201664486 0.3889006416218044 0.1959833425360267 1.3713295684985507
32 1 7.7397412970977504 7.9922733163211186 19.6342272497629722 -3.5967638781670717 4.3815716181436084 0.7702814700732810
31 1 6.2846639389165366 8.0652472061398903 19.5644765494776571 0.6856608083721778 -0.0711843924285159 0.2204480313813674
81 1 8.3758199578586918 9.2644705255674893 19.7074278433482242 0.0107978730148362 0.1045122276116616 -0.0943332103901909
40 1 7.6633332373243395 10.5278126242532668 19.6966830286079180 1.0470469890114389 0.8047031424776452 0.4099208273544286
39 1 6.2553044061097385 10.5712730557651788 19.7147195440393155 0.0956657779526560 -1.0911045147441079 -2.3538724753680258
44 1 3.3456818181763786 13.0327705115271559 19.5390986699289186 1.2580557229412390 -0.8632683304569878 0.4415210862768899
43 1 1.9159672192518429 13.0169650724695209 19.4524736279290629 1.5823758828993886 -2.8594008656586141 -0.2536955405500909
42 1 1.2026125351874593 11.7616238449718704 19.5442571852898972 1.2186423970138300 1.7321060241919501 -1.0178942850657831
45 1 4.0794521517948334 11.8085491519274850 19.5853031480090110 0.0838320149977062 1.7866838825998452 -0.5823079745783237
2 1 1.2165495915942293 14.1968487331379460 19.4774963115509969 -0.5809869083433121 1.9942800993842340 -1.1092988219623208
5 1 4.0414886110174129 14.2721078599380977 19.4641865680793344 0.9834972854413848 -2.4291166472629020 0.9223326327367959
89 1 8.3505704318215255 11.7714800239258039 19.7704812407995725 1.3346861228849216 -1.0443197738608951 0.0714029383700168
46 1 5.5195343541182993 11.7910005586832476 19.6184123217292239 0.6106194647893387 0.0415105197447373 0.9586775737049393
47 1 6.2525137672566844 12.9920964960441214 19.6612247432231655 -2.2388076766379128 1.0763637660291057 -0.5291946069434967
48 1 7.6712134247504080 13.0143174841953755 19.7170689663170968 0.1156208623178075 -1.3706125967848126 0.2205916691015739
6 1 5.4930025285090336 14.2431324068026584 19.6055692776611892 0.6946716031422360 -1.7128619905049725 -0.2154539386412364
49 1 8.4042968679681245 14.2103997006877805 19.6062502374999070 -2.1465083898036261 1.9246998196589424 -0.5509104867290843
58 1 9.7391940280875122 1.9190250902959560 19.6837087656597234 0.3431456534193521 -2.0217409671464526 1.1583628979249723
52 1 11.8838804609302535 0.5777754834049543 19.6135411174744867 -0.4197034571760062 1.6406852226459661 0.2518445568629556
51 1 10.4533625611210894 0.6566508121527189 19.6556126345166327 0.5688729235669786 0.1171947659415277 -0.2392381330233724
61 1 12.6242249674053379 1.8050739777064662 19.6621780981555538 -0.0180801981378658 1.1252712730670691 0.3786040664251343
60 1 11.9527951435638649 3.0735483697403478 19.7736863622729651 -2.6657697107032012 -0.5622930551295831 0.3455797502352794
59 1 10.4694964270918440 3.1323881501606672 19.7690079383862773 2.3491659992138079 -2.1372440203000593 -1.8316449731905644
62 1 14.0181393247657535 1.8261371174241285 19.6993782093920835 1.5807502135287432 -1.0609480529739812 -1.8016747489158156
56 1 16.1658543966683084 0.6060673673077938 19.4403226942748617 -1.3560840482979137 -1.3263481350241095 -0.5922560501956522
55 1 14.7654165546023943 0.6192073306462511 19.5419043598085516 -0.8648926302022284 0.8941733018287299 1.4122614559397819
9 1 16.8358009007970360 1.8212227839042274 19.4098870326536677 1.6060236548153515 0.8030665381106818 -0.3130645123591764
63 1 14.7497644480458039 3.0627847008956386 19.6927223844468280 1.3130924249095308 0.2171934511583046 -1.6377329524519089
64 1 16.1756482652707270 3.0680437452847329 19.5230437963253962 0.5774060520687587 1.3485815172140903 -0.4994670485838797
68 1 11.9040312126264656 5.5456352598978906 19.6873503889268164 1.9216273109560165 0.6734597972150032 0.5517114888776677
67 1 10.4685572761079371 5.5984858880004609 19.7651434011773866 1.4131245251418563 -0.7177886251749377 0.2268606702453005
66 1 9.7605349170036710 4.3219657651515719 19.6872691230000534 0.7812195409451237 1.0596478379257408 0.2493485636237677
69 1 12.6691328238042438 4.3380512476256614 19.8078562045356108 -0.8159535952819565 -2.6781322530689176 0.1883679534467130
74 1 9.7618439073195074 6.8340297339413443 19.6843233217933289 2.8262932351730794 -1.8587046190844889 -0.3635559350024750
77 1 12.6357486528976093 6.7717237354292177 19.5609248786563015 0.7921681539360593 -0.4970817609961531 0.9197007272512880
17 1 16.9373652522152298 4.2908792073157072 19.5970016648029812 0.0124992465933468 0.5272712983406938 -1.1142169879749031
72 1 16.2621141015310933 5.5595130266553330 19.5741174863396523 -0.9974804953275758 -2.0370781701946985 -0.1244046025039562
71 1 14.8148008477686712 5.5741986001096446 19.5932099672521112 0.2639254248739618 0.1013114545277096 0.2730529932036523
70 1 14.1267095235938491 4.3041609205513947 19.7232327663304474 -3.6174638059468567 2.3279036616784277 0.4086330520573302
78 1 14.0525247989780286 6.8243504287560190 19.6124221159521817 1.5124294109700478 -2.0709500259008848 -1.3711327259364674
25 1 16.9581561183000034 6.7531373533615904 19.5143780247061116 0.7330793513418856 1.4778278672966665 -0.2315463550579067
75 1 10.5242636363864168 8.0237253209835888 19.6637697798178586 0.3931842452199231 2.9381098092987297 -0.7255236467581494
76 1 11.9584722086487627 8.0316773059289535 19.6304073260809098 -2.6767453117455733 0.0620036695474975 0.5605843779501727
82 1 9.7805322271245050 9.2902150990330874 19.6296395166984752 0.6510471294504094 0.4396127529769038 -0.4665427352885256
85 1 12.6437149778133637 9.2406631626916198 19.5451188721674427 0.5353176907458344 -0.0194185249547937 -0.3189071235502468
84 1 11.9458359665126679 10.4992287321003417 19.4670130526013665 -0.7782576699160888 -2.6159221344615835 -0.1898606854838089
83 1 10.5144513233340451 10.5277384172642954 19.5826736719380037 -1.0723873600072760 -2.0124395534303354 -0.8611424069041818
88 1 16.1926153783726328 10.4573977830515599 19.4620090551016673 0.0718658283117813 2.0537725344684299 1.8351262798577892
86 1 14.0515191923698417 9.2400240432480505 19.5898613303013747 1.3930538477184691 1.5159933809922281 0.2512175791162362
79 1 14.8166017556799439 8.0305757144038328 19.5585596432958546 -2.2143189217831849 -0.3624549576660061 1.3621904985655329
80 1 16.2034249762406404 7.9903444045552119 19.5175375671344327 1.5098069535303424 1.4569178544762877 1.2691193781126104
87 1 14.7655275863726985 10.4899764685708412 19.5391503294900168 -0.4512129535433239 0.1699866946753851 -1.1308121162442866
33 1 16.9398530979324526 9.2579790007905043 19.5148986718940556 -0.1141673370459321 -0.9385459916470259 0.4505446258811939
92 1 11.8836624878977037 12.9383038029041177 19.5190069805453206 -0.3678975457041276 0.0035129145688213 0.9131615209372623
91 1 10.4852876688620889 12.9883464799168102 19.6313878197532716 -0.6735948057799033 -1.0171913280889713 0.5027363802109539
90 1 9.7747717037986863 11.7321186630998735 19.6684095134722270 1.6866492551002099 1.3641335701150092 1.1988546558957973
93 1 12.5966353904817581 11.6878315921642528 19.4715392175353514 1.7005460572499707 3.3567668079533624 1.4940477978470006
50 1 9.7772727868726896 14.2190737823583717 19.6880290977786103 1.1097397185689200 0.8879644067523709 0.4379924379897061
53 1 12.6043161078312131 14.1862168254026066 19.5320818424828566 -1.6176662763254963 -2.4763532139442122 1.3259381772356473
41 1 16.8613206951434726 11.7176784368275655 19.4809322213870360 -1.0024475792152181 0.7725283190247483 0.9708773059396650
96 1 16.1283934699967872 12.9709360000109850 19.4845568730916234 2.1544088388553115 -2.2168195872412602 0.0657953213727486
95 1 14.7135080960328892 12.9691439455289075 19.4559548425361655 1.3224035640916676 1.1633282900192075 0.5519873662244158
94 1 14.0320881713142711 11.7348613075335280 19.5662267070933957 0.4067114104721845 0.3236743171693534 -0.9733521058749468
54 1 14.0127092970119556 14.2095935025559115 19.5418242118382501 1.5320093509527575 -0.9177370717660266 -0.3789650188145591
1 1 16.8833717267019985 14.1793621917510269 19.4143845525031189 -1.6559552701181786 -0.4413052956138602 0.2547470370008146
