ITEM: TIMESTEP
5320
ITEM: NUMBER OF ATOMS
96
ITEM: BOX BOUNDS pp pp pp
0.0000000000000000e+00 1.7084949165859321e+01
0.0000000000000000e+00 1.4796000000000010e+01
0.0000000000000000e+00 1.9999999999999982e+01
ITEM: ATOMS id type x y z fx fy fz
10 1 1.5283333721216572 1.8898597066606999 19.6341742321429109 -2.1289563759742314 -1.7897833545046706 -1.6443805635452682
4 1 3.6511882533449951 0.5742353981336399 19.6329089041062339 0.4831506790844144 3.1030841223102064 1.0350129841651359
3 1 2.2573281466116328 0.6589033723813834 19.5863572970493074 -1.6506732488727494 -1.0032248428105892 0.8638158335790842
13 1 4.3855715912970821 1.8700507370930901 19.6738069910657778 -0.3570399082097055 -0.4883604744181855 1.1807798702161292
12 1 3.6466023536057492 3.0939596052904084 19.6939040757068611 0.5365635514235293 -0.0897657600649813 -1.5167586148359053
11 1 2.1694265231642467 3.1206722378388938 19.6066237067227114 3.7962669055490346 1.1513968384485180 1.7128193888867924
14 1 5.8383758360187432 1.8580913143054154 19.6971782778880176 -2.6253100356781194 0.1848382001467653 0.5052872139673059
8 1 7.9498203395605325 0.5604291246444469 19.6880483707961957 0.3542784308930409 0.6855228015415453 -0.0173834352448804
7 1 6.5437171581565803 0.5901910072966984 19.6570110318643607 -0.7589567155163909 1.7395583844681579 -0.7572823022853580
57 1 8.6328006186627295 1.8352049367107706 19.8095860826443584 0.3368031361218454 -0.1504880542105645 -0.8161304488237586
15 1 6.4855396548712489 3.1309933951699982 19.7633314144893149 0.7791556896078508 -1.2026948426752464 1.0568609156521127
16 1 7.8929408751904049 3.0673505543776360 19.8768974362839721 1.3518496942171727 1.3679055607179200 -1.9485060374862735
20 1 3.6250286051554479 5.5326533305520158 19.7247294336275658 0.0461302855018602 0.1720824686043529 -0.2790977488246513
19 1 2.2258428966720918 5.5692590098137114 19.6152879416498251 -1.1921544917009710 0.4447447997176882 -0.6819799492505175
18 1 1.4796602684113100 4.3723766406946538 19.5920739774431993 3.4801876184290159 -1.7629180573924386 1.3854467491331264
21 1 4.3557572067885690 4.3413425498425378 19.8072858146575044 0.5356569859445695 -1.2097194871058168 -1.9887474452654677
26 1 1.5191962324667172 6.8223150432641644 19.6828916448868867 0.8537688041416789 -2.2277001910490828 -1.5463494555945361
29 1 4.3366712074381795 6.7493451462426277 19.7837626639357111 1.6393753204896706 4.3532667311958022 -1.3960786836055004
65 1 8.6375252164337919 4.3317755317871134 19.8730705466279467 -0.2395850048664729 -2.0877004830386166 -0.5606655695488986
22 1 5.7639616552848798 4.3578180104398765 19.8297123532522477 2.0425565300967632 1.0791399214483370 0.3691107082551541
23 1 6.5202007582045072 5.5944977816564361 19.8012262045602583 0.2141096701161485 -2.1570944810520802 0.4619491526461725
24 1 7.9509723859525243 5.5617115687614262 19.7933655033872249 -1.7622556096249293 -0.2077425670543237 -0.3949480467905481
30 1 5.8218559164985519 6.8125930136424051 19.7972614897250843 -3.4348545249390510 -1.2097688513250591 1.2389292631235489
73 1 8.6430262135450455 6.7622083222143514 19.7084536300634525 0.4194436243302422 1.5566228687764423 1.6086882434647889
34 1 1.5455749410091757 9.2849524999976083 19.7135287530250416 -0.0733357840826263 1.6307382810125173 0.8021266628334156
28 1 3.6763727117849476 8.0811161975559411 19.8011914133915212 -2.6019307545645889 -3.1163474157360538 -0.9128434748450877
27 1 2.1776756102893393 8.0628074006004713 19.7411298718971828 5.5328322135282901 -0.6527711111476772 -0.2036595170518328
37 1 4.3836406585763692 9.3050414530254635 19.7336668488038853 -1.1004269855273252 0.2540163986170333 0.1432909410251897
36 1 3.6442243295398500 10.5475793865922185 19.7367359623103482 3.7134781805698909 0.8442307141785287 -0.9401793077897997
35 1 2.2734275169453251 10.5354325714395394 19.7466406212280638 -1.5149290534897419 -0.3754408402454121 -0.1477733943649860
38 1 5.7828121400718215 9.2509015634696965 19.7186362783537561 1.3425936011263104 2.0400370813219388 -0.2128508586162613
32 1 7.9420139896575028 8.0003287489625503 19.7429935026041399 0.9021902307866250 0.3476300120401455 0.0994803328593192
31 1 6.5148848920568465 8.0244611224904645 19.7607215121832880 -0.3631319516813106 -0.3430791529041771 -1.3218872378712718
81 1 8.6823014390949567 9.2674823964851765 19.7111766980048344 -1.3526624642069949 -3.1497956254876684 0.4479951097587376
40 1 7.9407106762949633 10.4427061007267383 19.6992405858588597 0.4324942279176751 1.9739722546915490 -0.3581003267005597
39 1 6.5308997852804067 10.4725815202103121 19.6305060351399732 0.1083976019495748 1.4186832951677735 1.9112368395686827
44 1 3.6564265395743303 12.9577774517189646 19.7010188118219780 -0.8286730907650941 2.0374175423225558 -0.4597893105623169
43 1 2.2103506736745100 12.9904107457059723 19.7492639392988067 -0.1108089035617169 1.5977681661386616 -1.0547441488912530
42 1 1.5454858428196427 11.7505817317803380 19.8275498707072977 -1.7850932905138390 -0.0039145210933507 -1.3253829498251020
45 1 4.3969399989659887 11.7811861554379416 19.6523387017078370 0.2019320129583487 -2.8304489505233690 0.3069958241395419
2 1 1.5057463152056387 14.2692980703840782 19.6368402125637864 0.2710546706307988 -2.5675429965013445 1.3169434657826316
5 1 4.3806465442610305 14.1884332736339740 19.6533643079002651 -1.2463596272738919 -0.0155334813184220 0.2061507552920464
89 1 8.6199115467242642 11.7031415018223761 19.6559305789372054 -0.5705918301457353 1.1245262362077981 -0.0903606608457705
46 1 5.8494765984659010 11.7450102112729713 19.6385989590975996 -2.7872945847763084 -0.5347378197463177 -1.1895232612969984
47 1 6.5187532044894798 12.9842383724997461 19.7045501507188270 -0.1933849704500558 -0.7270416932078042 -1.3012343373657689
48 1 7.9251107366240445 12.9610323570677384 19.7044418293159396 0.2597067824991430 -0.8604673069410351 -0.0427930996063355
6 1 5.7437406362848717 14.1651615908868678 19.6402664146128068 4.4189180103881593 1.8471529161999289 0.2242960424746080
49 1 8.6614698879944889 14.1328447999090727 19.7563696821091455 1.5635201081132843 1.2170189650825871 0.2701147259894592
58 1 10.0841034585892473 1.8219965113319518 19.7301914958830942 -0.2070585395600554 -0.4413573536465909 1.4324611096411128
52 1 12.1720218343875075 0.5494344494235087 19.6837113438996703 1.9171675108517274 1.1057858710069857 -1.2869699906074947
51 1 10.7988590704124281 0.5835960874335235 19.6693416625918047 -2.8068790132423875 -1.5132410938485106 0.2769552009836612
61 1 12.8780620158779922 1.8610313391671951 19.6917960191537311 -0.1114985692333601 -0.1935482201543059 -0.2474074537558826
60 1 12.1935964985986889 3.0970447457518149 19.7482217649370995 0.3388159299086262 0.3502210258180234 -0.5646467375382875
59 1 10.7720925187022356 3.0620405054058257 19.7452343681836737 0.1171058768089666 -0.2950824622270944 1.5229559680348865
62 1 14.3049457920399679 1.8411172667062892 19.6908127953838381 1.7795546591153750 1.9147931425005300 1.5879307814668229
56 1 16.4560219887813766 0.6429147004356999 19.7807008195728038 -0.2355403316633617 0.6968368553907853 -1.1416716070933799
55 1 14.9937988951606176 0.6022964800454956 19.7535062222098254 0.6879477955874211 -0.1961687314038056 0.1071173046622244
9 1 17.1795657528610448 1.8660186828899901 19.6663228242300541 -0.7905623350745543 -1.4154233710598212 1.5462651802985528
63 1 15.0699807045860936 3.1128658208900544 19.7806967070246174 -1.0218398008277942 -1.1202577302967658 0.2613020746212753
64 1 16.4905974912690034 3.0742260936147381 19.6485791629733555 -2.1849079128201319 1.6576106905063357 1.6521658657273153
68 1 12.1919655672769967 5.5873904278704840 19.7318527035628684 -0.0879993569459934 -2.8683115093907747 0.7972517969629261
67 1 10.7698598775433876 5.5165160194400213 19.7924697558379421 0.8682245133086984 -1.4377877614081580 0.6021046203263456
66 1 10.0231883613964055 4.2869425482403507 19.8621462923483101 1.4359235542814792 -0.4915094565262590 -0.8382486786127608
69 1 12.8698474254777810 4.3428525639989353 19.7543292468566598 2.3123354223384327 -0.2457621266317079 0.2754975786417316
74 1 10.1107439099950458 6.7316484907925371 19.7494000914563124 -1.4510175615614456 3.1718310171216086 1.0953580877491376
77 1 12.8960250775053620 6.7759785969562056 19.5838287618399747 2.9184929803353716 0.9198362746052431 0.4997445869841401
17 1 17.2111113745035240 4.2834979745937867 19.6059702934224838 -2.4980929648370331 1.5699928578238092 -0.6328547882240183
72 1 16.4838518195926227 5.5470880646111684 19.5835048676929837 0.6523816619409134 1.0318114970606207 1.5147365468231642
71 1 15.0725106135946216 5.5494400049502950 19.6692347859677916 -2.2736067363593948 -0.5989095708205470 0.2183616127519416
70 1 14.3018740811489184 4.3511580773367262 19.7470289166468476 1.8934237264704674 -2.0032777733778691 -0.1195691715809897
78 1 14.3434429728813697 6.7811965384446395 19.6827948515069018 0.9694720018294259 -1.3849533456624821 0.4497643140710147
25 1 17.2198522734621058 6.7962445333390971 19.6490298042163829 -1.6104349650523639 -1.8313249865980266 -0.2540505757379764
75 1 10.8172483305301039 7.9859484516443073 19.7765130431387171 -0.6807537535370606 0.1953612855240419 -1.1076744813657358
76 1 12.2224939028312338 8.0359863955912623 19.7249420570667446 1.2015458938295156 -1.6848901219892962 0.9326128638634229
82 1 10.0732545010587131 9.2459453594140548 19.7768479488637254 -0.1291150413913602 -1.0234351034098788 -0.1310962811406329
85 1 12.9598845515223893 9.2353814198522244 19.7861370550070887 0.4327670983304921 -0.7918396253580271 -0.5285269475507601
84 1 12.1905827640547990 10.4511031148644093 19.7340241201009228 0.8679224902549939 -0.1571052670736249 0.7528377801569212
83 1 10.7617066337008200 10.4342402278229933 19.7476096153053611 0.1787508543121094 1.8202856241204532 -1.2524303297332529
88 1 16.4844615906666228 10.4858753165721730 19.6828522535794868 0.2507099233707614 -0.3965904755440222 -0.9340229299624088
86 1 14.3893805326820470 9.2389309478198172 19.7098548631129269 -0.0173202877711830 -0.5262085564846789 -0.9111252728972725
79 1 15.0989833629104311 7.9904447442758224 19.6817920275285907 -0.7869613965789288 1.9814956892699211 -0.6572810968308072
80 1 16.5136118866929849 7.9990925460032329 19.6471612236650017 0.2838897895779062 -0.1072153544957544 -0.8803150532524704
87 1 15.0400395611271751 10.4929892077165139 19.6481680059448749 1.7135151039432936 -3.0276352852814079 -0.0561589684724650
33 1 17.1973658179751396 9.2637945192149793 19.6299333018977364 -0.3878006924487645 -0.5654517502237614 0.0853341698105015
92 1 12.2039585609122589 12.8914487682056791 19.7139396795177539 2.9906433845229303 -0.4933488427617400 0.4385358123305567
91 1 10.8097525185708871 12.8960755118604542 19.6783686223782652 -1.4151614858555708 -1.4580848804732265 0.5596278394479147
90 1 10.0393430579137046 11.6882633466136561 19.6429020472461424 0.2343832695304462 -1.5055645068958137 0.0824657930173036
93 1 12.9505331868145213 11.6384178378521241 19.7690791967816004 -2.2049698281265662 1.2835573562931404 -0.4065298341044077
50 1 10.1197119227276673 14.1215124235759930 19.7300296254538239 -1.4136917922014098 0.1822457281910923 -1.2089263575564968
53 1 12.9364138820044374 14.1104597067926143 19.6470030356337730 -2.6017964834090019 0.0089605381392277 0.2694256557911767
41 1 17.1968509470786302 11.7438380719591322 19.7021770814081556 0.8126167015717627 0.0811700569194796 0.4509499774723512
96 1 16.4572400570991952 12.9964851441524498 19.7732841289283989 0.2646233923854086 -0.3142087610924320 -0.3076325803137963
95 1 15.0185379073962597 12.9245161716027468 19.7413387456258995 0.3600938042044883 0.8381955847169524 1.6029021373055381
94 1 14.3364596149474259 11.6614155736058844 19.7417501953166692 0.8619669030339014 2.9064168622600826 -1.0945962108900862
54 1 14.3396106717811112 14.1645466418301087 19.7756102347819045 -2.2159629495827859 -0.6449162884116446 -0.7061437335071263
1 1 17.1547135498928291 14.2618382919332998 19.8153041755700876 2.4764023973097511 -1.9190704395644156 -0.7371602954094330
