ITEM: TIMESTEP
3800
ITEM: NUMBER OF ATOMS
96
ITEM: BOX BOUNDS pp pp pp
0.0000000000000000e+00 1.7084949165859321e+01
0.0000000000000000e+00 1.4796000000000010e+01
0.0000000000000000e+00 1.9999999999999982e+01
ITEM: ATOMS id type x y z fx fy fz
10 1 1.2350594271750996 2.2531921191619841 19.2556529555308451 2.4842344991351615 2.0727910863487109 0.9506908453221876
4 1 3.3853089089098707 0.9968922883060594 19.2378563217542116 0.0998927751820133 1.1469523817498561 1.2628145621163129
3 1 1.9793703905678135 1.0184727284940647 19.3066405600608526 -0.7681022277793051 -0.5018834139858608 -1.2567489798323863
2 1 1.2399926656864864 -0.2176377978568038 19.4127494508529388 0.6327354126446191 1.1159636698655753 -0.7479035131053677
5 1 4.1212092028833407 -0.2479799056784437 19.3038645905999751 2.3335206614752062 2.1180083680980153 -1.9466506672927126
13 1 4.1276478046899090 2.1989924191070287 19.1192705869644826 0.5542933200096245 0.2133001300197019 0.4562690385936784
14 1 5.5695573016379214 2.2375423979613185 19.0277791058744228 -0.8556135282390536 -2.0389275312602266 -0.8619967593161461
8 1 7.6843552172167637 1.0205394029168426 18.9837171309080901 -0.1878795617027135 1.3305727119051016 0.9307528360841264
7 1 6.2318213908455462 0.9788727994628077 18.9473990431210417 2.2199184351169254 0.2284913130371755 1.2987611210796872
6 1 5.5515407439361768 -0.2648460164671430 19.1054958424692671 -0.8562490828874191 1.1116499150807868 0.6709793047085728
57 1 8.4021553222154282 2.2955107686217064 19.0693363716316107 -3.1669666808651669 -1.2642085765181104 1.1420930687653217
49 1 8.4126602872477036 -0.1654008458516389 18.9949726213327850 0.1659927454247665 -0.4359492480640206 -0.5384142918782370
20 1 3.4856446828214738 5.9274752219939364 19.1754398473921768 -1.7347694787107582 0.3053154099714060 0.3493483998830694
19 1 2.0069687648926053 5.9411698278251963 19.2654841234036134 2.4127290742732899 0.3559711801508235 -1.1805143641060722
18 1 1.2595496107239612 4.7282960832683676 19.2535721434378218 1.3457638483593413 0.2910573043551519 0.5449577477081403
12 1 3.3980461934128492 3.4553115872053239 19.1324933279949612 2.5930383464960469 0.9567956818529886 1.1078866990059228
11 1 2.0134197601858483 3.4885277270638166 19.3236600858414818 -0.8629569181011132 -0.0613542228571387 -0.9582669423182266
21 1 4.1786520141880077 4.6656595167845554 19.1733124162139923 -1.6145359462050037 -0.2249900036579005 -0.8321218272662477
16 1 7.6724013366240174 3.5395631149020064 19.1381691001095078 2.5664377798445095 -0.0158394632051996 -1.7660554920960863
24 1 7.7758375325918507 6.0250113175472775 19.0070412522676335 -0.6860592553858265 0.9457040003638906 0.7016597000160057
15 1 6.2778579501212288 3.4751754004934137 19.0472858771372877 0.9318127470048035 0.1422919564439452 0.9937553627277845
23 1 6.3337307475606881 5.9844077323458835 19.0292464832784951 -1.3583194842541413 -1.7019030031635767 -0.6215514457519271
22 1 5.5902514279111184 4.6831573887922069 19.0383627623211176 0.4191516532637587 2.0681095935543028 0.2841278713689415
65 1 8.4331399903550910 4.7932931997115551 19.0802360827718758 -1.3512812061167088 -3.0453930122597850 1.6724093248862464
26 1 1.2887251514974987 7.1690130777442507 19.2328439280385268 1.8624213043681821 2.2807650538799535 -0.1434347176353673
34 1 1.3318619600408166 9.7118878739217571 19.2914255973119886 -1.2934888242193583 -1.8830365405922835 0.9855399671999504
28 1 3.5083074313586002 8.3988545424236278 19.0727962757347065 -3.8668399709397225 1.9638409601554740 0.4446729147049376
27 1 2.0638531921410506 8.4514876017666527 19.2502750569367720 -2.2663458006956967 -2.7561222632805134 -0.1921376878382011
37 1 4.1429887827648901 9.6845345737010433 19.0605557307909095 0.5268954556861105 -1.3592240064730463 -1.0533871843854639
29 1 4.2023874958654233 7.1963015772819956 19.0607536165742211 0.2361718597827352 -0.5293132080682306 -0.5250855906132459
38 1 5.5553316828246251 9.6897511387230910 18.9476782997452133 -1.0191931230494153 -2.0435467445780247 1.1002957043646375
32 1 7.6518426473462204 8.4966039980122563 19.0696741763763598 0.2004045376724219 0.2894738506036582 0.5692726496217947
31 1 6.2643848912587465 8.4348693778343211 19.0957197376015593 -0.6850340175132070 1.8898170622080650 -0.8663156040840626
30 1 5.6345888494538281 7.2185826437915548 18.9963430048233946 -2.5617630869482979 -1.4077063597334298 1.6753876949396997
81 1 8.3491355053583280 9.7189514597408166 19.0858274990397838 1.2681722087539051 -0.6446923584553592 -1.9292859245478930
73 1 8.4287843532898794 7.2975173759791003 19.1081722120385464 -1.5387776924291976 -1.0786394615718229 -0.7622084160094612
44 1 3.4136659080305982 13.3858732808326302 19.3831028264641496 -0.3777743155673665 -1.2767637924798323 -0.0886664965305612
43 1 1.9824935886371911 13.3751420156806571 19.4384861806337668 0.2467648893371857 1.1843491575015674 0.2362322779041970
36 1 3.4680627338206693 10.9137241251225721 19.1774809876392531 -2.1868994269029485 -0.7297567244508804 2.3762986182500536
35 1 2.0491994723586533 10.8900642203803262 19.3320931581217259 0.5642198987558824 1.0480330912152960 0.2620725035629357
42 1 1.3320175717850988 12.1338912783675461 19.4617343154909328 -1.5461550898321739 -1.2082546574864907 -0.9209656093695927
45 1 4.1458665761009259 12.1527395455622873 19.3287804700153458 1.3245731793879731 -0.5067572425077461 -1.4733163056626819
40 1 7.7153533983180678 10.9667520328729537 18.9109989117848336 -1.7399527811093702 0.3056384802783031 1.4453846756214241
39 1 6.2379955374666070 10.9132700980993551 18.9998000586567386 1.1480399849906586 0.6177073931736319 -1.3176080816785292
48 1 7.6547274695422143 13.4315818915066885 18.8596439845100861 3.3676015629479377 -2.6938594864367453 2.1092201958260071
47 1 6.3047065981595187 13.3281993622793742 19.0854623296980535 -1.0176381327223205 1.2749727647881448 -0.4157880655039478
46 1 5.5573973826102101 12.1428142446398724 19.0954886834691280 0.6165409661278547 -1.8024907000470569 1.7737358060698756
89 1 8.4232131783962210 12.1987831975227579 18.8678487031848832 -0.5922630487184923 1.2410179890704127 -1.0435658189589645
50 1 9.8069653442047535 -0.1557988095665817 19.0856558048645581 1.1205535923099563 0.6200134034932767 0.1389649083343921
58 1 9.7772639985112502 2.3163916523416113 19.1404142702149400 2.6061535008918129 0.0194965554219578 -1.3663826763693980
52 1 11.9223935027532733 1.0979447552093937 19.1367332213558541 1.6144401412006348 -0.0761470440954824 -0.9196268504766867
51 1 10.5052512889585081 1.1081078657865353 19.1141814287709337 1.1676096764678618 -0.7650337456903654 -1.0802334967826364
53 1 12.7025481278591794 -0.1106055968255134 19.1314292678878601 -0.9647161020046238 -0.2802964155882468 -0.4411564767625444
61 1 12.7039468637755846 2.3027069925767534 19.2018326564033366 1.2875945414858625 -1.0872826619115783 -0.4917952126033845
62 1 14.1417539035560846 2.2913553500991592 19.3059695753960128 -0.3227340158400238 1.2715647600225042 -1.0098825261606876
56 1 16.2149793113056369 1.0841141963546790 19.4292230581144132 -0.8454623980175324 -1.3077082580668880 -0.8979199735576571
55 1 14.8174890050426917 1.0554288569258583 19.3304105280106704 -0.8421623782106432 -0.0399866834230092 0.6502344545093630
54 1 14.1176191778615525 -0.1507889309755515 19.3037940712108345 -0.8712886053447348 -1.9960170888981934 -0.9302433733178816
1 1 16.8927390973430818 -0.1581774561531483 19.4847780153600070 2.1354420922149142 -2.3185172319655853 -0.3657728903301510
9 1 16.9405881427066127 2.3026450263348401 19.3075152490407618 -0.7946223792493482 0.9121152965656041 0.9049594293574947
68 1 11.9196430121856860 5.9677561896406059 19.2304219434896559 1.4435800090917794 0.2123810724343134 -1.4692982822010212
67 1 10.4868162366010527 5.9960579794721589 19.1524901921988935 1.3386554691140891 1.3465958977253345 0.8230603768264246
66 1 9.8489872197477748 4.7547276787051969 19.1767970736772568 -1.3353918227995094 -0.9736110173559543 -0.3712813867736491
60 1 11.9633001492556037 3.4779415055151244 19.2113698739027257 -1.2142300229541814 0.9110146905676055 -0.0485760876770098
59 1 10.5419308729169714 3.5030177946675449 19.1693737301949412 0.4588706456924142 0.0441839805041115 -0.1522021079570053
69 1 12.6486981166071732 4.7314883656597475 19.2693622322408125 0.3839700778342638 0.7758940959071086 -0.4475745329944726
63 1 14.8291681858431783 3.5695656597066683 19.3348488637847247 -0.6846800952611969 -0.7678954717828587 0.4554617897975295
64 1 16.2198145178884268 3.5362199522029840 19.3426827726544737 2.0230102390639724 2.2205547394689908 -0.2072288265000689
70 1 14.0832171682176188 4.7784469897564712 19.3339889135860226 -0.8898926987040909 -0.1661637308984236 -1.7867927518572384
71 1 14.7694660394044064 6.0249317757999981 19.2485699207576033 3.1629489375083373 -2.0150233484723863 1.4878807404263235
72 1 16.2221151018963106 5.9878655675526691 19.2932166339161668 -1.7783940062055015 1.4928161278572922 -0.9975359871045109
17 1 16.9528900435088303 4.7855289823179277 19.2809271840225875 -1.8676323793862970 -0.6758719331863017 0.0519222576269163
74 1 9.8213666560203041 7.2773611805821217 19.1839460484517019 -0.2174409945693181 -1.2399651314627806 -1.3387931026591064
75 1 10.5133684256595590 8.4466579476181831 19.1241856585011369 2.1917165124213467 0.9868986222994803 0.1250547604014346
76 1 11.9241680551129647 8.4342165472284396 19.1128376462707408 1.8987737860651650 1.0249550016078743 -0.4443265815637119
82 1 9.8154503136874247 9.6720428252882868 19.0198234286110015 -2.2359148274046712 0.5363691756247498 0.9952142988566611
77 1 12.6227424224876827 7.1823937737432235 19.1868425873707515 2.4939922954493685 0.1936808017062708 -0.1431040220322979
85 1 12.6439535156184313 9.6826936999444619 19.1302055978578096 -0.5920378200056369 1.3161911427050674 0.4475811026541404
86 1 14.0877505009719677 9.6767618868065473 19.2013567043261340 -0.4892610522019555 1.5676422454825960 -0.4596613783292798
79 1 14.7926941303551978 8.4432830735195825 19.2145834152374206 0.9121786823639946 1.1313354188124753 -0.5241132928308345
80 1 16.2258587770905756 8.4596575859295147 19.2403990340004931 0.6113439774534658 1.1537517811431475 1.6379543488749149
78 1 14.0980191826004955 7.2291363713077041 19.2491087719301035 -2.5684356604241465 -1.0025013574144372 -0.9172260384958753
25 1 16.9468970740179330 7.2043823195737637 19.3164096966455041 1.2486463044688247 1.6991392687104727 -1.1681292475314944
33 1 16.9522501611223753 9.7146352645896314 19.3144309635424385 -0.7645528781621218 -1.2900863349598799 0.7610500667623936
92 1 11.9866542646073757 13.4344752571614023 19.0905269482696802 0.8994818706572383 0.1287908664676575 -0.0261564967641616
91 1 10.5678325793199868 13.4104108922247498 19.0872051379722976 -2.3676435146166876 -0.4017918136882648 -1.0982088153572571
90 1 9.8193124549089248 12.1794815717227838 18.8955187860954510 1.8124599448235001 -1.0740835786634459 1.6551376781525193
84 1 11.9430728902284127 10.9569885174080728 19.0395703489223855 -0.7846944059209426 -0.4723013988895268 1.3908287300187649
83 1 10.5176227738202925 10.9278440760984488 18.9878395538565954 0.5786778230865485 1.1416654380644953 0.9960045509563205
93 1 12.6828150486785223 12.1611926401756083 19.1305981328292383 -0.6635577177225527 -0.3746567816297369 0.6947856222042785
95 1 14.8498743966511491 13.4047677962653484 19.2893938376918967 -0.9727464174775563 -2.6014260642166138 -0.0721531667516729
94 1 14.0934682228401602 12.1391869295697337 19.2234425600178724 1.7402619654443112 1.7299076095100085 0.3238593962106078
87 1 14.8355732617408673 10.9085482338342548 19.2265783442732818 -1.3240509897321826 -0.0680688981184006 0.1925388445609303
96 1 16.2410883565507405 13.3110379541685440 19.5368071902010811 0.5224278142263694 3.5272136165521797 -2.5193525450581795
88 1 16.2459783101093294 10.9533879797837965 19.3417298321719286 1.2515356498557992 -2.3285145077159135 -1.3087214737462936
41 1 17.0007939137051025 12.1418287692480682 19.4185201620988472 -0.1136781389489363 -1.4736779301498530 -0.5797667834190683
