ITEM: TIMESTEP
2360
ITEM: NUMBER OF ATOMS
96
ITEM: BOX BOUNDS pp pp pp
0.0000000000000000e+00 1.7084949165859321e+01
0.0000000000000000e+00 1.4796000000000010e+01
0.0000000000000000e+00 1.9999999999999982e+01
ITEM: ATOMS id type x y z fx fy fz
10 1 1.7093323582383992 2.5134103843628623 18.7886680858617083 -1.5908179949076537 -1.2883330767284082 2.0074830752230586
4 1 3.8676568120877111 1.2203412435104566 18.9004996110377697 -3.1373533545124452 2.2554345408271903 1.3175719513416859
3 1 2.3895942063527191 1.2379439086608646 18.8057228839083024 2.0381871494378290 2.5767704178950890 0.2633704966947479
2 1 1.7053761739883067 0.0177483145327206 18.8238726304107757 -0.8548155226947973 0.3045411167416618 0.8285489562714446
5 1 4.5784768159416958 0.0129155893917340 18.9688195710708989 -2.2420079417772669 1.1813240195176167 1.0148438793446495
13 1 4.5104488265844331 2.4940477953003364 19.1492812704736046 1.3324886347221203 -2.3921704158933688 -1.5354267518389402
14 1 5.9223174467554740 2.4703959483462072 19.1990465359730216 -0.0615755942901315 0.5101514337467475 -0.7287125030734730
8 1 8.1139238563491993 1.2805782090516324 19.2769396920567786 -1.7246412263253199 -0.4108668063269918 1.0461817837826566
7 1 6.6631850795239007 1.2249102178087592 19.2674455931799287 1.8803063972130840 3.8521697391041565 -0.3544210527442334
6 1 5.9675734044809365 0.0495661691058510 19.1444238041676833 -0.2661298867438439 -3.3379496060940212 -1.0926495475508977
57 1 8.7866670764859478 2.5178473766158045 19.3687598824053460 -0.3702450036589940 -0.2663800295525454 -0.5577255937048095
49 1 8.7988757562048203 0.0263731872988675 19.2780180450678600 -1.0710364299658179 0.9344345516584034 1.2475546599075056
20 1 3.7455034284230382 6.2142160242940925 19.0656171260073215 0.7363242942991426 -0.7630807410534168 0.5129447324572818
19 1 2.3199033863795337 6.2071363729225650 19.0423810008106500 1.7290962268553143 -0.0089186557449409 -1.1473844989301578
18 1 1.6534597509885085 4.9397249501285421 18.9430334978615598 -0.0157703491885571 -0.3954782283590156 -0.7584682561209402
12 1 3.8171815319738949 3.6695104975271944 19.0936169644960181 -0.0256554725769025 4.6856413822142633 -0.6683208448607788
11 1 2.4015599499400104 3.7135874191088529 18.9457711181133170 -0.9083693502576055 0.4454042900986468 0.0661983394094915
21 1 4.5096495251930602 5.0012373772199812 19.0728997009956842 -1.6589262189276515 -3.5794531285543614 0.6338258167507007
16 1 8.0450966436760361 3.7328632994861226 19.2885472734359666 1.4259121269459021 0.4062212652401305 1.0320383763544667
24 1 8.0471827391027428 6.1707726541825787 19.2246504054965541 2.2384768352303661 1.9615222489309005 0.2631480927812845
15 1 6.6019617043759204 3.7377187698463792 19.1438135585435951 1.9699297856681239 -1.5935207156385038 -0.0875066684774553
23 1 6.6610488864397368 6.1714496874375957 19.1296345738457667 -0.7120437181267003 -1.6873159694581390 -0.1683096250671582
22 1 5.9282803057409845 4.9363816345668150 19.0936214383395821 -0.8200095510169955 2.8416518695014119 -0.7497862448327770
65 1 8.7970725296115244 5.0021579441277657 19.2684371107474952 -0.8118206368864020 -2.5938637048786566 0.1978115033422407
26 1 1.6213221916783083 7.4495986833890191 19.0850341616321977 1.5378601233462663 -2.8813744851260079 -1.5287724125044519
34 1 1.6979225902056310 9.8678093776081806 18.9757199023633873 -1.0995498874510632 -0.0265353051910201 -1.0421098818400272
28 1 3.7942652332647668 8.6818420182817952 19.0737973369534259 0.5666748551338626 -2.1238638768675369 0.9381883161195852
27 1 2.3963575298907132 8.6213474519201352 19.0055344075575796 -2.2827323297235735 1.5899766002169631 0.4530932836388143
37 1 4.5154447513799818 9.9013688881442210 19.1432087309227299 0.9217521527505461 -1.2094397855918788 0.4606309962023178
29 1 4.4986263800831301 7.4213358653574781 19.1269941233906096 -0.5198617530360251 1.7977804490091607 0.6211641286028275
38 1 5.9561295854487986 9.8302034578299313 19.1706236853696907 -0.0600182229511659 0.6426060014270134 -0.4864255335953357
32 1 8.1103739635689607 8.6955134949796875 19.0955749781895427 -0.7290544797151832 -4.5484631860161553 0.9612044069372698
31 1 6.6825953603105157 8.5873122164159827 19.1646156953852014 -1.0102865977821192 1.3265034878929303 0.7144636893665451
30 1 5.9331053904027442 7.3882569158639457 19.1504073170491367 -0.1898589262999600 -0.0008975564010605 -1.2297131477751879
81 1 8.8017920963350864 9.8859759860050431 19.0796521216663635 0.0866808386225073 0.5156279687476552 -0.5366575396707889
73 1 8.7787078014583315 7.3909853355250004 19.1766065311055698 1.8887410381228544 2.9029863266626244 -0.0044674084017072
44 1 3.8178641902870218 13.5940187262392715 19.0149498101778107 0.6403451426698472 0.4410398990505306 0.0242713834000511
43 1 2.4087255561051002 13.6224454424562644 18.8796077838290586 1.0107817022163497 -3.2127213631413052 1.1362301950507674
36 1 3.8236924193829802 11.1229848410363719 19.0472503468331134 -0.8409155045836006 0.6644519510896429 0.7621387049891838
35 1 2.4065432991113220 11.0921197972236882 18.8968763969633891 0.5012146800744334 0.0311505061850197 -1.0055305377993209
42 1 1.7457382561367543 12.3550629645822418 18.7959942596679603 -2.1569745984713218 -0.9254749683287991 -0.3608969767028396
45 1 4.5417707547002850 12.3302577552489847 19.1125677604290267 -2.1202230228302481 0.8883458665549991 -1.2242941324181305
40 1 8.0975552722492434 11.1381100771603343 19.1795132306268918 0.5200737867100170 -2.1940091561753792 -1.1627880474484915
39 1 6.6597431471260826 11.0766689890362677 19.1500113044493290 0.5275825578889505 0.3792383934946923 1.1123350674387988
48 1 8.1090639043286252 13.5735114863106361 19.2887933587255809 -3.0055040798127477 1.3694891708028964 -0.4490845364477711
47 1 6.6676157199419777 13.5781214313307625 19.2256049499881918 1.3124029626611147 -1.3103177065142808 -0.2856240115883401
46 1 5.9457554699617141 12.3268240350188041 19.2131965653070473 -0.5110850605434173 0.8434162407990651 -1.6178428076549323
89 1 8.8113567284376799 12.3638386393422977 19.2941109766712415 -0.7433089779604709 0.1833507568819035 -1.6395557485313641
50 1 10.2168069504684684 -0.0499204331363992 19.2584639375781812 1.2418731642648839 1.8194898579951277 -0.5264674262411217
58 1 10.2341077100030713 2.4385086174349917 19.1938359443179429 -2.2593978022065269 0.9815302399033676 -0.0521085448558393
52 1 12.3477316665745249 1.2321086025909334 19.0193915078150582 -1.1231713400065519 -0.8284927858416106 0.7163986471712652
51 1 10.9329985447248923 1.2129299321951437 19.1697523692565994 0.5248790991901569 -0.7834012406835846 0.0661332525510108
53 1 13.0219343065612385 0.0146100298710733 19.0537832453421743 0.0027895435702729 -2.5072268543061260 -1.3469840523197569
61 1 13.0484529454189992 2.4601186088989477 19.1213178753894546 0.5959323458813104 2.3180060226956272 -1.4304243427754302
62 1 14.5053187961394396 2.5195280860409413 18.9748732295659899 -1.0603109955490240 -0.9734332844089758 1.4396096167657411
56 1 16.6054258616710158 1.2477891596739386 18.8625234435205478 1.5457056915520879 0.8643631519513788 1.1640168261953681
55 1 15.1905525934594756 1.2701150973008664 18.9572586806789332 -1.1699879024540851 0.5134305287152838 -0.9066350387740356
54 1 14.4462186585681280 0.0370949264186295 18.9818695293499076 0.2425931101762075 -1.6139930252428887 0.2391552417982912
1 1 17.3400565475154167 0.0152381399514358 18.8409871553012351 1.4604343247807066 0.1442940786356676 0.9623395286097515
9 1 17.3170014646693211 2.5266273043757042 18.8452123447500348 -0.0519201496880006 -2.0808134528739837 0.3832069405500160
68 1 12.3378401522619434 6.2034694662562799 19.1865664194676881 1.3305354708053787 -0.4636964391277401 0.0186726269432258
67 1 10.9440071130810015 6.1887079880062119 19.2757200923548844 -0.1900181132638348 0.9697724301735632 0.0056673451465624
66 1 10.2297207899283134 4.9776154154453991 19.2666712704667020 -0.7415997366277365 0.7720051093091703 -0.5138911818177949
60 1 12.3066438116184234 3.7330825072739269 19.1249312829946447 2.1846522550415379 -0.7485542467110713 0.9869401436635992
59 1 10.9053387044668550 3.7439975193389214 19.2180461567208987 1.5889392227471419 -2.6012463195175339 -0.6509091656891299
69 1 13.0641973354544518 4.9977366985745526 19.1043248032449213 -0.4826063563011195 -1.2703030184615045 0.4018084183686249
63 1 15.1697221009298477 3.7827036718972757 19.0143333531768945 2.9122543694553116 -2.3526349623429672 -2.3208303904196326
64 1 16.6199463552257107 3.7663646418285959 18.8972002601895674 -0.0045981831470432 -0.6725257433977064 0.8031586373632240
70 1 14.4756352417169527 4.9648020591390365 18.9736194139486862 -1.5334530965244784 1.4245253176143648 1.3453818371955537
71 1 15.2081544747724529 6.1476919434165138 18.8511883889659622 0.2449160825720936 0.2942678338435731 0.9194202758163307
72 1 16.6297089488650514 6.1909477487104727 18.9543047279011034 -0.8811389449603794 0.5015376061079477 0.4005899403937934
17 1 17.3199377114676381 4.9662765414113794 18.8897959520732144 -0.1161018395716960 0.8364519369534402 -0.1186680019536907
74 1 10.2264838298894851 7.4260844932227128 19.2352392698330874 -1.0706735235804166 -1.1955511756686785 -1.6039734638361194
75 1 10.9223992250243480 8.6202155065585711 19.1600427498758492 1.8031640408131639 0.7988998745710849 -0.4990477183591145
76 1 12.3362889117352967 8.6485820026763971 19.1493348662788598 1.4249094010479668 -2.0093795843259588 -0.1057353381186158
82 1 10.2291007833631653 9.8488962673157463 19.1462246831005771 -1.3835575570530807 0.6011746595948353 0.7699668098021526
77 1 13.1386270004909349 7.4045126851722411 19.1276716360400627 -3.9919102834041187 0.3792440838270544 -1.2690779441551718
85 1 13.0665192456207429 9.8736825874122829 19.1126081456681689 0.8507988894496071 1.1494242573980753 0.6224741139611819
86 1 14.5261743777894790 9.9209471685931465 19.1143597292502250 -0.5849381986856368 -0.2431176661258387 0.1911664564558855
79 1 15.2558505870304408 8.6694345362614769 19.0336650437526949 -2.1032481690930598 -1.3848815284760585 1.4907326973727435
80 1 16.6497871537574724 8.6758925039420554 19.0998439117752135 0.3613644558207639 0.2713918819437802 0.4121795693691673
78 1 14.5297706627740961 7.3769801904359440 18.9713988680283023 -0.7929823903452962 2.9244250706794777 -0.2250805114243786
25 1 17.3270943702137501 7.4190760286071376 19.0305138139927514 -2.3202409513987114 -0.4434181526409589 0.2254909698898603
33 1 17.3695142916099812 9.9019641927970863 19.0504117352798552 -0.3393025711331646 0.7880093025003685 0.7212359209452952
92 1 12.3263292053576698 13.5382243993626119 19.1767612712924773 0.1651564604711162 0.5767214875972746 -1.1018822203185621
91 1 10.9086346237724978 13.5395841067875118 19.2325291311298159 -0.3626793667888073 1.2407919676204806 0.4485826434764241
90 1 10.2054013025819739 12.3357017026111073 19.2017022905878356 0.8280148341671465 -2.3716433333253457 -0.1715566135326151
84 1 12.3543476135646646 11.1213674773358377 19.1194240114558056 0.6373252343178508 -2.1645341292586795 -0.3812977896353388
83 1 10.9310776521876249 11.0893702670480963 19.2389608388233384 -1.3815010621664123 -0.2923853699962413 -1.7564083481429194
93 1 13.0572561136549687 12.3349340482532472 19.1324235264431621 -0.6428203411148332 0.9767630923829552 0.3545871837649592
95 1 15.2230937332824219 13.6174309664575421 18.9675503077831067 -2.8289317776936405 -0.6940355579869686 -0.5350742475555306
94 1 14.4711590999630015 12.3479916844922801 19.0173727325026043 1.7107114770174014 0.4078572660961293 1.3831327604191239
87 1 15.2727675309770401 11.1688350596226531 19.0803466502243104 -2.2573999527910189 -0.5279434675284463 -0.0404396922232812
96 1 16.6373892865918265 13.5866369185465619 18.8790024781562913 -0.6590779048267672 0.2304889436510030 1.5293660442146024
88 1 16.7032671795283072 11.1591281527669111 19.0136337678921272 -1.3875959627116985 -0.8090572694990348 0.2047367779339531
41 1 17.4036817140216549 12.3755248156560249 18.8826163634723585 -0.6941522797285636 0.1274530559132029 0.3393375939741972
