ITEM: TIMESTEP
6210
ITEM: NUMBER OF ATOMS
96
ITEM: BOX BOUNDS pp pp pp
0.0000000000000000e+00 1.7084949165859321e+01
0.0000000000000000e+00 1.4796000000000010e+01
0.0000000000000000e+00 1.9999999999999982e+01
ITEM: ATOMS id type x y z fx fy fz
10 1 1.4205276334709067 2.1607626717991093 19.6937650101083328 -2.8841629613666671 0.5281753452301632 -0.1368579980921998
4 1 3.5547921387463135 0.9749160714361469 19.6921097157430296 0.6108953986131513 -2.8232864876086947 -1.4520399391586256
3 1 2.1341099188888588 0.9517307993759492 19.6405286597268294 -1.0550633374949558 -0.2467346188987323 0.9581086637080288
13 1 4.2569612420064935 2.1646564735858100 19.6723411574971614 0.7010447887251809 2.1948577142757295 -1.6383074012019703
12 1 3.5569916658763434 3.3966728470732996 19.6713907175013532 -2.3359513927817455 -1.2925371129233483 0.4071714026128789
11 1 2.0810130412294141 3.3868799299858674 19.7139445527565265 3.1344107740120730 0.4047815508357401 1.5352759595607410
14 1 5.7191573069326411 2.2231154340651447 19.5485682011035706 -0.5768121694019378 -0.0597470519761896 1.6593140711658649
8 1 7.8681180675315332 0.9558541108139385 19.5675344112558882 -0.8708350179583286 2.1330260339172948 -0.1409441264862446
7 1 6.4215161872363860 1.0033831441114223 19.6299279444817358 -0.7832218242694067 -0.4141441205403366 -1.0102448642342625
57 1 8.5762608576529491 2.1940145574974013 19.6354822031553979 0.3872739056262136 0.3192559234936390 -0.3946877354214101
15 1 6.4286961760642924 3.4571367963773350 19.4798251362454273 -2.2159748750227388 0.2853431962465353 0.0811917972583779
16 1 7.8116755522969132 3.4427507837677997 19.5366623343148191 1.8677253215415541 -0.1132383888331035 1.0930549121690212
20 1 3.5768328470920725 5.8755811333303427 19.8214100175124592 -2.7651262459226684 -3.1141950773497435 -0.5152333947228527
19 1 2.1277943787855649 5.7998712701349842 19.7758303290657622 0.5076581318912530 1.6981798099384411 0.4841965873506773
18 1 1.3941085669123678 4.6143638231987270 19.8407317278149726 -0.2978301477821361 0.6616688372606105 -0.7883832741489866
21 1 4.2418058207065563 4.6082519272226010 19.6923835926124688 0.0140509948517289 0.0255136057799203 1.3609056548843792
26 1 1.4601998945460368 7.0729632056668867 19.8533630036557938 -2.0505749607899149 0.3091615136370317 1.6003375647153719
29 1 4.2636597884777956 7.0383353721566211 19.8682736100411539 1.8222566981516657 1.5628284467842961 -0.6280342037888920
65 1 8.5523733648069378 4.6816465488963717 19.6313143064640414 -1.1123230375928521 -3.7103958784173212 -1.2130814440233684
22 1 5.6745552799497281 4.6526559867448523 19.6185044813545630 0.0586640256647304 0.6766262610394829 -1.5430328905944977
23 1 6.4013918750007965 5.8916227887638550 19.6946528760908315 -0.1323941558090523 -1.8399217956220775 1.4373608163124336
24 1 7.8435672718719509 5.8676603768517177 19.7000813723829005 -0.3449060970748021 1.3401440189667098 -0.7599277641871625
30 1 5.7027436510386869 7.0945363613122936 19.8649082726730768 1.1629533440596476 -0.0922381649865011 -1.4352536637154654
73 1 8.5375076328730533 7.0713204364755056 19.8304943096689676 1.9025855171121000 0.3252610931610156 -1.0893611239863732
34 1 1.4417398069984004 9.5281165511054269 19.9644375330146850 1.1285288706544643 1.5625294877396667 -1.7636871312363802
28 1 3.5728731004451122 8.2761193920305161 19.9640372139482842 0.5459287460789146 0.0427467090323229 -0.2125725743244011
27 1 2.1678598561671003 8.3171924043217302 19.9571067792633237 -0.5979354931877972 -0.2259764183266668 -0.2698571317368554
37 1 4.2590099984657463 9.5116302089805185 20.0550668105383458 -0.0724616205034495 1.8841475112906254 0.1337917848141098
36 1 3.5263666794827637 10.7771222376248659 19.9558655190433747 0.8651334715822629 -2.1523461199102090 0.2487049280867480
35 1 2.1248980542770077 10.7977114503971183 19.8588045804434330 0.7566168303493312 -1.2721746746596201 1.6710067159104951
38 1 5.6784091378821344 9.5703873952446177 19.9657971584791660 0.6884892794949099 -1.4985927586100376 0.8176991569583278
32 1 7.8221989687038720 8.3076734265870691 19.9152292329918907 2.0790572467310948 1.7126252856801298 1.0359185237323298
31 1 6.4279895495800892 8.3481844905173279 19.9787265796615507 -0.9665177199077730 -0.4072793042414505 -1.2338895427097969
81 1 8.5357092434329775 9.5704436627396827 20.0967478628064988 0.5802941480062287 -1.0248650690207142 -1.4569877865279539
40 1 7.8189782984292533 10.7675479467088344 19.8587378990792303 -0.9830852463884647 0.9599569014884749 -0.6208352409713485
39 1 6.3958844518781959 10.7828553696146283 19.8792113716411620 0.8688861571802359 1.1626514044952665 0.8542102034840060
44 1 3.5793353533360257 13.2222924830569237 19.8034797027495486 -0.9839228470363304 1.2113585050164200 -0.8877432807239298
43 1 2.1321832094823576 13.2655529378128048 19.7442861439421087 0.7906970034622327 -0.2870269206215967 1.2731295316665221
42 1 1.4381535248442330 12.0231645979962334 19.8169602901066071 -0.8099120245248161 -0.1480675401029546 0.1351817302472467
45 1 4.2434115347070493 11.9729462761192558 19.8486776929190754 0.1964006148186697 1.0364687898051168 -0.5851666260232071
2 1 1.4250151797870423 14.4784143576536444 19.7533121571651300 0.0884033360526348 1.5437061607601394 -0.5097551244146529
5 1 4.2547079410671369 14.5065442356650269 19.6928685139379205 1.2403481180356575 0.6657340898929921 -0.6260867128169140
89 1 8.5101241735319562 12.0166819596831189 19.6986967321539375 -0.1055286900266283 1.2580853747486231 0.2734881235734639
46 1 5.6895627373421087 12.0629115073270654 19.7436523812074505 -0.4070927436549431 -1.3751362717608047 0.1354429889028513
47 1 6.3579803763608123 13.3142343810704169 19.6409292168999841 0.9459212570744361 0.3588583699088812 -0.9527310440158604
48 1 7.7898556349064201 13.2899278149731526 19.5753518516479623 -0.5346216423401703 -1.1106554329455536 1.4480283429922680
6 1 5.7003651514584748 14.5768015365176176 19.6498483785515923 -0.0636642517492514 -1.6796066097449129 -0.8589305499021955
49 1 8.5111736863880036 14.5266547203102263 19.5164593993914046 2.1394390692204546 -0.7720969478924099 -0.9236114362322480
58 1 10.0016019221310302 2.1537952688610993 19.5660190141841106 -1.6454545649295449 2.0275923520701142 1.7449441753532691
52 1 12.1025246229150376 0.9224343567411569 19.6203305307058002 -1.0330157692172461 -1.1026403610398698 -1.1326114130939675
51 1 10.6676974323051308 0.9174450363386442 19.5835532208762615 0.9915926499570666 0.2462525647387609 -1.5028589033416453
61 1 12.7914253364343757 2.1445238762256027 19.5736703927519322 2.6610844797299174 1.4206213007363653 0.7952665921761259
60 1 12.0910807679482293 3.3766648358539300 19.7730631273381974 -0.3246847316327158 1.5937938873798370 -2.2968159207998102
59 1 10.6834641486764212 3.4022299880431315 19.7302218464306840 0.0869382856531934 -0.2131062324887797 -0.7048183443641932
62 1 14.2625419086972016 2.1597468609820099 19.6146611044606836 -2.4696423484114924 -0.9168446828828776 -0.4484652286343241
56 1 16.3578055011646981 0.9310588348645881 19.7185370906746478 2.2577691319379616 1.2299475040976442 -0.0275764894245328
55 1 14.9835891261079421 0.9069594356713541 19.6314854776917080 -4.0756623561994587 0.8755382921859532 1.4938753240318134
9 1 17.0543534951787485 2.1669405616028596 19.6877452519199103 -0.0429254443501188 1.7456028502625469 0.7188933824313477
63 1 14.9491926266805830 3.3732820157069034 19.6981420190574426 -0.9906465424667756 1.4146666722731376 0.6490873714801777
64 1 16.3539220236225695 3.4210063182751833 19.7368471519430244 1.0244494052778066 -2.1769857956635557 0.9760760035274797
68 1 12.0794428068433692 5.9025521205633149 19.7928455367572624 1.8679788172584075 -3.2422696637503106 -0.3209341108006747
67 1 10.6900948226884385 5.8546049259974122 19.7809137860256072 -1.6743899561782301 1.0956898242532254 0.1124539087625480
66 1 9.9840937361416930 4.6280336211406876 19.7149094891255849 -1.2209691227998811 0.8208333260438769 -1.1382265452793268
69 1 12.8199320592367449 4.6116042472938101 19.7974635244433621 0.7325948197391138 0.1265683525144105 -0.2048841376080481
74 1 9.9975537230623157 7.0863011935142834 19.8174125339627345 -1.0683937560412997 2.0776398270715530 -1.1716574394961183
77 1 12.8223577285019843 7.0849099288193225 19.7802157049115692 -0.1416269971759694 1.5914515734963592 0.4087939760999668
17 1 17.0795090295013168 4.6522743589812103 19.8002969577705947 -0.6950247756781948 -0.5354231362811906 0.2859983180516122
72 1 16.3885246051929201 5.8902730007976416 19.7992252716880586 0.7125847384544828 -0.1922251785459734 1.4633774892525653
71 1 14.9664207331433872 5.8430071375425623 19.8472965690017986 0.2958652000487055 -0.2981259492379228 -0.7174162635974868
70 1 14.2471348927806627 4.5822236690730413 19.8086021658944489 0.4105788021171045 2.5932094496003257 -1.6218729733862165
78 1 14.2815785614392166 7.0853293455485575 19.8554374422862630 -1.3572127107153651 0.4690787392061301 -1.1215393347540299
25 1 17.1124660112586611 7.0963275115718369 19.8705589411803594 0.8446600605526117 0.0770131444257837 0.9561182189912574
75 1 10.6753881075074872 8.3462310546893761 19.8563321689176178 1.1262498308649727 -0.8232161305730012 0.6170332701422208
76 1 12.1146676527396675 8.3225514340678082 19.8188604707740588 0.5529147290908806 1.0150696308695117 0.7537764574478145
82 1 9.9697339375295204 9.5999919228186652 19.9244805246499439 -1.5479442728906923 -0.8794223817729591 -0.5051790935910667
85 1 12.7747209579619661 9.5634841431861588 19.7527089763827988 3.2119602634158362 -1.4198986905430226 1.8283875272696091
84 1 12.0933982195036105 10.7659628867750250 19.7821404376213437 -1.5588431268990026 0.6437459071018921 -1.8806363883622437
83 1 10.6256628678880993 10.7947329309844537 19.6743343218556035 2.6634119740079694 2.9102661124401590 0.0097283229384022
88 1 16.4058723610187194 10.8041761976302446 19.8272943621504432 -1.2863170116714344 0.0534149743312199 -0.4621304488231135
86 1 14.2292616708861086 9.5975866855757541 19.8987659593356838 -0.2928486849035501 -0.2475249778209132 -1.1099901766034088
79 1 14.9629303482919056 8.3648818968186109 19.9255920367482382 -0.0447057420449344 -1.5169593957510814 0.5978049992824668
80 1 16.3645887716737874 8.3187857620509735 19.8988658647992445 0.3278288810736767 2.0360827299469855 0.9140030809013688
87 1 14.9431841021756142 10.8203159655184926 19.8597399222103164 0.7422633441777584 -1.4317659705379995 1.0750003719313415
33 1 17.1070098659608476 9.5537614135331239 19.9073588729165110 -0.3437470073360728 1.1581688465507110 -0.9548230635469674
92 1 12.0853884823690585 13.2134776630226298 19.5752320924943071 0.5233527412491448 1.9628474035084000 1.0456215330841463
91 1 10.6760694672768839 13.2806745147051828 19.6506902708421656 -0.2200503783276462 -0.0444441116927713 -1.6991258853050124
90 1 9.9381538812004706 12.0827407434018443 19.6620298363012473 -1.4213736581415259 -3.3383654223693577 -0.7704377569523981
93 1 12.8158197857063030 11.9910496205796608 19.7249882854077221 0.7715730215380032 1.8167837590885902 0.3725659947660292
50 1 9.9479504218660786 14.5124207692882372 19.5473756376465886 1.0422178116943606 -1.5309569837393120 0.4533479209927427
53 1 12.8104678789938564 14.4973291434513616 19.6203036838666627 0.6908574862245753 -2.6460522782521574 0.2997604673819063
41 1 17.1361647100383365 12.0299354736915731 19.8658518486946463 -2.7315552535272194 0.2810630588955521 -2.2524402342365608
96 1 16.4067167311732796 13.2602537929168918 19.7029410140482035 0.1302829524602214 -0.0462830130636758 1.2595146763484300
95 1 14.9543939797290104 13.2579711592632403 19.6614870658478331 2.0448978205429489 -0.4650018950223164 -0.5210781340568855
94 1 14.2775752854284192 12.0197851987264777 19.8092076718190881 -1.4666384675796078 1.4719763535129524 -2.0454353827648695
54 1 14.2406177244067962 14.4732081906848311 19.6437669219228113 -1.3030330318919439 0.5611121599581094 -0.3086436619086497
1 1 17.0674940008300275 14.5267570942714830 19.7506407527731795 2.8066386711857350 -1.2892640185268416 1.0748716494926378
