ITEM: TIMESTEP
4260
ITEM: NUMBER OF ATOMS
96
ITEM: BOX BOUNDS pp pp pp
0.0000000000000000e+00 1.7084949165859321e+01
0.0000000000000000e+00 1.4796000000000010e+01
0.0000000000000000e+00 1.9999999999999982e+01
ITEM: ATOMS id type x y z fx fy fz
10 1 1.1498173331274832 2.2888450818880148 19.1592056027751454 -1.4710939556616616 1.7329405152910013 -0.5331999316103720
4 1 3.3533461480887046 1.0729873641938106 19.2417407601947552 -2.8678726280865789 -1.7964430459831320 -0.3456727624671330
3 1 1.8978027587263129 1.1015412893041372 19.2181863420822374 -0.3923149785231706 -3.1931599187886324 -1.2176530698181478
2 1 1.2043261773079665 -0.1712847929868390 19.0929798900041376 -1.0674602440269960 0.5173034091778693 1.3812202283038095
5 1 4.0368606401590963 -0.1871642071712992 19.1127952962693186 1.9839331258458086 0.3841735673203888 0.4017099381145557
13 1 4.0378519516333800 2.2615942864035419 19.3163766075377197 0.5552013535625847 2.3857109784573649 0.0573370009228234
14 1 5.4804361476658192 2.3032132943424308 19.2492147720813165 -1.5847430115948469 -1.3108945451476082 1.6710140055405529
8 1 7.6245817511729097 0.9937069244314078 19.1936403424425883 -1.7701645790790328 0.7689284567001660 -0.8418980197748375
7 1 6.1630036905226442 1.0312460522632929 19.2826673985840209 1.6263111838870550 0.7097918007147148 0.6319985211784529
6 1 5.4919995960816772 -0.2250967077134148 19.2613458126202204 -1.1902509307052167 0.8002942401595148 -0.9082097382185260
57 1 8.3049833110562119 2.2417016840581789 19.1712025751582047 -1.0784317178805698 2.2585470336634650 -1.0773284444194924
49 1 8.3075017390619337 -0.2333348011410594 19.1872467149341723 0.5779426696760671 -0.0889437599528203 0.2064265809133164
20 1 3.3214184372107640 5.9894353916101304 19.4100273819543681 -2.1240183314388368 -1.0033917202753209 0.4006690834618903
19 1 1.8556927815529192 5.9964836556111774 19.3744667199327516 1.0978734932574907 -1.8283778300710449 -0.0406317428397327
18 1 1.1697949719117124 4.7608489865845982 19.1436901526453447 1.6015574045574528 -0.6132714812973623 0.9407131949438332
12 1 3.2743917115184171 3.4725822435923668 19.3439984416250681 1.9512706329746243 3.3595056379819792 -1.0733428877898126
11 1 1.8668291076104482 3.5285068346818309 19.2298879913707772 -0.1330682822897671 -1.9876433052403077 -0.5771667992988599
21 1 4.0028280352347378 4.7572301239328034 19.3750036133854593 -0.7231619116280532 -1.2258251544609224 0.3986517108763745
16 1 7.6120910927455148 3.5154500824251254 19.2996589557757083 -0.7704059332012096 0.1435581036760657 -0.1114795708704647
24 1 7.5943331080044514 5.9482521305034304 19.4849260238379216 -0.7889275666115303 -0.8260357211809128 -1.5232147113127286
15 1 6.1845627372604071 3.5317269775426299 19.3132256124446506 -0.1243975094326495 -1.9151279113179465 0.4708363242499006
23 1 6.1549415525972222 5.9213153674634258 19.4345237891654108 -0.0661587120493124 2.1675940324391281 -0.2675846579623985
22 1 5.3788315422044954 4.7048027730585344 19.4162020974739598 4.0998264052778186 0.6199784472407960 1.0356905805199332
65 1 8.3793208549227671 4.7084678906140258 19.4004153505004950 0.2152950354651408 1.8789583296781287 -0.5821214964904069
26 1 1.1971173525985481 7.2152641615533240 19.5071325026919133 -1.2114083297189602 -0.2365508151799931 -0.1960120891222124
34 1 1.1391333662497316 9.6615771624573590 19.3224163403346694 1.2631330156842775 0.8192165413682186 1.3968227139114127
28 1 3.3225495198923611 8.4398957625674029 19.4265206378265169 -0.6179368988298005 0.3606327826179527 -1.9119659142643375
27 1 1.9042187794679575 8.4580912725926289 19.4334121840773157 -0.9452993586229956 -1.9534437545484198 1.4429234878319475
37 1 4.0387864728212159 9.6711251222279753 19.3105548213522233 -0.1377938770528182 -1.4816680057863238 -1.0806729496955527
29 1 4.0468176133985780 7.1712355706271449 19.3858167396975567 -0.6729943360441404 1.8853378498499820 -0.1817107384128239
38 1 5.4488436946850740 9.6155946265233805 19.3243298229175977 0.7199497903867449 2.8701051061826841 1.0005141722506905
32 1 7.5621614777212711 8.4851736743512163 19.4642881029790189 2.3526463505270394 -2.9478750360865908 0.1639054318124025
31 1 6.1503120005719465 8.4063662005345581 19.3088026712661396 -0.3611409726275868 1.5435157440419829 1.4903621904420690
30 1 5.4424565053711476 7.2091183126227341 19.3652228553498169 2.6604946064763353 -3.7311819804172619 1.1689258798143773
81 1 8.2674221993643258 9.7152423854126475 19.5544424331580196 -0.7212748642604683 -1.7946360777252184 -0.3630609447955300
73 1 8.3206376848778678 7.1987527243722331 19.5347745546176128 -3.6555581091151819 2.0263113071656100 -1.4575403923976045
44 1 3.3255324816571510 13.3862367209673803 19.0773356946559041 0.5163321264548542 -0.8732231854816150 0.5699268648935215
43 1 1.8860652946891918 13.4044817989906129 19.1253125850702830 0.4869374951489678 -1.5193920214960497 -0.4207608155783931
36 1 3.3049178795224203 10.9088435337091525 19.2202066208023368 -0.0241542277078588 -1.4150997725237455 -0.7797697510710925
35 1 1.9043905168060125 10.8841696405850801 19.1919998523865694 0.0139682394014633 2.1600261212647172 0.0025834448189483
42 1 1.2161703283615151 12.1485911090531467 19.1212494235584813 -1.1559080580770482 -1.5416187075958381 0.7771085289994875
45 1 4.0019775961741466 12.1571650136424250 19.1674688584609356 2.6471670192587129 -0.6027664146957502 0.9832481647848477
40 1 7.5409655300783811 10.8988193017325834 19.3624546091612757 1.1687309502665053 0.9882486579555136 -0.9800537896645756
39 1 6.1419900774266685 10.8536311318463294 19.2925750389002530 -1.2475871174814062 1.7078243944164206 1.4959644860130894
48 1 7.6101648315221846 13.3175869931827204 19.3545655963218657 0.6592058002668852 1.4687245383156387 0.0267320681846510
47 1 6.1845107483418449 13.3167319452152153 19.3604130744377514 0.4161232917171930 1.1985914584936199 -1.9375347830714986
46 1 5.4682233428716946 12.1218995615480924 19.2715889578646085 -1.0603420625567743 0.0658603770141797 0.8446223770942347
89 1 8.2977591748667763 12.1227110555846895 19.2914334684219639 -0.3206747449808049 -1.4124200849894630 0.1711726084790908
50 1 9.7852718552253997 -0.2081836889788396 19.1056808064275003 -1.7931644412598020 0.8861449779273869 -0.4911703744937164
58 1 9.7034554253293219 2.2910957850814633 19.1271509832220161 -0.3216320300145754 0.0947717847937910 -0.2169266023765368
52 1 11.8591360110511381 1.0791306266454432 18.9895214325875159 1.6544836833331407 -2.7842453982572741 1.5819613088918700
51 1 10.4434862790548149 1.0711349600162545 19.0158529257490798 -0.3179266153929857 0.5892866993586113 1.3113283354723229
53 1 12.5910084824802162 -0.2100426201239373 19.0846081779625045 -0.9233595523991782 1.3715785089786272 -1.1481390765090544
61 1 12.6257813488348098 2.2921205584905833 19.0862137461892587 -2.4419186846846213 0.8311032653908808 -1.7706278192355607
62 1 13.9914936360822999 2.2726939792379937 18.8923445436591919 1.8889664135517505 1.9043476708074567 1.4253568265851242
56 1 16.1248321858026848 1.0633798509201928 19.0335881295495177 0.6850390283360459 -1.0427077010503549 0.3193985148912757
55 1 14.7190182757467447 1.0680527502460251 19.0048962310916458 -0.9020850174485647 -2.8571946713328584 -0.9590372687956150
54 1 13.9954267226220370 -0.2258920458940634 19.0916658850000900 2.6846185891733603 2.8002453729884307 0.9504075012643231
1 1 16.8793604758080136 -0.1630249720599215 19.0878448753587158 -0.6449331368430238 0.2326355751202861 -0.3090762094444414
9 1 16.7927525649515275 2.3116360628536929 19.0380619339705603 1.6617856397230022 -0.8827391922351692 -0.1880506930777202
68 1 11.9021538019875592 6.0061050773857900 19.3931347758209895 -1.5042866599130029 0.4945445650877483 -1.0335028928160490
67 1 10.4764073846219770 5.9927228991940789 19.4643409855185503 1.3948955043163180 -1.0690642788638645 0.1672108323591609
66 1 9.8295458697707456 4.7317258881713569 19.3854069643566440 -3.1516277310902243 0.9320262489351971 -0.6208877391724945
60 1 11.8671130489613894 3.4949797774256672 19.1621235243081358 1.2411653950264370 2.0815030728667954 1.7524673900442063
59 1 10.4549838421222088 3.5149929049012014 19.2267861295540534 0.9212131329985944 -0.7523763138007408 -1.3400796300861910
69 1 12.6032667316932567 4.7702705713158089 19.3202472666850369 -0.5114598916853585 -1.1600334945545860 -1.3509317241903127
63 1 14.7112908431170695 3.5219386092468277 18.9778820478600743 0.9406274100094335 1.3004068721428308 1.2245178389527915
64 1 16.1469675683215179 3.5614514939068371 19.0788421388418037 -2.4991411553969591 -1.8076878742140470 0.5211981734291962
70 1 13.9956444520481096 4.7441210447374313 19.1226420824987109 0.7780370887524783 0.9098982998904610 0.7310085338884000
71 1 14.6824786767759168 5.9649245538316684 19.2252725261967079 3.2040703813571403 1.4175692460189944 0.4455224401735656
72 1 16.1183174513382674 5.9971972182051116 19.2830779421922358 -0.3382839837884726 0.0940335950098135 0.0981478214787835
17 1 16.8465900917141269 4.7449605285136780 19.2279959132999210 0.3778212948361159 1.7578152390360726 -0.3490485817415808
74 1 9.7152320098198661 7.1837575430868830 19.4898952190665504 -0.0074017172576097 2.8999444107966541 0.4280838954149643
75 1 10.4296530824627656 8.4527508038696784 19.4450717341397912 -3.0030719647475994 1.6358010283939084 0.6618174549919376
76 1 11.8065841771488120 8.4650074624995977 19.2694186654247162 1.1354857699073881 0.9738702567983937 1.8575922853312421
82 1 9.6836729243954007 9.7232322810909633 19.4745672557207357 0.7128408444433136 -0.6546785683222869 -0.5029091454069090
77 1 12.5666914081521028 7.2386524948512578 19.3000367997113997 2.3056132925173247 0.0646239733288210 -0.3796157314794114
85 1 12.5832716286079922 9.6903352259472300 19.2651351543960168 0.1137073627130883 -0.8418026897151600 -0.0164607811431005
86 1 13.9977031606523497 9.6746782102028437 19.3453217148234593 -0.7703356151360935 -0.7975753275622403 -0.7224064978362067
79 1 14.7225799595238520 8.4398014530686432 19.3539287030099914 -2.3067605150895716 0.6969100489009411 -0.9141500226980068
80 1 16.1156149916290694 8.4365459244616208 19.3954010289148009 1.7749659263328841 0.8108983278892143 0.8686860640460478
78 1 14.0219078299452296 7.1975425325414459 19.2705285231926382 -2.1248395193943446 2.6170725119432099 -0.3252952800085906
25 1 16.8379688964836909 7.1950599913564295 19.4824058472782120 -0.1584735819354012 2.2740834258955394 -0.5560735289413781
33 1 16.8210968481958218 9.6580611369556113 19.3455943241611337 0.5275563607326883 0.9158656325121530 0.5212878140091781
92 1 11.8624836513707468 13.3662655513305317 19.1400497288310518 1.0707298331692965 1.6209844710219192 -1.4396751056134158
91 1 10.4567480890371982 13.4026207512439175 19.1931314546912049 0.5277334188629001 -2.0347232238940629 0.2762683959349678
90 1 9.7008548853851639 12.1663998762900842 19.3219314841880667 0.8017167553536774 -1.9784305141506269 -0.0961619165101784
84 1 11.8709538484228574 10.9047032785182019 19.2733713767486385 -1.7810288502427474 1.9636125299690228 -0.2702216211641158
83 1 10.4238910446885633 10.9145549691785888 19.3582860711825084 -0.6441463453272163 1.8565544568006069 -0.2974529011897940
93 1 12.5973991955917644 12.1515760870150267 19.1605825763452025 -1.1595228680350393 -0.7223856567129306 0.0322020702374438
95 1 14.7500778924479974 13.3639800415189232 19.2453712495025258 0.4242987108569053 -0.0993499000444822 -0.0089779629770859
94 1 13.9946758536343108 12.1413057417660450 19.2623810928964652 0.3608466023086434 1.8985939436400479 -1.0151877347036031
87 1 14.6890215616644007 10.9251523560676294 19.2878936008109960 2.4916111231439650 -0.8623279424161440 1.2203107115668028
96 1 16.1935228138801222 13.4040040423938116 19.2339319983893446 -0.2000452304132962 -0.9589788355956756 -0.2674515278701165
88 1 16.1291837288345654 10.9444122382702069 19.2751983125707369 -0.9772633104596699 -1.4181926612452229 1.3535773698914999
41 1 16.8625547026992670 12.1438658728891156 19.1841413903029228 1.4316706228600604 -0.2358778698847444 0.3127167394182961
