ITEM: TIMESTEP
5030
ITEM: NUMBER OF ATOMS
96
ITEM: BOX BOUNDS pp pp pp
0.0000000000000000e+00 1.7084949165859321e+01
0.0000000000000000e+00 1.4796000000000010e+01
0.0000000000000000e+00 1.9999999999999982e+01
ITEM: ATOMS id type x y z fx fy fz
10 1 1.4089055997069924 1.8522938198779100 19.6852089018519969 2.7164066519904817 1.1155621067978747 -1.0875473763135566
4 1 3.5529292620375843 0.6417309382266367 19.5935513482423822 0.1194182566903473 -2.2575912415992230 0.5151457408772608
3 1 2.1398645368911380 0.6382938566328965 19.6841663122001620 -0.6275742256863768 -1.5803401890718547 0.4434966032042537
13 1 4.2585200869794200 1.8396210965465569 19.6615988165242932 1.9475652125453147 1.7702305239816052 0.4920857140308675
12 1 3.5902209776643725 3.1234890941828595 19.7380839191194042 -2.0912398931611627 -0.6369136532843411 -2.1390617333726363
11 1 2.1534377770212045 3.1022855402386638 19.6402150819361481 -0.2750377949605626 -1.1543781556008399 1.0715833914322226
14 1 5.6691055095912368 1.8636433042219109 19.6141206302047699 1.9596331630632520 2.0827740512687205 -0.5049189560153120
8 1 7.8277628874408922 0.6859693940808105 19.5786759836373037 0.4753661683661365 -0.6258694624686143 -1.1848091389713384
7 1 6.4442188440015196 0.6655725784350399 19.6683365546461353 -3.0251799195721727 -0.2706237434477154 -0.6539536720127573
57 1 8.5446222409587040 1.9058334184547738 19.5262796754813763 0.5127974154038593 -2.1474273636119428 0.3727307007375820
15 1 6.4172659856876253 3.1173682291463383 19.5759369842115980 -2.2094144665987141 -0.2706770013034341 -0.8965927945447928
16 1 7.8246883284478450 3.1181684448780089 19.4970336467320315 -0.3283377565442119 -0.1906588684176827 -0.0429050927708128
20 1 3.5352089878313877 5.5864316997542005 19.7213131458275193 -0.6720409819464391 -0.6894820225150005 0.0973040286492735
19 1 2.0773461832938303 5.5660840653796182 19.7187593737576456 1.9566820975386354 -1.3879366293873514 -0.3506261540934229
18 1 1.3896616151116363 4.3340962319126213 19.6235229183413225 1.1064948871439799 -0.8354970998815003 0.0852004661719801
21 1 4.2807764063336169 4.3314740640386553 19.6984261787814035 0.3444302518573939 2.8985511376831723 0.4339033604331404
26 1 1.4112307546623239 6.7879491362731637 19.6345883351337420 -1.0772723523693735 1.0498893248860020 2.0627638663526717
29 1 4.2521323420457273 6.8679996662132909 19.7579559788043646 -1.7648163182437682 -0.2735214785953854 -1.7339016810460963
65 1 8.5199125708810897 4.3490109029944257 19.4495805569518367 1.2685597339394357 1.7881743156676202 -1.0635793096096102
22 1 5.6965362085683404 4.3803845985859082 19.6193900993024428 -0.8497866516619934 -2.9422257253551085 -0.0046397588236797
23 1 6.3996185529560830 5.5711706407251658 19.7007155118168171 -1.7038837230553168 1.4954980117203558 -2.8139647875602742
24 1 7.7804005657660982 5.5911427764114947 19.4583699133410732 3.1199000300604243 0.7905097584215084 2.2283156777187783
30 1 5.6535812809643113 6.8604765763641051 19.6651250801127091 1.8804787089387054 -1.7235808518362716 -0.0941343638933447
73 1 8.4950056833366698 6.8489756092798819 19.5233872613857535 -0.3355033743816730 -1.6189935703515226 -0.1148413331161170
34 1 1.3981231925408251 9.3252858571351975 19.8423636946441846 0.8304974694060319 -0.4347314771264382 0.6509108666539161
28 1 3.5159545289908478 8.1008236578104231 19.7056713330188167 1.7004533809207012 0.4558148560075725 -0.1624531493193831
27 1 2.1350933510757093 8.0580289130956455 19.7814422797106566 -0.8423458329488864 1.5120703574316565 0.0862353599333343
37 1 4.2357348699931894 9.3377932267335773 19.7439424576722544 -0.6032501437496963 -0.0978040579484348 0.2109182618292256
36 1 3.5223020349306382 10.5486958098193604 19.9480412322516223 0.2117867314924382 -0.7424252584651019 0.2247580763752519
35 1 2.1025583052549708 10.5661139984774337 19.9431504907161390 0.1245193929891241 -0.1925490809839723 -0.5921454807554782
38 1 5.6498131440948223 9.3167373469050148 19.7552253974827856 1.9039472727476903 1.0052498391915761 1.0005661602657430
32 1 7.8050737698844150 8.0597788034215245 19.5757346779263379 -2.4776644269913817 -0.1851019525026464 0.3489539714545629
31 1 6.3786847740274721 8.0770490470391820 19.7138872860168703 0.0522196847087180 -0.5580277984968127 0.0801529479905906
81 1 8.5307086510977701 9.2710821005751747 19.6800018112515005 -0.3939169224102242 0.0446378715821150 0.0249481291738222
40 1 7.7994959345934101 10.5146827842324573 19.6982242965560630 1.2622667191600601 -0.6158734134677605 -0.6495690741538667
39 1 6.3754406341140255 10.5384854487418540 19.7633086600707024 1.2610989782657185 0.5985654744898938 -1.1521139271882406
44 1 3.5931306705805861 12.9881089376563850 19.8974178234748926 -2.2442088564303933 1.1488286962712684 -1.3925277713743913
43 1 2.1687949217840350 12.9956454443529221 19.8719190539211468 -0.0623693330565275 -0.6586609766026033 -0.5896488611824426
42 1 1.4177350510682376 11.8157273427739984 19.9431191175706282 -1.1118473713261379 -1.1186316449472280 0.7977672335607320
45 1 4.2736710635643265 11.7678937512922008 19.8762141756322279 1.0811279896715131 -0.7682564750517041 -0.1250321800489548
2 1 1.4033295541472923 14.1793654480622191 19.8380014592369172 1.7309988563678169 3.2347993501313010 -0.4254933083743744
5 1 4.2841969119429120 14.2007165810235527 19.7138673232219155 0.7580012405602985 0.7451528270502750 1.2749512670143448
89 1 8.5497024425337180 11.6949575046715530 19.5893210166070020 -0.4611428409602432 2.2448436320945229 -0.2710523815361895
46 1 5.6944719967341184 11.7686765539448981 19.7693783087168917 0.6112995171818476 0.6990151331965990 0.8427436553068699
47 1 6.4278756565667283 12.9878022430747517 19.7076296924669947 1.4185293304042794 -0.3183060056791442 0.5264916967837439
48 1 7.8468508384994209 12.9654883629905235 19.5684530818644724 0.8272251256046388 -1.0548776133810898 0.7257930529262933
6 1 5.7455875074448288 14.1926971626354756 19.7356691078353350 -2.9744713408210570 1.9985016582446586 -0.2410089825572426
49 1 8.5483209191085407 14.2046718237527028 19.5672995988084679 -0.1467876656758067 -0.6538112149563191 -0.6731832897363574
58 1 9.9800990458027652 1.8526169473818002 19.5461325801272920 0.4421390668260974 0.9524067782587026 -1.4861067506062595
52 1 12.0985464447703208 0.6350232959881467 19.5437080333392821 0.6540867333035123 -0.6028823792235152 1.0097913118312438
51 1 10.6925614056148941 0.6100900642290135 19.5382855751057676 -0.3128959315783164 0.9389402582191074 -1.2511603396648561
61 1 12.8226838417345075 1.8917848369137156 19.4845219504292579 -3.5242943520715970 -1.3096322098626874 1.2160502101411321
60 1 12.0600007949256618 3.1284950049075739 19.4711895951903067 0.7635602061085436 -0.2742577748460207 -1.0226010277065734
59 1 10.6549097085860662 3.1133034799774033 19.5217408938093868 -0.7289700382972665 -0.4769154023247925 -0.0583699387360169
62 1 14.2147007817921214 1.8765176197771458 19.5525914469174324 -1.2370095411053372 -0.6783355176494236 0.5943444766033110
56 1 16.3541868745628705 0.6349811486372047 19.6161098208139109 0.2156835966656139 0.2966581998712391 1.1338499270240254
55 1 14.8958237802878628 0.6110515570001185 19.6842256878609163 2.8952294267662348 0.7748476829849043 -1.4311958497793702
9 1 17.0794822570144191 1.8637569901383095 19.6320400751287387 -1.0867505455047852 -1.3045672680538360 0.0608727024193391
63 1 14.8936350501142662 3.0916275038099266 19.4281693103246376 4.0425336535419909 0.8335860884056957 0.5974954163595613
64 1 16.3677571709992549 3.0605633138507384 19.5010718506457863 -0.7181550586016859 -0.4837034307267315 -0.3621159272427318
68 1 12.0361730897405881 5.6371791107482601 19.4853914405449551 2.2519519066694516 -0.3504906472642439 -0.3253245902845015
67 1 10.6514947753007743 5.6340724900863250 19.5126385128957516 -0.6591716038220413 -0.7201093931422313 1.2260619613394956
66 1 9.9744621278104457 4.3469673130169575 19.4895975787159443 -0.7194065693805765 0.2881769409077646 0.5352071577603141
69 1 12.7918100850666008 4.3779545340372668 19.4381407627317095 0.4490849779574201 -0.8730505410987847 1.3097954267825096
74 1 9.9007237764878600 6.8890514101346385 19.6016260833710767 0.3864015162483634 -4.2830599599212054 0.1080152318253826
77 1 12.8053553116623835 6.8364774929011274 19.5197872004203283 -2.7294346852680924 -2.6647020145404907 -0.5089015949364413
17 1 17.0562378735513356 4.2985105670645032 19.4966033942627668 0.5356453735814886 -0.6399869578084789 -0.0094053074096643
72 1 16.3470449917354514 5.5199830151090570 19.4820202240431470 -1.4054423364534621 2.5510513069894594 -0.7391355225236387
71 1 14.9211738965141905 5.5709780909047275 19.4370965504523951 0.4298744279861059 -0.4443467290375943 1.0613120450519187
70 1 14.2405089595976548 4.3330944809101828 19.5017291731950877 -1.3679766359228298 -0.1613653326047946 -2.3463918450348498
78 1 14.1749666400180256 6.7697394134994626 19.4752820419252579 3.4508919262009430 0.6779947389241443 -0.7912391514668449
25 1 17.0634880737865871 6.7880104721797325 19.5723134173241711 -1.1971963304826647 -0.6849694210993488 -0.3503039906554221
75 1 10.6395397996253269 8.0400403232586495 19.6573932238326599 1.3484066842583295 -0.3677339900977068 -0.0364647477484237
76 1 12.0730587643075147 7.9993494270722447 19.6990326585585187 0.1626298489090815 0.4842797096068825 -0.5175744818970016
82 1 9.9485914252571774 9.2599251145239947 19.6644674706945182 -0.7605625866681321 1.0163175809951361 0.3248568755303933
85 1 12.7740754309334292 9.2149240983800436 19.6885280443272883 2.3801756806356456 0.2776070978418004 1.6932061292901468
84 1 12.1609562836533485 10.4757700350318999 19.7704409202218336 -2.3148359195798731 0.0665824678210440 0.6913749859075061
83 1 10.7197137454220055 10.4730235021513458 19.7255289242011038 0.5652252242586855 -1.0224028475807263 -1.4995426900665478
88 1 16.3494053434462217 10.5364476089729937 19.7463772404415288 0.1038326195842180 -0.4588669222836015 1.4735168117999136
86 1 14.2257228044765061 9.2060908205029683 19.6562776497107805 -1.0858069076109507 1.4882078535891705 -0.6073152122285583
79 1 14.8943027066832556 8.0085259405590108 19.5302890613228541 1.9674182764530996 -0.3198434558745797 -0.8725819322101086
80 1 16.3510275117887787 8.0316852620965005 19.6112552770820372 1.2340945169728275 0.8721000205975161 -1.1466906339784684
87 1 14.9362065001433812 10.4515757221795731 19.7786358764781909 -1.0449720514344607 0.0183040252917200 0.6804032721508417
33 1 17.0792231683638498 9.3044259531936682 19.7496811657000890 -0.1672823723833469 0.2544797018321208 0.7492255452276878
92 1 12.0651386670835734 12.9325856606509166 19.6609686854689691 2.7159877230855796 -1.8527719450884939 -0.2972007671927914
91 1 10.6763010178202933 12.8740317615023159 19.6642684543393038 0.0454613892262712 0.5895369440333345 -1.8596792709713443
90 1 10.0015973948322330 11.6388280755610687 19.6734311302020899 -1.6673814571368639 3.3456302309552939 0.7819288540133261
93 1 12.8160461506098464 11.6975162019840067 19.8459321255725918 -0.1994028551826522 1.1613091262003341 0.0113209331350446
50 1 10.0101556759986785 14.1294290897029686 19.5568822965150808 -1.5874365292287407 1.8186407617385703 -0.0923888123233191
53 1 12.7806740965996060 14.1469534286177083 19.6471435058135775 1.4537797091688494 0.9110594139300946 0.7976959394480598
41 1 17.0458490663276940 11.7673008561696619 19.8369334639697215 -0.1709600492871584 0.2208069567284251 0.3485736389566028
96 1 16.3253551406387096 12.9671977678512640 19.8215084532424086 0.1454412181652811 1.5771615738481510 -1.2065883526635488
95 1 14.9006854150400727 12.9332740763224709 19.7136128788258738 2.5185872345510645 0.2675592038466383 -0.0966165151852166
94 1 14.2290786693438580 11.7141106002992270 19.7664025305256708 -1.6976085279580557 -1.8146678149175939 1.3442744791887424
54 1 14.2245865255029500 14.1862168935130750 19.6356454809662040 -3.0037556443884581 -1.3915760693097632 1.5050970826807968
1 1 17.1046166751286677 14.2434567551750284 19.8239682658238792 -1.6699663526106423 -1.5986928489957986 0.0518094392332206
