ITEM: TIMESTEP
4400
ITEM: NUMBER OF ATOMS
96
ITEM: BOX BOUNDS pp pp pp
0.0000000000000000e+00 1.7084949165859321e+01
0.0000000000000000e+00 1.4796000000000010e+01
0.0000000000000000e+00 1.9999999999999982e+01
ITEM: ATOMS id type x y z fx fy fz
10 1 1.1513912518175489 2.2221873884426184 19.2744100205636499 1.6291717367232315 -0.5841541665589843 -0.0232405638111525
4 1 3.2918664798154458 0.9201291632345706 19.3419583117794289 -1.4055231533094537 1.6236056862834338 -1.5246554867886777
3 1 1.8783876030082542 0.9559011456984616 19.2148880037290546 -1.3026129413164673 1.8828871698818594 2.2740492014263891
2 1 1.1470639408076770 -0.2597044126419749 19.2766905418644505 1.0455499078636505 -0.3115133886502984 -2.2174015044424213
5 1 4.0191464459766522 -0.2892291685532171 19.3409282335428294 -1.3603798828162175 1.0701262011456207 -0.1044623715694621
13 1 3.9992246351622911 2.1624199908885267 19.3314765552047447 0.7915922910532791 -1.0068222131982980 1.4473779008116887
14 1 5.4173759062018467 2.1789329641245163 19.3323581963008806 0.4156107099245334 1.7571416055539737 0.5544322828460425
8 1 7.5463190763628498 1.0321686701462072 19.2360044478508492 -1.0488573896970670 -1.1770961060749843 -1.0742662454103211
7 1 6.1676143115203432 0.9750531492297800 19.3140135055193589 -3.0880976805039912 2.1622494606451985 -0.1879669869964362
6 1 5.4315238107803667 -0.2268013872528983 19.3645319863327785 1.2874906527553724 -0.2465604351834805 -1.6001125272498884
57 1 8.2098236829836253 2.2503490979087326 19.2425924863332796 1.6245476504163252 1.9676467009622525 -1.0133492810535321
49 1 8.2260027542689897 -0.2130453635935378 19.2530635626387507 2.5623867033542673 0.4209791758537830 -0.8136554700612956
20 1 3.2968435213793987 5.9249438981812643 19.4586954465851178 -0.3463081111921527 0.5579627891443059 0.8265222021947661
19 1 1.8830536246259244 5.9241109209934404 19.4808757572159728 0.2645565724663338 2.1666192582335775 -0.9328950848453128
18 1 1.1896658095331281 4.6991367690966657 19.3364208706591789 -1.2933846812384067 0.1521629198823452 0.9567385596745105
12 1 3.3203544512896195 3.3998734717067847 19.3874915518940583 -1.8199031172306754 0.8541250966315962 -0.4247850116206120
11 1 1.8653016675741811 3.4536452204282289 19.3281774468676701 2.4306721382841547 -0.7122584119973356 -0.8966124038515912
21 1 4.0217253837242293 4.6824298439549219 19.3520036765708277 -0.7625060357426128 0.5616043520828595 -0.7066793752396517
16 1 7.4968029349966052 3.4822352320164360 19.3289467850876129 1.5412867746377954 -0.0340467677867990 -0.3913041625527659
24 1 7.5516188971956346 5.9789489555084669 19.4214029857025459 0.2715272640451398 -0.9927131901333208 0.1586711194571906
15 1 6.1138390698181295 3.4519284567430990 19.3328851171103366 -1.3085556626382451 0.5250636426158684 0.1326388896652315
23 1 6.1557437692560777 5.9678273493499399 19.3409599896174136 -1.7609399275833537 -1.9052136553468824 1.5910348348341565
22 1 5.4256291183919529 4.7340959930742921 19.3312931883844357 1.5699389544724935 -2.5367912092896132 0.0921573185884971
65 1 8.2180123030657146 4.7306694099059374 19.3567871367250497 2.0827061522710513 0.4426282557522216 0.0009114272981607
26 1 1.1224838957703107 7.1973220389620547 19.4060521452123744 0.2348926280669252 -1.5925750814529271 1.7200444385720057
34 1 1.1328704602761559 9.5859032888448699 19.3914047651321475 -0.2066973403773168 2.4686402994428156 0.6224281472425561
28 1 3.2725903322998446 8.4068357967628966 19.4668246680579067 1.3188903984405274 0.9599110407895203 0.6164036765045291
27 1 1.8370019293670992 8.4064658648075081 19.3895745555951571 1.4251541393018621 -1.7760784937870051 0.3202543773247665
37 1 4.0294023015133860 9.6592686220459747 19.4081866056614771 -3.1867868616565866 -0.6590056285392252 1.3428250014240668
29 1 4.0202684040570587 7.1906350740064147 19.4315379584544807 -1.3819983123200903 -1.4672670274635065 -0.5056679717800181
38 1 5.4015218751455993 9.6281731016201810 19.5004507654668018 1.6878386352348962 1.3666451194920592 1.0755148805948038
32 1 7.5556899876455104 8.3753474584711185 19.4636066733426247 -0.6353930003956092 1.6774685758837307 1.4932671042282442
31 1 6.1336350670835671 8.4169322705026772 19.5415968752310825 -0.7271796793019840 0.1033322887015702 -1.1737326539150224
30 1 5.4577573633387555 7.1599320597470184 19.4945721222858346 -2.7759284260399708 1.0587160357803085 -0.5846699947857037
81 1 8.2597442835327204 9.6292855251185170 19.5295673496943571 0.3770123431467702 -0.4600740406309132 -0.4204935664476618
73 1 8.2593883468332479 7.1856928150438639 19.4369227416223431 -0.9780367681495397 -0.2362762065733006 -0.7150923169072202
44 1 3.2952550473808944 13.2828036283355679 19.2153116756113320 -1.1825628772809251 -0.6235459851146348 -0.1973804591018631
43 1 1.8552953979834186 13.2887457344690763 19.2496466131389603 0.2025001123724197 -1.0248316420023129 -0.2659583311672444
36 1 3.2942174813882135 10.8450912943267888 19.3303149045117060 -0.7363568176805759 1.6395040214292516 0.9093050464519766
35 1 1.8184540979082726 10.8127590958724866 19.3397960913291378 1.4784466074079807 1.3597517326082065 -1.2706657056576618
42 1 1.1180004932902179 12.0757304266298391 19.2886299088339683 -0.3470337687635205 -2.3111547159914236 -1.3728701939736312
45 1 4.0272215704105072 12.0818642850582627 19.2903985836527561 0.1496734641127521 -1.2374680775370557 1.3532365337445125
40 1 7.5811471461945059 10.8652969281820422 19.5266102960083749 -1.7085974362596554 0.6008677881462249 -1.1336313783930740
39 1 6.1260594160230823 10.8442255359219519 19.4923967286307480 1.0492218189147493 1.2433331404735670 1.3975453818825703
48 1 7.5745044821396474 13.3615632562880631 19.3139238622746525 -0.2036933907743079 -0.4935547235411704 0.4940491370317159
47 1 6.1496579285021431 13.3443532187704115 19.3179992277716437 -0.4156859393732478 -1.2912861310280359 -0.2690540022472091
46 1 5.4528921395962735 12.1042411111501185 19.4732521162686218 -0.4757420518148372 0.5769845776706660 -2.1086760678794660
89 1 8.2647060619746782 12.1008807176173327 19.4169883406020993 -1.7107638727787453 -0.2712560222616768 -0.1738753596581856
50 1 9.6662336290067685 -0.2140047171109242 19.2591674255869840 -1.4199131497783219 -0.8125927181808278 0.2487263683770911
58 1 9.6423290716583949 2.2181441419482253 19.1815096507033367 -0.1217876172756418 1.2324142398699993 0.5355049496316565
52 1 11.8499809937359899 1.0126014254586195 19.1260504705864491 -3.1482498181497851 2.1575803045351556 1.1276146948865207
51 1 10.3803630176578920 1.0154279283660175 19.2263056130787398 0.6365324338477912 -0.9186261062720439 -1.7703573374244654
53 1 12.4971178227174065 -0.2104420883649898 19.1486545015304657 3.1364785725968440 -1.1545391072666047 -0.4691257538536264
61 1 12.5293621141450977 2.2674866233643027 19.1933366837887860 -0.5154349791707278 -0.2729455226873914 -1.3479646669345211
62 1 13.9420990394530495 2.2458480523715023 19.1530934471564898 1.8739419778756525 0.2317410148011292 -0.8334984048017617
56 1 16.0930105443914115 0.9563334963219624 19.2081526670965061 0.4649243105847746 2.3767883287458496 0.0774408740626212
55 1 14.6634335260183430 0.9508150691422307 19.1317971832916172 -1.0509457997131986 1.6021647489579320 0.9315481224530396
54 1 13.9655437651307999 -0.2377100814466841 19.1271492589606673 -3.0001916513562445 -0.8237422983270899 -1.2247709923564571
1 1 16.8263997127920177 -0.2079185519340883 19.1777865931661857 0.5956739078801920 -2.9268045168477936 -0.2396017612056194
9 1 16.8352340989619655 2.2389200700656176 19.2428465521032059 -1.4430087349613090 -0.1540464556651495 0.6540934510111476
68 1 11.8535838098942321 5.8997314519321975 19.3406566313009982 -2.4878654882429467 1.9700005162980030 -0.1427468260497599
67 1 10.3879647727941595 5.9537864145352719 19.4007341093055850 0.0761112793292990 -2.5044231689608427 -0.3225519466173279
66 1 9.6456926521122686 4.7034229318071459 19.3147077067714577 -0.1104038343178142 1.0395397825980446 -0.9533849707540364
60 1 11.8321709864015769 3.5087014531116245 19.2867191216003704 -1.3852884660388116 -2.1412343721899609 -1.0841635652597661
59 1 10.3994513333969572 3.4524404462144225 19.2282777694800515 -0.6264800458839010 2.5834092749554416 1.3605528293010825
69 1 12.5647056482325894 4.7078297697553921 19.2829349874966667 -0.7552840065005546 -1.1228156042909450 0.2752449828507407
63 1 14.6719505612139773 3.4539375768634919 19.2502973895224052 1.0250429100830234 1.1635333606241383 -0.9560292065621165
64 1 16.0822170209701234 3.4593222602238605 19.3114480775389126 2.2364392116836873 0.7495205398636249 -0.6275413176399041
70 1 13.9509383985445794 4.7068297926757419 19.2233717945415101 0.8938102597220374 -0.2981566722480725 0.7472486393728272
71 1 14.6620789338287061 5.9240518251744128 19.3335687744039291 -0.3643539966265106 -0.4085351574203699 -1.1406707155778710
72 1 16.0628138248648789 5.9165034134723866 19.3670193156874326 0.1500931901626774 -0.3434279919077299 0.4493275711306454
17 1 16.8070307753193973 4.7131843383879097 19.4507547949459543 0.2807824367026832 -2.5843682449833887 -1.0453120285566724
74 1 9.6556172765279502 7.1719178325846062 19.4237936713085517 0.6667695476321397 1.1177569677089501 -0.1626179635944719
75 1 10.3819965176053639 8.3737753540834508 19.3234311497971589 0.8514757979691443 2.6420238471067199 1.5991143549999332
76 1 11.8356284026332013 8.3991907390147773 19.3064141775050153 -2.0831985100433692 0.8182073516087450 -1.2682962183889670
82 1 9.7051173438700502 9.6575152899459322 19.4065153008512681 -2.0085339687792310 -1.4281524167151247 0.7243494649268606
77 1 12.5488107664391446 7.1968295404760818 19.3185687124294319 0.7934229186506599 -0.7958876587855637 -0.8804232995529806
85 1 12.5204312162720939 9.6849838511081803 19.3091167275692008 1.9283663281734333 -2.3227752697021797 -0.9635364295384879
86 1 13.9556448628747027 9.6790699001372591 19.2271856088476163 -1.7852609139883684 -0.4752456547362431 1.2548504536464438
79 1 14.6472672054146518 8.4127634880351820 19.3350202312309705 0.4288007619572241 -0.5800262354811543 -0.2560062370868709
80 1 16.0484305190297150 8.3703768879919380 19.3755554525229812 1.7844484941693615 -0.9861730847200494 1.5487405650112545
78 1 13.9601803847205463 7.1805809698560914 19.3925542390627399 0.9347541483397506 0.6511510019638078 -0.3545542067228903
25 1 16.7738902674200467 7.1250911690576846 19.4980409830691102 0.4504132695886930 1.6970630178718538 -1.1333316714710990
33 1 16.7914150394908930 9.5760674896992484 19.3192594775973632 0.4438260912929377 2.2901149030478334 1.4891310985346555
92 1 11.8198761971185746 13.3328211312893448 19.2689128152755735 -2.5487444426199657 0.9702048886110295 -1.7209409260421902
91 1 10.3301746077702159 13.3224745850402684 19.2415282384037134 1.3947210636187428 -0.3513054734102028 -0.2180409818951013
90 1 9.6493484685975091 12.1078129616316250 19.3885907748044986 0.1372115064867179 -0.7861400396206193 0.4966828081901972
84 1 11.8394820524877797 10.8800549877108441 19.3918804895928041 -0.0375320765236726 1.1275132698380483 -1.5776486277099673
83 1 10.3896496829069847 10.8795784909597018 19.4120474149918891 0.3612956451435956 -0.8950492203129110 0.9148778783950683
93 1 12.5398606139644837 12.1406234471478900 19.2394708554108291 -0.0282156025393926 -1.6635375915505353 1.1037387930088074
95 1 14.6940675787418193 13.3550465548718353 19.1927753846349383 1.7311250676644085 1.1242492017097774 1.0467275740717839
94 1 13.9996672154144868 12.1682024795978183 19.2663931206002808 -1.7942685796780720 -1.9239641350720542 -0.5410407524134988
87 1 14.6699265808679478 10.8891351791891839 19.2534390382098017 -0.1124502263827044 0.1036003497964395 0.0033966247768441
96 1 16.1236741186134687 13.3476904040785715 19.1674313644147496 -1.1725151850995341 -0.6443535121102474 -0.8240245937657700
88 1 16.0835136536062393 10.8252113434913575 19.3697223253085333 -0.3806426770199780 -0.5190407690475374 -1.1751726839532664
41 1 16.7803518315248716 12.0788957841250930 19.2220860233028397 -0.1524040835132126 0.2042820065292728 1.8528366249130361
