ITEM: TIMESTEP
4450
ITEM: NUMBER OF ATOMS
96
ITEM: BOX BOUNDS pp pp pp
0.0000000000000000e+00 1.7084949165859321e+01
0.0000000000000000e+00 1.4796000000000010e+01
0.0000000000000000e+00 1.9999999999999982e+01
ITEM: ATOMS id type x y z fx fy fz
10 1 1.0557929070902887 2.2680383468955587 19.3876964731934542 3.2306515967659224 -3.5592673012514195 -0.6212558889705000
4 1 3.2770220885043222 1.0104831305796815 19.3138329189283340 -2.6364742755415254 -0.0183529879410896 -0.0676055905395437
3 1 1.8252298017735056 0.9791321763746982 19.3080927461405203 -1.1463705804311743 0.6705916636718688 2.0123824320297272
2 1 1.1175395644068140 -0.2624716808439874 19.4212628702889702 0.4825454927614500 -0.2139397044536294 -1.2574138315847128
5 1 3.9738338205078447 -0.2177197935552136 19.2941434479961558 -1.0968500586188819 -0.0216532523159632 1.2233685435898602
13 1 3.9774247376894771 2.2462100337664839 19.2435964656896736 -2.6109945832012649 -0.4722334361302761 0.3687732102669492
14 1 5.3654026391839933 2.2490218760727525 19.2799484540149564 2.7828130767311405 -0.7949406614851098 1.4249955812826340
8 1 7.5690955372335091 0.9874397545986833 19.3608344313163947 -0.9805944669188760 -2.0422031683874411 -0.2944182365189152
7 1 6.0764885931587385 0.9806625194901497 19.3024481818974820 1.4733282142556261 1.3160096007732918 0.2933410793511859
6 1 5.3650038147384045 -0.2220232766092001 19.3529180886906751 2.0753481797653990 -1.0100753978587644 0.6610640256230975
57 1 8.3035200388565205 2.1928953738836241 19.3308294269578127 -3.9146409129773510 0.5467731510344377 -0.1459066599827651
49 1 8.2405063769894902 -0.2633223598350344 19.4139764221205198 1.6350539547915237 -0.4937549563721703 0.1384687073107612
20 1 3.2475066434392663 5.9109096269819519 19.3992186535818369 1.1901756133571311 -0.2758369743341316 0.9392309901423882
19 1 1.8293841840815848 5.8817510438953118 19.4312106902408779 -0.5881994971051766 1.8812293530760855 0.5122876347643353
18 1 1.1346682275088404 4.6453181263441392 19.4085703447266447 -0.2399090006464955 2.0194704126747132 0.3320984765653724
12 1 3.2427297559848238 3.4631091954302451 19.3851511290579879 1.7880525341219458 -1.8166137608912363 0.0785973466500228
11 1 1.8366943818687054 3.4335314023965915 19.4101797379331309 -1.9807457813270615 0.2742485775427032 -0.7599030214302123
21 1 3.9524248320501232 4.6899845967738942 19.3426089260705005 0.6187428747540867 -0.2785704103662054 1.3470902575999859
16 1 7.5393178724884073 3.4051102973584535 19.3132346266415205 0.4827580430964434 0.7496644319804097 0.7688308824984244
24 1 7.5533176261173409 5.9267037839963397 19.4498768153612964 0.5995754220945729 0.2858943268368648 0.3328547313665827
15 1 6.1338749347137034 3.4294192050156274 19.3419606559665027 -2.2187710386891353 0.4853734909436848 -1.2659888729944313
23 1 6.1051716826734923 5.9395401680999145 19.3959076548385383 2.1355474534827628 -0.9018479693911151 1.8075276514463692
22 1 5.4109118614197591 4.6963915524326270 19.3428397216735313 -1.3133105519501083 -0.3139374633009366 0.7737708103116770
65 1 8.2378775342803898 4.6575459293221897 19.3058273211420754 1.4078674106049669 0.9378043831553373 0.1779766314271738
26 1 1.0880370781001798 7.1354239457428976 19.4051695138705504 0.2245694208165216 0.1222710442186560 0.5105658879170918
34 1 1.0667636509322713 9.5601448452854036 19.5469946020467980 1.7501629434071226 1.6892868234350513 -1.7268772303371240
28 1 3.2615993608354517 8.3458198048408931 19.4424115660420966 -2.4447790537116192 0.2319724634276965 -0.0779287169537019
27 1 1.8070159549420797 8.3528964387508804 19.4771357988855272 0.8156139298045004 -1.0392510456725705 0.6651511342784910
37 1 3.9319347430636431 9.6012524226575326 19.4388893080083385 1.4837227860700384 1.6705837237238779 -0.1561506188621684
29 1 3.9553372018213029 7.1453671705953532 19.3525700576289950 0.5507177159249321 0.5304412740180094 1.4251005424894272
38 1 5.3751265532021151 9.6810503980054818 19.3675543113745832 0.3861633349670749 -1.9049661202728152 1.4976438098135834
32 1 7.5479686891554190 8.4010510722118443 19.3832529351742053 -1.0248312995053550 1.0343434657191295 -0.4358323037783065
31 1 6.0888149578452753 8.4282245252551569 19.3807316510085634 1.2362077935561240 -0.3683627807596140 1.2123640018637585
30 1 5.4029199924129223 7.1779145654470504 19.5139832916921172 0.4308585865865133 -0.4007297919751125 -2.3200358530516088
81 1 8.2772138768023193 9.6204706112179341 19.4675563251410395 -1.8890797625498523 -1.2094697133103494 -0.1540364621125092
73 1 8.2742038647898930 7.1598238631999536 19.4462682158619664 -0.9278159521778238 -0.7074972261882539 -0.1222804955127662
44 1 3.2743294994598671 13.3101820365465073 19.2915000417801323 -1.7716112281825802 1.5794954525228708 -0.5866025011329965
43 1 1.8394350165441027 13.2948346771861221 19.3473846058840664 -0.2120472733062870 0.2008744902403937 0.6933092936213141
36 1 3.2653898699232369 10.8718421522918440 19.4903081816611206 -1.5128879822674353 -2.5042303340927097 0.4581533523464747
35 1 1.7959428045887509 10.7641596728686739 19.4986792414859060 1.7336998191041717 4.1658742057198337 -1.9228090590773277
42 1 1.0823733822819561 12.0404861321433376 19.3237904391817992 3.0692936812782197 0.6778056538667880 -0.1352409307393412
45 1 4.0057302883796844 12.1068361592221390 19.3346032634354437 -0.1264650363118520 -0.9922023652688050 -0.0504237176164357
40 1 7.5366436200340550 10.8506660597456630 19.3995575340679558 0.1306100937321530 -0.2901086099240385 -0.1511683855905719
39 1 6.1056237308877890 10.8952010217092798 19.3800959600826630 1.9859567242572256 -2.7353756197785324 -0.0799933199896531
48 1 7.5295008338476084 13.3103458492084918 19.4154921780620242 -1.0359552570630088 -0.3562093127414395 -0.4425802766885349
47 1 6.1111309622068113 13.3476398027893879 19.4274699834220357 0.3134572959375035 -0.2173371360719912 -1.4759788714511501
46 1 5.4176061630213619 12.0964787761748678 19.4223837883213264 -1.4714908133450835 1.6757227137008852 0.4416563565930344
89 1 8.2188300961788485 12.0756366144481220 19.3971875983214765 -1.7175421646097089 -1.3183053000703664 1.5188015258266128
50 1 9.6744603862053573 -0.3199940809477010 19.2966497423614456 0.6189170374685806 1.6170813221163662 -0.3463950156220006
58 1 9.6739215845200146 2.1731091104395825 19.2321318345073102 1.1854225939802625 -0.1728672982862723 1.6044781603489486
52 1 11.8551913361819210 0.9177108233146134 19.1983109261551199 -4.2259997517903036 0.5323798297386959 -0.0621340380177633
51 1 10.3848796343261203 0.9010372134729349 19.2790536099478622 -0.4432222622036797 -0.1489660644924087 0.6702401181023895
53 1 12.5045453745907675 -0.3018879783122054 19.1633719711645583 0.7968490731865477 0.1619857970916992 -0.6520161550854914
61 1 12.5206054488038401 2.1603580494775030 19.2054136789329952 1.1714399962220028 2.4268563632393549 0.1529578677075054
62 1 13.9509666648279964 2.1562323925759763 19.2426170965132144 -0.3522705854081405 0.3223503749763130 -0.9713631114074108
56 1 16.0687339576278596 0.9340634379830066 19.2698243884622507 2.1032238595264787 1.8158424381533078 -0.5551514577027287
55 1 14.6821762018777680 0.9246813797591684 19.2292403808288839 -0.8935889760310711 2.2558051997543500 -0.3155854106645826
54 1 13.9645135183684204 -0.2451429720901541 19.1747678890677449 -1.3727001889383554 -2.9165501033988726 0.8766615974135523
1 1 16.7925431947240433 -0.2437019310204331 19.2843254671035140 0.4044417536166348 -1.9682393511584033 0.5051006133296483
9 1 16.7638589746898781 2.2096341383001290 19.3068933528604560 -1.0452181273707004 -1.2549241229031072 0.1551683306107707
68 1 11.8562757590449017 5.8886611621316387 19.3313581794427165 -1.2853191890137052 1.1315704292556870 -0.2011136386778916
67 1 10.3979620723495430 5.8850252467279178 19.3921252551655989 1.3335650216528530 -0.1614289371637978 -0.6525941031910993
66 1 9.7020519873394235 4.6969458120642429 19.2954824811658803 -0.8716425026556079 -2.7751067895830084 0.9128209756469463
60 1 11.7892197486788888 3.4385030392615179 19.2228095580472811 2.1544986568197002 -0.9491435379192933 0.1693589147418302
59 1 10.3882962185411465 3.3985012614603196 19.2637948600222195 -0.9831712524705312 0.9730009860233481 -0.4411056588305994
69 1 12.5448996100701340 4.6637714343202870 19.2757613619547961 -1.1388510137084451 0.1819839976984302 -0.1105728354169281
63 1 14.6286050742900571 3.4287252021815395 19.3084497823224019 1.6071084137941676 -1.0754407810043645 -1.1492637434213082
64 1 16.0393831647102196 3.4295255306786485 19.2729077417434809 0.7899122615726569 -1.1406844087490464 -0.8341630153621401
70 1 13.9549660313173103 4.6688499433249637 19.3316553817163594 -1.1544449465225781 0.6383140868803088 -0.3696987944452873
71 1 14.6562966780776804 5.8896458344726890 19.3911145552570368 0.8205625357364821 1.1671611431901212 -1.4700573893324738
72 1 16.1094651632076236 5.8816993322427216 19.3545832139454248 -2.5997434881151471 -0.3166662278132278 1.7223990276162819
17 1 16.7523284925318627 4.6625983945028686 19.3445373744901410 3.0411575457745128 -1.3371778393369342 0.2616833073141852
74 1 9.6753663840708786 7.1358295741442959 19.4572276113882019 1.2099030747609762 -2.5872537753606495 -0.1803914343712852
75 1 10.4029732454817356 8.2822882898498875 19.4786160272773756 0.9694159712371400 4.0588440942820405 -0.2127764057017485
76 1 11.8211950659646021 8.3342535150816577 19.4998108641988068 -1.5745803203030544 0.8099334279550239 -1.5456546735501422
82 1 9.6841210541652920 9.5810735743871014 19.4626289945174662 0.5917139716273351 -1.6349772553975805 -0.7304605289269508
77 1 12.5282962318238784 7.1530611076185551 19.3756080338905647 -0.3494797607542652 -1.5342029140833651 0.5962216675980465
85 1 12.5516903970621776 9.5455196963853517 19.4578837459171723 -0.9688977779426239 1.1951750806364538 -1.3883866394638835
86 1 13.9662642209745744 9.5786640780015659 19.4248409476615969 -0.1573261938274355 -1.4946442863420539 -0.7067913023492683
79 1 14.5951970000792404 8.3429810321092130 19.4672447981479841 2.5253959459131234 -0.3594442570465846 -1.1902762337259751
80 1 16.0500908881586426 8.3594089399158129 19.4322327221035032 0.4880711207524422 0.5777156162232434 0.0177473273786677
78 1 13.9426352370190880 7.1326753206831475 19.4110156517133134 -0.7699422889918710 0.1189261309061025 0.8364212694265303
25 1 16.7687464777797750 7.1273346638002062 19.4284059609511459 0.2750216664424758 0.9414533498658455 0.0451046378695348
33 1 16.7572613600071527 9.6270646338226467 19.4555463225166143 -1.6522741145826094 -1.8857937806826699 0.8518685889538670
92 1 11.7782005378871695 13.2391992393635256 19.2450884501529202 2.0211540602999967 0.8570390064156075 -1.2255912155937347
91 1 10.3603277716819182 13.2315197035128698 19.2703396447182058 -0.3364855804337552 -0.3576245822113315 -0.8326029706915479
90 1 9.5901682310206624 12.0249416313751549 19.3769231695431330 5.0784424240525521 0.7469946214342380 -1.2184738051795709
84 1 11.8313046498892760 10.7612768718688745 19.3368194142624255 0.5301727061900021 1.8590193092584806 0.9061654603519425
83 1 10.3958705915184826 10.8175530687342540 19.3947220014199573 -1.2007745568406398 -1.6658982304032164 0.5603828402312978
93 1 12.5170921955259509 12.0291630936794594 19.1561768177183360 -0.5382227723810361 0.1863273615237286 2.1842996460686837
95 1 14.6802377570407590 13.2919294484593493 19.2420760478030992 -0.7730863020785863 1.3280126935605696 -0.2237254322014237
94 1 13.9622194236747532 12.0669803038327377 19.2632154416902530 -1.1555144046281840 -1.1336027265166200 -0.8290289968726947
87 1 14.6660134698178215 10.7816104017557333 19.3986934286519421 -1.8185576594815240 2.1734942560886279 0.7565365850376690
96 1 16.0632131280806654 13.2698346183125047 19.2505470659600633 2.8069331284524059 0.7495745196554641 -1.0777527298668896
88 1 16.0596156608098219 10.8624793983497874 19.3993333908054275 0.0288743141946628 -3.7141493287331477 0.6378945331509634
41 1 16.7608027650216798 12.0406805580385861 19.2645836854319192 0.7708373179059227 1.1531715644618798 -0.7810646000626786
