ITEM: TIMESTEP
1260
ITEM: NUMBER OF ATOMS
96
ITEM: BOX BOUNDS pp pp pp
0.0000000000000000e+00 1.7084949165859321e+01
0.0000000000000000e+00 1.4796000000000010e+01
0.0000000000000000e+00 1.9999999999999982e+01
ITEM: ATOMS id type x y z fx fy fz
10 1 1.6319980817055482 2.6063651254258113 19.1211562258259669 -0.4279200049766542 0.1484780262982524 0.5026993053595452
4 1 3.7321768402489952 1.4245578111455104 19.1446977809130203 -1.2894499988387713 0.0038245333041735 -0.7262730562978269
3 1 2.3158199695575754 1.3637765645722351 19.0905290185556460 -1.0362154747220003 1.8629876505551697 1.9739423356746706
2 1 1.5953401385722714 0.1622160507243468 19.2018453100771573 -1.7157605770749229 -1.1514097532469996 -1.7658984615074409
5 1 4.4031702102467500 0.2064517235993615 19.0746873115409166 0.3833076584723445 -1.6309760122936425 1.0779493564753353
13 1 4.4293490239917892 2.6146485017583863 19.0905914282649896 -1.6869897254083410 2.0593154816194099 -0.0801786664175489
14 1 5.8168199648562755 2.6293358992824731 18.9840036039522708 1.6496516684956517 1.0582363305748403 0.2462103499154754
8 1 8.0163926308223097 1.4231776053546932 19.0640444705402459 -1.4577669758737293 -2.2290193169841181 -1.1202821145199016
7 1 6.5722446891175803 1.4508798864308190 19.0000892041198775 0.1271859182228547 -3.0993010982302769 -0.1768595470709198
6 1 5.8335270472952683 0.1817045660462315 19.0453456419771676 2.4136753075582944 0.2625442232647864 -1.0966869853494974
57 1 8.7208918918532969 2.6117283641559799 19.1216773186036448 0.3892743208052305 1.1793467587196012 -1.5839700519246478
49 1 8.7439328732586628 0.1718482373262380 18.9640084158217270 -0.3845584121583027 1.3303270952208728 -0.5820055923923602
20 1 3.7338955107092193 6.3357518845501843 19.0545558560323656 1.0242972885641857 2.3824297973912052 -1.2966766899603233
19 1 2.3421411171410402 6.3686680511721807 19.1431449396375015 -2.1402130933208325 1.5076913420973668 -2.3921548744148282
18 1 1.6718811201890098 5.1257289993260375 19.0557973822840339 -3.4995336267681556 0.5031079321867640 0.4243893775765474
12 1 3.6780070933740832 3.8506846781519397 18.9884184977480466 5.8975320224516290 -0.7396192476708727 -0.2233696220514260
11 1 2.3549158212632038 3.8685711886204643 19.0018379543727747 -3.8896298849994078 -1.4724311112526565 1.9295977602767360
21 1 4.4231744705953195 5.0952184867702339 18.9752593181287033 -0.1837104721619126 0.0712025386090024 1.1975933116060611
16 1 7.9585377855830126 3.8445930271393030 19.0642106471021684 1.6679664574579585 0.3324955167219558 1.1957970956040227
24 1 7.9845500134772802 6.2944195380894081 18.8441358269905521 1.4794132758782199 -0.9382493192925538 2.1875901634070027
15 1 6.5679559515809993 3.8559045700116505 19.0540075786588190 -1.9732829621936034 -0.1539206474053523 -0.1012240665299438
23 1 6.5936003150970661 6.3155566718539218 18.8513078894209585 -3.6115543180339058 0.9367459443635366 1.1658879965529032
22 1 5.8368534398067062 5.0432090644704379 18.9200361083660376 1.4048076813110137 1.7590698420167903 1.5000448223897391
65 1 8.7138040103995742 5.0569991075877248 19.0073632680905575 -1.8174269614636573 1.3879572491529950 0.0748410581817350
26 1 1.6170200510882013 7.6165710691611892 19.0652132930124978 0.9755599322953297 -0.7549650719915844 0.5753349905093235
34 1 1.6104936272019423 10.0693000294080157 19.0445022301085451 1.4876524473582233 -0.8021912320223141 0.1949254547549395
28 1 3.7716890511562080 8.8330845404008684 19.0656919248413459 1.0820357542256573 -1.4132440206540704 -0.7350891034866727
27 1 2.3825400002422579 8.8656258608137062 19.0304715324622471 -2.8742570792288640 -1.5605797055787327 1.2540021195732782
37 1 4.5012058733058575 10.0323410059412375 19.0499373597250674 0.1451479711996104 1.1948262651481270 0.5850806349424453
29 1 4.4594496790267186 7.5939322486518170 19.0540344981711378 0.9646178473513111 -1.2289276957323980 0.2937711350897180
38 1 5.9193086186447026 10.0365346455265687 19.0210052710047428 -2.0546760744786612 2.2087259978894589 -1.1561440155269604
32 1 7.9858614706804669 8.7469410817295827 19.0995772597490685 0.1276434012289097 0.5195889792463956 0.1889772960278532
31 1 6.5622532476157565 8.8124298511473445 19.0460587105016899 2.1753022614586821 -0.6648584509424936 0.3089694260255843
30 1 5.8738318730693937 7.5957225571207756 18.9373547748145015 0.3453753676607648 -3.3983777680880465 1.4179935231484393
81 1 8.7001148166833691 10.0231369011015570 19.0399471144203218 -0.5354140005838579 -1.6931227979690520 0.8643620927949105
73 1 8.6986382926551631 7.4986588571028712 19.0683445215842475 -1.1961945005896211 1.0904560743578968 0.3123590840829179
44 1 3.7144343132417474 13.7541441698992291 19.0041634104424304 -0.3733524597057168 0.7211262380288215 0.8075120144225771
43 1 2.2968731859926899 13.7407885472168996 19.0821796693715307 1.5428005001498564 -0.9586560444370026 -0.5701894445367277
36 1 3.7538399208795803 11.2659154685541640 18.9880491898113917 2.6683832030340766 -1.2603562641900545 0.7626182479338353
35 1 2.3529414801366517 11.2628121547698399 18.9088408225440361 -0.8473612498776726 0.0033160810832292 0.9915921398009409
42 1 1.6735841881766833 12.4569389974406892 19.1173056283046172 -4.2233600056817568 3.0713150629682557 -2.0997665752288714
45 1 4.4349071017500536 12.4940299765852831 18.9528660254896870 1.4121736816787895 3.0326685619683205 -1.2307229506609205
40 1 8.0349515211141735 11.2699211651370117 18.8970455938272330 0.8296551663365804 -0.2468996926688715 1.8325612496407393
39 1 6.6363064496402329 11.3270641068071267 18.8774996370235257 -2.1091930730279045 -1.5383233554818219 -0.2862977075510088
48 1 8.0560554338198234 13.7473722932649487 18.8797250425713870 -1.4636019813749721 -1.5823458039726455 0.7797562455297847
47 1 6.6050848250274710 13.7680736778936197 18.9712105962001267 -0.2783726766431517 1.2063751279872716 0.6211560971124935
46 1 5.8741216949207784 12.5520780906020342 18.8686445823643858 0.3092309620802839 -0.6746159760128905 -0.5751081354505989
89 1 8.7741138796359355 12.4730794067256205 18.9182142537220912 -0.9774661867792361 1.7890098121053912 -0.8021122175306761
50 1 10.1973428533200927 0.1875960378947381 19.0516684931635751 -2.6152727460660792 -1.1054605087905600 -0.4796037652975578
58 1 10.1193202258138353 2.6316931155668160 19.1138151746106395 1.9598460169702876 -1.6683122545659184 -0.1463702179507920
52 1 12.2921647293743455 1.3786753771717342 19.0483323818865991 1.6221285811347552 1.3202693267664636 0.2885988930795143
51 1 10.8860064465525515 1.3882904944251000 19.0782157314885303 -1.0849211491105664 2.0208718974568480 -0.9459302363061043
53 1 12.9928631343706087 0.1839707806147884 19.0357505954268511 2.9737508741823202 -2.4150035192653672 0.6441075928629975
61 1 13.0169290611078701 2.5845827607765490 19.2198260774092020 -1.8168450705993568 1.0104670869836621 -0.2679444875495052
62 1 14.4203412398242747 2.6356488394838959 19.1967835922087708 1.2403691172301321 -1.4833940983578060 0.7772082422325981
56 1 16.5626645681956539 1.3953196019478087 19.0336268814471552 -0.9631652510880799 2.2691769312567116 1.5180004058943830
55 1 15.1441671992321965 1.3987763455940836 19.1105464344937950 -1.5955207034401850 1.2875706507541813 -1.2813411777874371
54 1 14.4508903335509995 0.1653504209096885 19.1120543662117406 -1.1989618393907953 0.6888160290491436 -1.4826623542268451
1 1 17.2321662676811371 0.1962708948087563 19.1313772854517126 1.1727973925042137 -1.4182096815849548 -1.9165364676232364
9 1 17.3060802354191807 2.5869398206473835 19.1922208804937497 0.4420952938830524 2.0874184828118345 -0.7444187025003002
68 1 12.2888643309049197 6.2888227538927390 19.1863795390127549 -0.4797896294976574 -0.1299484908067683 0.7785965723695081
67 1 10.8488423553741153 6.3369435829647944 19.1308789304554914 0.8281603853667598 -0.4188116356019511 0.1533852733134081
66 1 10.1247577494356715 5.1093789046011144 19.1162956666066819 -0.4007846291028976 -1.4744953334823634 -1.1012146592872516
60 1 12.2760764941798719 3.8037036143656078 19.1937138084798740 0.1250801046111670 3.3101177822540100 1.5178384630078616
59 1 10.8224482159672348 3.8482282261791005 19.1499654753490169 1.2589623269195593 -0.0542661956467956 -0.8957780945806574
69 1 13.0299891172163473 5.0896622009821231 19.3062351689127674 -1.3769906123410132 -1.3562737203759270 -0.7662500635468341
63 1 15.1557395459596194 3.8638937740534818 19.1833890687159752 -0.2890751338822494 0.4027051791453974 -0.0631648147751471
64 1 16.5914292722873746 3.8774537156488371 19.2185956030056495 0.9697208215689996 -0.0209686307301996 -1.7240782114758757
70 1 14.4348082151951100 5.1309982214738108 19.1959125157515977 0.3246654332391852 -0.8425497854199853 0.6245492293008534
71 1 15.1233073553976620 6.3730997845075343 19.0719785604849719 0.4321351837622551 1.5612649662243867 0.7847650292703860
72 1 16.5822290570294619 6.3863252737075724 19.1058942236551630 -1.7373867644151262 -0.8938832652218224 0.5966044637498136
17 1 17.3045144660813364 5.1224846278981051 19.1265182068074182 -0.8084953105321876 1.2010423056812929 -0.9946409714799458
74 1 10.1215771733869726 7.5418604090295442 19.0898285350359345 -1.1398862113051504 -0.9049671823885669 -0.4881261708162988
75 1 10.8286180826894896 8.7368602908108475 19.0125963602159374 0.3993477516967312 2.1072869023560874 1.0652718240942347
76 1 12.2893494540161203 8.7548481474802546 19.1537995448475051 -2.2745542671525096 -0.3583876353338551 -0.1379694913836398
82 1 10.1077823423450024 9.9901954921445579 19.0411587371752979 1.5727180469399142 -0.6527756610514464 -1.6442452826322573
77 1 12.9864632007798839 7.5383209888730063 19.1535680074302412 0.4494363482446394 -0.1754011752483306 0.8647254311614759
85 1 12.9954059042447412 10.0124371809648078 19.1867767133759983 1.4995895284118850 -0.1744742930941483 -0.9506727512961246
86 1 14.4268737937507900 10.0433509172412467 19.0605447081561010 -0.4224550485065190 3.2187025957593214 0.4574347685089337
79 1 15.1509260341498049 8.8840145732810250 19.1013200562365100 0.6541011398315129 -3.2012124074172332 0.0457031736687785
80 1 16.5684862300984221 8.8731149453638913 19.1552087142001426 -0.1728518759393889 0.0792513596132733 -0.3793774192541482
78 1 14.4473684550538692 7.6234838713973714 19.1359279195744598 -0.9869945730823972 -0.2781735175044897 -0.2875788045404444
25 1 17.2617593909901821 7.6099579829348762 19.1234200863818629 2.4248845693545125 0.1891522196612413 -1.4413847476574309
33 1 17.2695538026060333 10.0807033635734289 19.0576839834396985 0.2472942166383703 -0.6716211383090760 -0.1463032941219979
92 1 12.3035615806824392 13.7432730409282762 18.9273778720257226 0.4353182132700885 -0.9174394452508177 0.5442774784660886
91 1 10.8762904883055391 13.7496408489007180 18.9510443875158821 -0.6222273013863338 -1.3273528671365187 1.4707640911951421
90 1 10.1486810167067993 12.4984543588881998 19.0031663715192742 1.1085029690028021 -1.3845471715917099 -1.8376699740877278
84 1 12.2804460513263383 11.2211175792926170 19.0172554585001734 -0.1089112996644793 1.0280299785371605 -0.3262725137751153
83 1 10.8418468743668672 11.2112116341389640 19.0157155506643996 0.1152939600122338 -0.1401149716545769 -0.0817098792872004
93 1 12.9759883535844533 12.4861521172577206 19.0137566350574332 1.8809957108759556 -0.6704666290092913 -0.2110296333131642
95 1 15.1162253232526531 13.7588790636997071 19.0213336594611100 0.5387028336303238 -0.7526718596121477 -0.2819719831924282
94 1 14.4038386909695380 12.5448099554856451 18.8971783815346122 1.2215056593985376 -2.2833561738217858 0.2966264963538245
87 1 15.1626407860628145 11.3006784853371069 18.9334159124062502 -1.2855417774851516 -0.4363611379680860 -0.3154765325230852
96 1 16.5362794081401745 13.7378806901202282 18.9577875385534185 0.4878896723125223 -0.3461043873693489 0.2269381105700001
88 1 16.5728390574440816 11.2829200865571533 19.0846151564825313 0.4462979736920456 1.9710661655342501 -2.2789282465055263
41 1 17.2730068769680969 12.5191460127392666 19.0778148429172489 2.5613457161850204 -1.2615583005927133 -0.8677763369068276
