ITEM: TIMESTEP
4610
ITEM: NUMBER OF ATOMS
96
ITEM: BOX BOUNDS pp pp pp
0.0000000000000000e+00 1.7084949165859321e+01
0.0000000000000000e+00 1.4796000000000010e+01
0.0000000000000000e+00 1.9999999999999982e+01
ITEM: ATOMS id type x y z fx fy fz
10 1 1.2089260398796824 2.0714746823081018 19.3080621541521573 -1.7476971180718324 2.2931970076862176 -0.9346202102361918
4 1 3.3719069704202456 0.8752797282689979 19.2131265338813932 0.3580872587676536 -0.8454987595314440 -0.3391567874052945
3 1 1.9228018042861785 0.8529709822292093 19.3288921170782650 0.4937890903804628 0.4000773235282311 -1.1095469744084980
2 1 1.2204336929752126 -0.3913020658849626 19.3780355202957821 -0.6711019984718603 -2.2029886295295258 -0.4280133804381453
5 1 4.0782438381780146 -0.3692709678758753 19.2860734815088435 -1.0293763994513694 -0.2576681322139358 -1.4730139668428983
13 1 4.0714852157449997 2.1427582242219287 19.2497650393165038 0.4692957157423194 -0.6391983261688499 1.3304645542727014
14 1 5.4791166288725055 2.1274335583476343 19.3083946764272447 -0.8888707054886396 -1.0162424116304947 -1.1880792718877093
8 1 7.5886924325833602 0.8477068368544343 19.3610369146433463 -0.0222519642264838 2.8040966333718624 -0.5035983374132665
7 1 6.1710720738200981 0.9061247979374735 19.3156694401594287 -0.6650428499215257 0.2845921786012851 -1.2441267017037532
6 1 5.5050836043393785 -0.3394930783300185 19.1598572471949709 -2.5701346617982468 -0.9112627344200932 1.6918185475951482
57 1 8.3338069117859419 2.1047529125704942 19.3992307140180387 -0.5436879386972723 0.0365116248575258 -0.5973104627069463
49 1 8.2902751274752919 -0.3317828917682011 19.3518552011593528 0.8608144968409615 -3.2020318585038803 0.8315335387580497
20 1 3.2458762093829936 5.7810608087218558 19.4115705407581345 1.9888987534846796 -0.9883168847415438 1.0910109726605255
19 1 1.8577394341673044 5.7423443645392007 19.3903154959072133 0.4963749840927888 1.3489394133613370 0.6008947916830958
18 1 1.2457299008928913 4.5209685709373924 19.3666335744995841 -3.8961186018525140 -1.9311058806123862 -0.7330174801853768
12 1 3.3170912412771423 3.3129498189104929 19.3281915923058172 1.1180304636794254 0.8532939336981142 -0.6321339204837284
11 1 1.9133642873380916 3.3007767841788369 19.3423824901368384 0.2099129485910975 -0.4862784487755822 0.9251973381647445
21 1 3.9818039876320843 4.5808651727181164 19.3505133943197833 2.5450920938257102 -0.8613234087913166 -0.8669015079312212
16 1 7.6033274648134714 3.3266536705292502 19.3846132557520363 0.4488330642297442 0.1740038125329128 -1.0741702973057154
24 1 7.5986014613516613 5.7704111069154918 19.4461280173498672 -0.8788078840673594 3.3539737879805331 0.2834210739075321
15 1 6.1728557732493305 3.3436363154440190 19.3577479599875346 1.5490809827653165 1.3791911733542275 1.0287716857809146
23 1 6.1534699502225818 5.7884232733623735 19.4495190126494961 -0.0959007856105345 0.5752801553952472 -0.6818064287901022
22 1 5.4362331032078091 4.5572442008373022 19.3918070593503131 -0.7017864849091643 0.5632937127754988 1.1304532803296932
65 1 8.3084655702185994 4.5543623374142976 19.4313202654133939 -0.5467558276367244 -0.6950377456586282 1.4395513533646960
26 1 1.1813535915089990 6.9944256640933009 19.4788015106150993 0.4011782201356406 -0.2754551920116344 -0.8012881093551584
34 1 1.1560497683428987 9.4107801980947912 19.5086055579107835 0.1898042457255515 1.8469573214884014 0.7707316308045398
28 1 3.2876576956172996 8.2035647512945040 19.5022660338426732 0.5611607480753320 1.6512535812433167 1.2817088408654409
27 1 1.8833320045315998 8.1962072066630842 19.4848273733899617 1.2137556981433066 0.4499223608736942 -0.5428735519222484
37 1 4.0242665378283364 9.4370606695724124 19.4950034298548047 1.6266994496819387 -1.8165533338216373 0.4231907231596755
29 1 4.0113911687052548 6.9774101819778771 19.5154848222099986 -1.0213363143824910 -0.3026155198772744 -1.3216302284126928
38 1 5.4521172213671711 9.4459115366643278 19.4458852694720825 0.2697402210503570 0.4611601352332426 -0.1383437175065314
32 1 7.5392161599399534 8.3037875301651543 19.4212984630321550 5.1455177002957102 -1.2022479670663668 0.1060159580522050
31 1 6.1840686471527562 8.2483699529467600 19.5093449541438986 -4.7280937806453336 -1.5794007632166847 0.5357455313662873
30 1 5.4212793304567777 7.0025771230281428 19.5810472230795973 1.8292490348956689 -0.2801218403406838 0.3077621368646619
81 1 8.2689924624096740 9.5379373731494361 19.5175836879619560 2.8799194196450983 -0.7244024061352689 -1.1203897401689340
73 1 8.3252451262854770 7.0765839669618682 19.4946682896887218 -1.3976528779350335 -1.2943621931007625 -0.9967305762507935
44 1 3.3175958155645153 13.1591713881431946 19.2914353674139214 0.5243979423210592 0.8231191255779975 0.5521134422804523
43 1 1.8935003029882298 13.0863652107029509 19.3823623814872974 1.3461564585111332 2.5764261666000712 -1.3019245266565416
36 1 3.3574019500841237 10.6580953097978082 19.4984651105823446 -2.1085783290501290 0.8250358110768288 1.1589508708991108
35 1 1.9124423209053656 10.6380263987908403 19.5263429572838838 -1.2866097886704895 -1.0504079816739205 0.1202534515210012
42 1 1.2057566119983207 11.8452267392956401 19.5020597933022053 -2.2165880677843828 3.4025066671911466 0.6435994187518772
45 1 4.0622147209497221 11.9110950159292965 19.4053618528899783 -0.5072495529770380 0.6869793799585866 0.9261107999303837
40 1 7.5533025199688204 10.7448637576210846 19.4651007972644443 1.8731811705915189 1.4147908421835391 1.0841491245093371
39 1 6.1785398796216953 10.7188589767050111 19.5313338536752639 -2.8552645444997178 0.7103269242960020 0.4302266717048683
48 1 7.6062078264855497 13.2502642298540430 19.3589450933786829 0.5253102439913100 -2.6205041740858381 0.8992392218538963
47 1 6.1701565581392899 13.2215238513682145 19.2828126015920702 0.0354664498610746 -0.8102385213928827 -0.8174489537795745
46 1 5.4842460216870492 11.9870038048779541 19.4693651996294435 0.5674766277220451 0.3166846301388646 -0.2246060322388189
89 1 8.3120877145048873 11.9764684564047137 19.4279157655968930 -1.8559071200137747 -0.0429358886893786 1.4458649296181370
50 1 9.7515158103580646 -0.4346623611558037 19.5051791703666915 0.0364155514368084 2.8896059608567364 1.1581923507262650
58 1 9.7288681501267007 2.0917598060954141 19.5830794574108928 2.1887003873475273 1.3865815734890472 0.8005511658938198
52 1 11.8641664369982447 0.8650002297350734 19.6025228468237742 -0.5712262345710180 -1.6869912038646153 0.7615631613647682
51 1 10.4501146287132975 0.8366510187477357 19.6679631990184625 -0.3986239525066057 -1.0792198420827204 -1.2513553631872023
53 1 12.5819618131980473 -0.3806898485075694 19.4455735472805458 0.3783441056584332 0.4510700590368246 -0.0074039956915993
61 1 12.5980729074154336 2.0570497632318721 19.5422017838931303 -0.7096434827751391 0.1779376502442052 0.3003707460647705
62 1 14.0632780846635974 2.0528469737604227 19.4466980692224425 -1.9407281239320255 1.6190491733424817 -0.7836776330729790
56 1 16.1841155823553713 0.8699464343195670 19.4247934021153199 0.5662355277415163 0.4877628150812866 -0.5078252984634226
55 1 14.8021705791176803 0.8476959465917674 19.3611909349225400 -1.5068901666730052 2.1010867304481380 0.9315278823427772
54 1 14.0196911495977989 -0.3199558850310675 19.2901242007798004 0.6561755727366416 -3.5600330393218953 1.9286403231229483
1 1 16.8485922564329940 -0.3482577846177747 19.3786453788236273 1.3743048268574496 -2.3764697881429355 0.3734631611763350
9 1 16.8583301287984035 2.1322760751647221 19.3822678101954260 0.8734969623293662 -4.2357763452787687 -1.2047367737695971
68 1 11.8370856334925030 5.8149019684150893 19.5584688528430384 2.0977683990133249 0.1749997302298225 0.9952170429047843
67 1 10.4365694750690228 5.7748220362257729 19.6186487449956033 0.7971399910729448 2.8011725768839431 -0.5397140417838044
66 1 9.7457905034255266 4.5512306768577160 19.6357705471335926 -1.5607383964214518 1.0758699822287452 -1.4961587235143290
60 1 11.8701594192963391 3.3083578242725005 19.5919493709904522 0.4249051322942641 0.6569196615335547 -0.3109708227557472
59 1 10.4558550832346935 3.3585097962554360 19.6994693882925453 -0.0710390094357763 -1.8731153025818095 -0.0114351511183464
69 1 12.5697966775968695 4.5697792561542370 19.6105215280572658 -0.4693860212933004 -0.9974719920414852 0.5940684465714443
63 1 14.7232995216179443 3.3386103832493244 19.4366941318856874 -0.4497602083785033 -2.1714493277291802 -0.4163960926631116
64 1 16.1186292326582716 3.2881375412503728 19.3421104691807493 1.0437414851405045 3.1867479745792573 0.2191130662279204
70 1 13.9854568941797108 4.5690451863269423 19.5003315581326291 1.1720892700593748 -1.3768151488576761 1.4485189146867830
71 1 14.7371315170391650 5.7967688309374852 19.4707926179099609 -1.7391275325592144 -1.6745217588134205 -0.1769073780857481
72 1 16.1721716509166136 5.7490250136957943 19.4693573687723323 -0.5184829213279486 1.0925985063776431 0.7037374908828444
17 1 16.8474108842401478 4.5121409166004440 19.3815525826928337 1.2163702122133737 0.3018552459634547 1.0252192279806300
74 1 9.7561595630518170 7.0505257332667659 19.5255094069421027 -1.5009290439579850 1.1875725400826744 -0.9882315259609480
75 1 10.4746677403882611 8.3019082079254485 19.4896051528369014 -1.2551979105696383 -3.6131576937281880 1.7617063986560302
76 1 11.8860885523390341 8.2273874237749780 19.5434784062244340 0.1595594029316246 1.5067989341287606 -1.3199947732042456
82 1 9.7557868466084905 9.4841506336054824 19.5566770361019273 -0.8346391411925513 2.1128233604995339 0.6089825342297003
77 1 12.6035578310637373 7.0282463702950544 19.5490939821886052 -1.7498249493320741 -1.2897157090987326 0.9918452489143589
85 1 12.6249644117801285 9.4865419732254121 19.4108940163159360 -3.2947651007821435 -1.4493385020646810 -0.0096831884478789
86 1 14.0124056300207247 9.4592737458603189 19.4755734111058096 1.6957769046269127 2.0097833405083385 0.5647507180980346
79 1 14.7177998036447750 8.2305834101401363 19.4555228388104133 1.4918784646456060 0.7873489188011089 1.2524118607389310
80 1 16.1666225206340712 8.2201542975184001 19.4495356128064536 -3.0826475906903239 -1.8393231970864474 -0.7362367486849701
78 1 14.0093098409725023 7.0139376575934129 19.5007435064028307 0.6634703706268941 -1.5001088135565148 -1.0001732038099029
25 1 16.8811182389399015 6.9773640805966366 19.4707035551347261 -2.2679532833407250 0.1741336864002503 -1.5059921420376452
33 1 16.8088166534222125 9.4458399620198890 19.4527607888737677 2.2023986853268456 -0.2074926236659596 -0.2589919211137270
92 1 11.8726327713903483 13.1616965465168434 19.5491584136354568 2.0609390772127671 1.9791291633849597 0.2326309173569753
91 1 10.4576664039191058 13.1641286669629114 19.6076377886530189 -1.5660756033035863 -1.8426966651321304 0.2961384072523723
90 1 9.7236273177085160 11.8880701824662189 19.6167161258690363 -0.9494948089827124 1.9967373922880327 -1.9861382683034978
84 1 11.8831840648309690 10.7148831573844294 19.4557856810463221 1.8139714512506768 -0.5905352557474820 -0.4206569576195834
83 1 10.4580131204197109 10.7199840716266479 19.5690471637532930 -0.8129453698702417 -2.5852343494385690 -0.6400622516687361
93 1 12.6078082952079562 11.9410978101916978 19.5307429559237420 -2.5864670853957441 -0.3778318560717572 -0.4147761575381012
95 1 14.7524322492375735 13.1901045147316953 19.3619168714098429 -4.2086230311245236 1.7926201457153561 -0.2908057960808477
94 1 13.9854372891367333 11.9745065144592555 19.4998601253831119 3.1329787508632765 1.1539100521178396 -1.8154206778261754
87 1 14.6902288188642096 10.7632558072877806 19.5161980164047080 0.5846024892935540 -2.5169425899221691 -1.2035119744556140
96 1 16.1256701526064781 13.2031538018587415 19.4614916453137390 2.1803781016413226 0.4197672871755982 -1.0841770274647300
88 1 16.0882807447661023 10.6930929899083669 19.5751326204705549 1.4092479087035630 1.3292196715285842 -2.3482215409473390
41 1 16.8204145780333469 11.9405277004946360 19.4747267700224782 1.4746020979018875 -1.7361505619202009 1.4742747298123864
