ITEM: TIMESTEP
1740
ITEM: NUMBER OF ATOMS
96
ITEM: BOX BOUNDS pp pp pp
0.0000000000000000e+00 1.7084949165859321e+01
0.0000000000000000e+00 1.4796000000000010e+01
0.0000000000000000e+00 1.9999999999999982e+01
ITEM: ATOMS id type x y z fx fy fz
10 1 1.8456969655955535 2.4722169761355595 18.9312405080926425 -0.0430356033896127 -0.5524522128559363 0.7383309583380886
4 1 3.9544809948549258 1.2193547210300557 18.9771472901897482 -0.0459297733203093 1.6964054946921561 0.3005023017819651
3 1 2.5459337237155335 1.2232779815282184 18.8876068236261681 0.5927884349834460 -1.5165863243552731 0.2554721013347689
2 1 1.7986375371286862 -0.0462333117628347 18.8273960905159647 0.7378825887014767 1.2223827273512493 1.0892224572707574
5 1 4.6952067370738142 0.0149093720192914 19.0511885314637830 0.0074870944608637 1.1990617597533189 -0.6025208825958853
13 1 4.7111529894277755 2.4555958196597012 18.9999392235910598 -1.7192035725524808 0.1458710015326298 -0.8300230334724052
14 1 6.1024849538563979 2.4691468181019922 19.1074353944754591 -0.4318248760693840 -0.1456261990249731 -1.0689663924062214
8 1 8.2809991719185589 1.2218321708309070 19.0879881735062860 -2.8347155142448890 1.5823532871941874 -0.0427706935862742
7 1 6.8449662185795779 1.2908914296491421 19.0238397730411357 0.7400982527767320 -2.9450081412908271 0.6389690813352273
6 1 6.1318103054945690 0.0313069159733971 19.0729732257470737 -2.0866853755621877 1.2644273734901681 -0.4727485971623130
57 1 8.9628484712805800 2.4724583954381076 19.0394914694872206 0.2398945275185769 -1.8003069291556972 0.1827259022544211
49 1 8.9417816422158296 0.0098446171838528 19.0670038898609064 1.0295382357329583 -0.4229054496629265 -0.7361705806240841
20 1 3.9483175195673135 6.1549931682292289 19.0182862570155145 0.5644569841246503 2.2103634083149979 -0.8912829310179872
19 1 2.5264366418727495 6.2101277640476029 18.9621251833086610 0.6850662983718990 -1.5059616142658199 1.3232420357069281
18 1 1.8057883758247963 4.9468757024953023 18.9687901712078784 1.5525821970714726 0.7348949577735211 -1.8483946661603896
12 1 3.9785561209512719 3.6901250411517061 18.9348266732058157 -0.0375682022025385 2.1849671539957871 1.8464563829877148
11 1 2.5416330768454443 3.7131247632922197 18.9530581984335633 0.0877197188218989 0.6443054675718828 0.6864276106068037
21 1 4.6837136961863965 4.9725323701735400 18.9774144580066526 -0.4130391071406553 -2.0251585728773698 -0.7328277933920972
16 1 8.2236777390961251 3.6535994679302872 19.1097918911961990 0.9517470132642130 2.2204604052817181 -1.6917523645212453
24 1 8.2387058432095337 6.1773303073632855 19.0271034406406798 0.7434043380844684 0.8048659608573642 0.0758565767426319
15 1 6.8019302837280042 3.6994879774407279 19.0598030424768083 -0.2540095718581943 -0.7273822808649347 0.3834729988997355
23 1 6.8060510229383233 6.1410911876686285 19.0024610271097032 -1.4530947229187670 -0.3460387701658093 0.5099592526259814
22 1 6.0905254503553241 4.9045555315346157 18.9980768165280232 0.5486632344211247 1.0447113275796696 0.3714884269310575
65 1 8.9706259490344546 4.9277709075843248 19.1189322623822200 -1.2564834617006024 2.2050646882349740 -0.7688204876262512
26 1 1.7966050408879033 7.4366557264449877 18.9830337357441401 -0.9466125814704446 -0.9595858950543005 0.2602490029664433
34 1 1.7696083591996961 9.9039624749339605 19.0867485676617683 -0.4667606315977290 -0.2282580407597805 -1.0299065749991092
28 1 3.9414781383077706 8.6619535954023448 18.9998926594225388 -2.4883119262907467 0.2546252739389313 -0.4186181360872934
27 1 2.4758053668405089 8.7002018145329227 19.0122800631072622 1.9918355026281926 -1.1204079540845122 -1.1088300111534861
37 1 4.6302779326637804 9.9013545662900864 18.9370004712841045 0.6403835673940383 1.0453214107301565 0.3368896667223276
29 1 4.6425108506932871 7.4132036190840083 19.0424107540051715 -0.1621262433963734 0.1332023826343360 0.8606624849259824
38 1 6.0234111631010405 9.8806854361821355 18.9252144132773168 1.1232227415386880 0.2314591277304743 1.4059679057438950
32 1 8.1314846680428392 8.6577063063804189 19.0313663372812059 1.5997587327132952 0.6637062929249815 -0.2586201413296151
31 1 6.7114121880871327 8.6440924867585043 18.9559459674062829 1.1663921346736947 0.5790926114236777 -0.7140547734283185
30 1 6.0436171219221810 7.3785829362743645 18.9811952933568406 1.5305087062053033 0.7723856047581498 0.0128031551738678
81 1 8.8740714433107222 9.8777442405382150 18.9242822639998884 -0.0749098220468286 1.3679695958147322 -1.2870447452473601
73 1 8.9007449062587582 7.4990826520486493 18.9960926351610873 -0.5094447011519263 -3.1683227204818820 -0.2541606079891617
44 1 3.9505780103412751 13.5961610492099485 18.9153592751232509 -2.1143561535129161 -0.7567803899138085 -0.4255840454954611
43 1 2.4799625668592036 13.5369279570706720 18.8648441530887467 1.9160544784467413 0.4427125239495123 0.3467079604513810
36 1 3.9168354207677849 11.1208326873395489 18.9465692602186309 0.7792147366967541 0.9605029958550741 -0.2531358332085948
35 1 2.5103208831118300 11.1108071934363579 18.9335170529360006 -0.4325318006433543 -0.3522185136822436 -0.6004341861009177
42 1 1.7372229550122689 12.3146784222016237 18.8888187604829447 4.3860341759472261 -0.1143642173038246 1.1648115963933536
45 1 4.6699448696130901 12.4263685213405051 18.9455115633119462 -0.9369947700099299 -3.1752698805351711 0.3763120409147998
40 1 8.1660380899670528 11.1160059178728634 18.8671393115217043 0.0733835558776270 1.7403785569016892 2.2779396783509069
39 1 6.7391978053676107 11.1279471327708226 18.9655579943622818 0.1310676080612567 -0.4537196353628337 -1.0786878632213250
48 1 8.2011006933259019 13.5760232961574623 18.9940428024320020 0.8490085522062922 0.8491501217681813 0.9502264305758534
47 1 6.8078044155006525 13.5948537797306663 19.0468902932381390 0.0762854721777357 2.0274367948071177 -0.4327987349788021
46 1 6.1167753849461146 12.4030749882395437 19.0123088604778765 -4.1770000317631570 -2.0893148799826196 -1.6171017409383317
89 1 8.9427690590256201 12.3698777626046663 18.9605351844285899 -0.9887662546771038 -2.5567811315111300 -1.9574117029954865
50 1 10.3818778485926053 0.0263218813695006 19.0636603164634906 -1.2204134972468794 -0.1418405925385217 -1.0467219442226796
58 1 10.3924006494890708 2.5341198164002261 19.0901457413971656 -1.8442662684102384 0.0010194381768121 -0.2103890615175918
52 1 12.4943108100015721 1.2728402671336390 19.0832015995518951 0.8216619265339602 1.5526984417697900 0.5713731995619206
51 1 11.0813428196491603 1.3103479519670189 19.1436674939231288 -0.8924291782536484 -2.1666422460127315 0.6470693659244240
53 1 13.1401690539267406 0.0323154671625573 18.9728218058771105 2.9740330916302686 -0.8985766652253326 1.1472017585718373
61 1 13.1846279242123465 2.5468095388163992 18.9572783583761790 -0.5086909830881561 0.1684438733690328 -0.2383163348876899
62 1 14.6270247179118194 2.4937430492122590 18.8782182565124081 -1.0152646845877320 -0.7073000982104682 -0.1988185567398772
56 1 16.8070750141053615 1.2105659915627127 18.9218618623551471 -0.0058371591817789 1.1675816047666969 -2.1592536668751627
55 1 15.3751743247099011 1.2547175346491724 18.8775221151187935 -2.0126050772361896 -0.8190474237070156 -0.5190495101078396
54 1 14.5943667035751758 0.0341423330117570 18.9447047226063923 2.2123044372323433 -0.3151290783796665 0.9290447125880588
1 1 17.4969048977949484 -0.0146493112741460 18.8241985793297602 -3.1355759953445688 0.4086761172500771 1.2747624948279588
9 1 17.4920156046761512 2.5082390209689236 18.8629578546025769 -1.3332557034624750 -1.8446470569434008 -1.0104869515619972
68 1 12.5050401037856638 6.2363813558933421 18.9506041101359699 -0.0044363887402645 0.6752655965818439 1.2503392734274781
67 1 11.0916743547687542 6.2373491773315619 19.0746643548590207 -0.2891855306424371 0.7781648584420522 -0.0331703816324185
66 1 10.3758325316937938 5.0193217134334303 19.1338170045744889 0.8168759228458463 -0.4693575953633695 -1.8185225654624189
60 1 12.4494371577898892 3.8124053531101181 19.0063896820323386 3.0319917473133935 -2.9460798768103933 -0.2611741095385402
59 1 11.0705078870998506 3.7788052121025233 18.9755082016084877 -1.8225787217502747 0.0876994401675781 2.5301845887061178
69 1 13.2128363207178392 5.0250713474893498 18.9239401536700136 -1.6075702529172871 0.1885491099241383 0.6296514609392529
63 1 15.3305933357695228 3.7343895234471209 18.7676130488580597 -0.3466208767675785 -1.7245182348721677 0.8683461134873802
64 1 16.7182114528441907 3.7086457387566023 18.8085612642210656 2.7257485241554988 1.2670676619475516 -1.0737174529062332
70 1 14.5905100966732721 4.9624337468989141 18.7543818451439961 2.3939132143423754 2.3276772036864495 -0.3934248519907158
71 1 15.3870639207806903 6.2236058730173456 18.7477169914539665 -0.8141712843867293 -0.0124946297450061 1.4464795041316567
72 1 16.7901203395188752 6.1893184342354308 18.8256503477077857 -0.8205779236351514 -1.0549662794704793 -0.2670695305085661
17 1 17.4877988993621614 4.9370920055583536 18.8283479152346445 -0.6498746862394886 0.6205158329283316 -0.1041873935332009
74 1 10.3348139742088385 7.4328769073248315 18.9634064403526175 -0.5340294424735770 1.7503895138023986 -0.6208363401622436
75 1 11.0728808956224416 8.6609825339419082 18.9010531279655751 -0.4747369590521713 -0.5558641160830593 0.5277613961000108
76 1 12.4634442498145681 8.7076845495903346 18.8865439602424736 0.5961956064173084 0.3877146157851461 1.1382675439862804
82 1 10.3382435738130756 9.8985451849589339 18.8740479853071612 -1.8823871264234300 -1.1671184754484651 0.7915285461815704
77 1 13.2125418007395155 7.4907084211203472 18.8721911167056433 0.6949838763401803 -2.3402864436118631 -0.2662204057080240
85 1 13.1849541220169026 9.9325472994197774 18.9207106529286762 -0.7572141425138652 0.1587912580983216 -0.9823197067669225
86 1 14.5655458099187474 9.9305230558067557 18.8961343640153743 2.7206802608662866 -2.8456057437918210 -0.7123783356620604
79 1 15.3691657209088159 8.7089545345809203 18.7748005041267767 -0.3585407660836637 -0.0379629438750391 0.4207597283214469
80 1 16.7628489346782779 8.6817287389063562 18.8271535741990057 1.3528356064176617 1.3224969038086158 -0.4222931461580992
78 1 14.7024863530207526 7.4665277796594705 18.8014850571606971 -1.4891966541202677 -0.4970851157129469 0.2131489746189738
25 1 17.4522073722308591 7.4182405746340274 18.9126183687681007 0.4716671528155895 1.2054104072345930 -1.6243841347581769
33 1 17.4521181813999213 9.9456659282740372 18.9456727393400044 -0.0480337157449101 -2.3673698050177370 0.5196779455256283
92 1 12.4453717650982618 13.5884315604524204 19.0961448754609151 3.0038099878847717 -0.9746526680997100 -1.5849669888847919
91 1 11.0841853518271218 13.5833614808671896 19.0289257279349648 -1.3269969319212160 -0.1978687242204185 0.9828252909664428
90 1 10.3859919187198582 12.3634585162999127 18.9442718833683799 -2.6599480351825693 0.2781051260333789 0.9963062720100093
84 1 12.4769815892749492 11.1396273506435239 18.9476424476374312 -0.4968521566099439 -0.1380861027662924 0.4083752138043580
83 1 11.0505600855627470 11.1226354435837802 18.9654775961752975 0.8732960458046188 0.4201064452204843 -0.7051588975906994
93 1 13.1636104754750320 12.3692850338630009 19.0837715128442369 0.2391154775092994 -0.6596245426137722 -0.4305675970196927
95 1 15.3547328751954595 13.5426910497035511 19.0349619919746260 -2.6990676534899185 1.8216149622905271 -0.7973526977451491
94 1 14.6192693349062388 12.3525267543625503 19.0687569589691073 -1.4036584564643309 0.2653157931184136 -0.8239904676481835
87 1 15.2528374296170739 11.1132878970850761 19.0344968931822898 2.2433190275104136 1.2406404661808073 0.8668772414483590
96 1 16.7086235853184348 13.5517321558180868 18.9180234038213513 2.8554969965473669 -0.5557728198626350 1.2453357473310696
88 1 16.7196370187061341 11.1447909600071124 19.0251971215596321 -1.1576503060807830 -0.3298911687524472 -0.4725217456892838
41 1 17.4539133344555921 12.3310645286511988 18.9617587954928482 -1.2985246887809931 1.3547654433826548 0.6024346237301264
