ITEM: TIMESTEP
6070
ITEM: NUMBER OF ATOMS
96
ITEM: BOX BOUNDS pp pp pp
0.0000000000000000e+00 1.7084949165859321e+01
0.0000000000000000e+00 1.4796000000000010e+01
0.0000000000000000e+00 1.9999999999999982e+01
ITEM: ATOMS id type x y z fx fy fz
10 1 1.4493959319426768 2.0524063468637563 19.7384281196303419 -1.2189495736785296 2.9152362985305045 1.9109399805851830
4 1 3.5870359828211864 0.7986680331462396 19.8899418660039942 -2.1385667288817185 0.4316725788097027 -0.4185299403048514
3 1 2.1445043226565410 0.8603128367772299 19.8613716882250309 1.2726779712894054 -2.3902508572289771 -1.1021697542837496
13 1 4.3157720293230133 2.0367119320583393 19.8353078973409325 -1.4631778540387215 -1.9169791809398729 -0.4202373714204894
12 1 3.5860892829381004 3.2531122277116293 19.7262207896437367 -0.7397486284129948 0.5037529838630561 0.5543574574311296
11 1 2.1575972315975904 3.3353364473850373 19.7815747824588790 0.3290749735629169 -1.4927993481964439 -0.8130258196122735
14 1 5.6917360880798125 2.0069136557036300 19.6663311329385770 2.1996179546986259 0.6293425654976161 0.6879820895970084
8 1 7.8477160856222916 0.8197243333890634 19.8759990002740636 -1.1264926323975788 0.6410470788399607 1.4739943938302953
7 1 6.4138154701080872 0.7722567149157432 19.8720957517261851 0.8303943067424610 0.7979270654135069 0.4421919617844789
57 1 8.5035833760657233 2.0611050060751026 19.8863344358458392 0.6135252098228202 1.0937892903472308 0.5133485023387866
15 1 6.3798257274796164 3.2741894481041562 19.6999584155827030 2.0508233279978332 -1.4133376129641546 1.1135821240275607
16 1 7.8440032150372021 3.3074995708851973 19.7319167457906737 -0.8106838590394108 -0.5441607344235070 0.0291322421746892
20 1 3.5797875192487800 5.7654700183700900 19.6707009014145235 -1.6220216016358577 -0.8441602770467331 0.7852879767048273
19 1 2.1126258317391695 5.8111797427854359 19.7063501909838266 1.8810666095579025 -1.1582413374796905 -0.5237385079570565
18 1 1.4568784262561065 4.5700722401769678 19.6998318692504810 0.5026926569115522 -1.0630918096560802 0.3536620406721827
21 1 4.2824705667387724 4.5285618764183333 19.6421685685842071 -1.3784328880138703 0.3605417060712991 0.2054913486838329
26 1 1.4166462321443423 7.0152396465714713 19.7880335096206963 -0.3848466765915903 0.0207338831616668 -2.0870162595445736
29 1 4.2835642564763043 6.9811934644197429 19.7858901860736580 1.6749781880095682 -1.1230730632978072 0.4174144594254877
65 1 8.5655746314463510 4.4946025266304650 19.6817405769708103 -0.1711789794225929 1.7477080006693555 0.0133170418676800
22 1 5.6849117438764543 4.5227357895524474 19.6954158787462390 0.3445899103597421 0.0450525989247369 -1.0790398871504672
23 1 6.4471359277343900 5.7245483062904112 19.7386747423942417 -0.6522249450776421 1.8223319304519365 0.8313578863145981
24 1 7.9075380062156189 5.7694201569987165 19.7008142768395551 -3.6862013901894435 -3.3542366188431139 0.4969004062858871
30 1 5.7181940128852968 6.9466972948503996 19.7666516484597494 0.0099947825688337 1.4361253132691838 -0.0583587312044987
73 1 8.5470391279838545 6.9700531204021541 19.6932625539299586 1.6560403004981843 0.2509645908391620 -2.0736774024891234
34 1 1.4266225669684447 9.4614695740525292 19.8420933442909906 1.5423430243255103 1.8961359313967105 0.7147465452087413
28 1 3.5809998468195170 8.2248646448020839 19.9041800040580412 1.0319468149851749 0.8095024577622666 -1.9669606901611183
27 1 2.1772184386587856 8.2571169205268617 19.8256884941186762 -2.9047886781394752 -1.8308647443541288 0.9481123537658920
37 1 4.2889812523206405 9.4366346705840698 19.8732679440455300 1.5578545525986627 1.5016345824221151 0.2226352003933403
36 1 3.5843417128177273 10.6948000795881040 19.8907051592310573 -1.6310668155758821 -1.9690645406330103 0.4124988894433502
35 1 2.1470562109148092 10.7234048399668769 19.9036008714836896 0.2799830792754948 -1.8030951221177625 -0.7004072643897696
38 1 5.7324961232048857 9.3983149749081800 19.8713267784528220 -0.9953279366467238 1.1977182565889564 1.0952449793027672
32 1 7.8667059618079920 8.2393152508457188 19.6821416080389362 -0.9131809747449942 -1.6091217704847107 0.4432037281096036
31 1 6.4581873081563117 8.2082283405599483 19.8710910245965167 -1.1185273057768539 -1.3013644091802385 -1.3085589165157452
81 1 8.5695100508673576 9.4551900070139254 19.7094069099986697 0.3247559932083570 -0.6133721424714167 1.1689549073227121
40 1 7.8845851641395619 10.6750813939582230 19.8511204801351440 0.2313983970455502 0.6418828954487716 -0.8038394254080501
39 1 6.4352626016250207 10.6482189670096652 19.9171382780659805 -0.5467396305277311 0.8872833330450547 0.0908822658918921
44 1 3.5881506902035678 13.1244162807557618 19.7758390895872651 -0.8053674806779316 1.1516245505293898 1.3477220667110577
43 1 2.1251452223709650 13.1476332727485765 19.8701403151474132 2.3301309468534850 0.9137705449544016 -1.8784223330459049
42 1 1.4119004812795166 11.9615554731987963 19.8692600347453308 1.0236283939050947 -0.8970820802359167 0.9269810600483452
45 1 4.2876024120725367 11.9099876327774190 19.7828228189134236 -0.2209047753525253 0.3241691834882413 0.4295520327963608
2 1 1.4523308287215211 14.3899037450669525 19.7969741837456468 -1.6349570907119693 -0.8999987449814706 -0.2211777442107938
5 1 4.2518415950499184 14.3373931912512553 19.8220191217514561 1.6180715721046308 1.1906605895838160 -0.6862421329977053
89 1 8.5798509111532351 11.9384585207324800 19.8046501596858739 0.3103782581229266 -1.7633866093371675 1.4016264029021468
46 1 5.7269069522389069 11.8938289613688557 19.8196259735214291 0.1296811379895548 1.1450709779962982 0.5966267863318984
47 1 6.4301155340062959 13.1484146927153240 19.8171485214759286 -1.0179789713817868 -0.2514868218734634 -0.4661253783597841
48 1 7.8489780449131734 13.1841848640869070 19.8588809217413029 0.9425803336834239 -2.9007118799765910 0.9773256539348927
6 1 5.6866180344424340 14.3680937187847988 19.8471886965131432 -0.3585901157992079 -1.6243280821443384 0.6034198509924351
49 1 8.5657545054543842 14.3914827497701054 19.8484349922881584 -1.2463122072309334 0.2260468928626786 0.5867509846931149
58 1 9.9310098829994295 2.0541063951964569 19.9173217548693415 0.6762397212320780 0.4278085960045600 -1.8622648059985196
52 1 12.0933172853732760 0.8173526074098304 19.8137493353197165 -3.2622958672415296 0.0627159398447332 0.1121482310148172
51 1 10.6389292163526719 0.8121244774257389 19.8915200506389986 2.3116653794212607 -0.4279932756898810 -0.7312437788154857
61 1 12.7704937546392294 2.0170007270219288 19.8144386890614399 2.7721343201910655 0.4196746755586147 -0.4108600516277945
60 1 12.1165288669664566 3.2712375836882028 19.6526654006506334 -0.5338259224452695 -1.5899451851039328 1.4857385224776043
59 1 10.6840552703974900 3.2549265211202205 19.7872942021308624 1.1513048098309695 0.5361175210022410 -1.2039858478675658
62 1 14.1993804166516675 2.0638257228788759 19.7510143908300755 0.6433901392674121 -0.8420026635552265 0.0864517449858709
56 1 16.3863930223781367 0.8369213844698036 19.7498886640420821 0.0463360086730530 -1.1918295906089464 1.4961831503773433
55 1 14.9594442582341713 0.8183348008992372 19.7160955411066574 -2.1503490637719427 0.3257324213302507 -0.8870330714817204
9 1 17.1195719508118422 2.0661635444647142 19.7140640327384311 -0.8093678264566205 -0.2089430002693659 -1.3418835636286564
63 1 14.9547159295331067 3.2732761721775425 19.6667084452616621 1.1314112533681842 0.1634466735775653 -0.1574445510313652
64 1 16.3981068052082222 3.2717743588046302 19.6464854595712062 0.2577661050381385 0.4255313007134300 -1.0510306129582290
68 1 12.1931141061759831 5.7095961926914525 19.6754158557711527 -2.1289606752927499 0.1341586556242230 0.1768466294907742
67 1 10.7311475817273294 5.7035280038576168 19.6645275807512796 -1.1116749145037612 0.7771867469028466 -1.0173698398451323
66 1 9.9742972302810315 4.5194715933627840 19.7632411495112379 0.5752622160097290 -0.6366861290566239 -0.7467437633166255
69 1 12.8564425098985122 4.4647530754656364 19.6673643583907136 -0.1075127941796635 2.3499840178101890 -1.5494719544461271
74 1 9.9406771139683485 6.9285924431384744 19.5884401438369409 2.2034302076421524 1.4104498265762708 0.6672695809374832
77 1 12.8677819942909686 6.9463314479725513 19.5565984641206434 -0.7668665223273867 0.3304431738918079 -0.5325458612276780
17 1 17.1129636301037706 4.5471942041404132 19.6522226468250807 0.4591147757929198 -2.2831027728708584 0.1013598182445589
72 1 16.4081402806747185 5.7514509806804783 19.6585302775578619 -2.4620665261630510 0.1536352644238096 0.8899235230722037
71 1 14.9766213462889404 5.7832400757056481 19.6335866777946322 0.2641733167560528 -3.0863839072255450 -1.2614468126752372
70 1 14.2564591351471801 4.5278393564357753 19.6282381586930121 1.1228062400344612 -0.3715679362577899 0.5289726431949429
78 1 14.2486634752790220 6.9933584681592240 19.5560440615390867 0.4449199787831940 -0.8357590227976779 0.3360822044651534
25 1 17.0615531107741845 7.0095304972609727 19.6391682185695728 0.9680184736173501 0.3864080990466148 0.3453115984003454
75 1 10.7141843701349231 8.1688433749901002 19.6451705079079666 -3.1534543360247791 1.1562045698308991 -0.7596534195186845
76 1 12.0993026355650741 8.1691158666772576 19.6646122125069027 1.9050274911324103 1.8558566796865845 -1.0785121922092802
82 1 9.9894329897604308 9.4248867782076342 19.7195023056212762 1.6099840601884630 -0.0169684740788360 0.6142166937724932
85 1 12.8624923685649577 9.4427323586000877 19.5599576962528587 -1.1505722519709214 -1.2807946477192129 1.5508589336381409
84 1 12.1563630608708682 10.6520618695061096 19.7353536844749584 0.4264552005806695 1.1739126389446122 0.3103561077819418
83 1 10.7572527408206025 10.6518127580015864 19.7541599174230029 -1.0876547606594467 1.3348519631338978 -0.8532628896538700
88 1 16.4227474842509125 10.6934309199941779 19.7996580757348433 -1.4042543139601675 -0.1835349562103202 -0.2266279482238589
86 1 14.2997875879476677 9.4334887367758107 19.6193130626057375 -0.9031889922815216 1.8820769086117308 -0.1911723402142463
79 1 14.9478661783260147 8.2149812117812342 19.6254935098539818 1.0455246225962262 -0.0709590646967019 -0.7982472242820987
80 1 16.3699845039875420 8.2162937058250343 19.7678612035466941 0.0325610389713931 0.2066037121749249 -0.1871577035371211
87 1 14.9938615547873884 10.6679401377076921 19.7420628354147496 1.0789136147879321 1.1874064200165253 -0.3212644540207586
33 1 17.0798098768384747 9.4692912903452076 19.8690078224580517 1.3123305739518938 -0.1261943697407990 0.3055693025229175
92 1 12.1836930653921929 13.1456850827412737 19.7631518919392093 -3.2519530604035789 -0.3328147728985421 -0.0310654940145702
91 1 10.6587038269350813 13.1646215199850261 19.7875037288312328 4.6371028989429224 -2.2895745466287085 0.8513365873635997
90 1 10.0266290407957133 11.8955180907252132 19.7295252474840090 -0.3141337614697365 0.7277050730903871 0.8249937593148422
93 1 12.8639845457064954 11.8822803740865321 19.7333643496072177 -0.4381711951372724 0.4730087478457987 -1.5825538424616943
50 1 9.9778000639494930 14.3631174627370797 19.7473289487999963 -1.5497609144063849 2.0269621717275372 0.2460066790120404
53 1 12.8010486584132259 14.3780332959903685 19.7459624606386264 1.6779005035231349 1.6045403263158733 0.4553307336638976
41 1 17.0716052280109061 11.9577544653496162 19.9352580674519011 1.4341596665244518 -1.9545650248307866 0.1424973632323682
96 1 16.3249490809913027 13.1385097613626076 19.8736891380593477 1.1054583272666629 1.2749664587634817 0.4801145851257708
95 1 14.9385705920600280 13.1742859748015757 19.8242187982634981 -0.2660717845060947 -1.5014179999863495 -1.1905754773112329
94 1 14.2759133312125286 11.8903444309723909 19.6824039004514155 -0.2515570611019684 1.8605514678787631 0.5992424429646628
54 1 14.2266386894205041 14.3985598510293578 19.6863783497890452 -0.4903728360093337 -1.6406894050983065 -0.2904422119516744
1 1 17.0626870850228762 14.3911914186270504 19.8821991986355862 0.9288347158829343 -0.2389641076458639 -1.2550935960689966
