ITEM: TIMESTEP
80
ITEM: NUMBER OF ATOMS
96
ITEM: BOX BOUNDS pp pp pp
0.0000000000000000e+00 1.7084949165859321e+01
0.0000000000000000e+00 1.4796000000000010e+01
0.0000000000000000e+00 1.9999999999999982e+01
ITEM: ATOMS id type x y z fx fy fz
10 1 1.2635585246419798 2.6271729231597294 19.1305452882835496 0.4165257157116027 0.9830661960005276 0.3365631671270794
4 1 3.3982851062344981 1.4167507282656879 19.0205144780999298 1.3976452010102896 -2.2269837667206418 1.9248734040778368
3 1 1.9893878700813357 1.4175055989720311 19.1482834933013990 -0.1250035104124056 0.1034616314447013 -0.2878011297949681
2 1 1.2538603339770484 0.1760798195853329 19.1655421411952389 1.2424562765299525 -1.5426177863958563 1.5058390312482153
5 1 4.1262331814824202 0.1433992447767394 19.0754224738883167 0.2814370119113108 1.6674833492923202 1.1853156046582536
13 1 4.1231845134772245 2.6419534606080304 19.1655586566942446 -0.2565004665279801 -1.4320129022623411 0.4347966451448614
14 1 5.5320019664555140 2.5957557812741410 19.1444767324245184 1.3460644905393953 2.3617577418329865 -1.1793156978593216
8 1 7.6651447324691748 1.3554278945474889 19.1040792792721028 1.5901025816444361 -0.8571533182156233 0.0463052797475409
7 1 6.2531154210386637 1.3664118703238948 19.0892967207538113 -0.5858959269752422 1.6599752200471007 -0.6971672523147233
6 1 5.5378290127228871 0.1704647947038458 19.0927978276551542 2.0934978063817447 -1.6870341733048146 0.3842789212078906
57 1 8.3540984186860516 2.6014533453879034 19.0488007978085712 1.5633773934243260 -0.6585780280819145 0.4983169729262073
49 1 8.3836403420643659 0.1256229463904883 19.1508476700267778 2.5596341829655893 1.8613147360595546 -1.7167542082929446
20 1 3.4323337013939685 6.3954922877583016 19.1375406106947814 0.2057225987337726 -3.1931077568339488 1.9202980156375551
19 1 1.9825289332186822 6.3538492846535624 19.2265358874132986 2.8801976367777553 0.2264866453427613 0.1311770549631350
18 1 1.2876142330778888 5.1428661588152371 19.1437013852621725 -1.9451944295989465 0.0856484978603310 0.1102091322267670
12 1 3.3734415803247302 3.8768988059661638 19.1877172078541349 1.2850180257005814 -0.8807213225751995 0.0956653537575515
11 1 1.9376401491473048 3.8918642732500994 19.1414916899849565 2.9581010752974390 0.4020917211625599 0.1152455383665840
21 1 4.1431071262732768 5.0871945986457980 19.2409280186213856 -0.8452992072710583 1.1456533597001057 -2.3797560765261290
16 1 7.6622692646092956 3.8084922193666020 19.0505446651630272 0.3480786308162380 -0.4311925358557920 0.9040302947617396
24 1 7.6889642768499549 6.3046030344917874 19.0003827262688461 0.8524122699313389 0.8321357462315311 1.3980135409927201
15 1 6.2782691563524811 3.8324326076200199 19.1377111821939501 -3.2394613610812977 0.2003201667716399 0.0080395460427599
23 1 6.2627926494107928 6.3496951375234616 18.9594926204650385 -0.9963299238974079 -0.7301345185219265 -0.0549889046885172
22 1 5.5482748391049874 5.0945835211255339 19.1440132122336095 1.4356524359946414 -0.5260674637503175 -1.1156068562750825
65 1 8.3915524502939736 5.0258548969392507 19.0184666517766985 0.0231460518663269 1.1847817054605612 -0.1299249129888633
26 1 1.2737358953629074 7.5889758657356081 19.3013850978764410 0.5235735562802175 0.5916501278248401 0.9289512969456759
34 1 1.3320930962774897 9.9957589662878927 19.2518423924590714 -1.7542466412064324 2.9763435743795488 0.8068186197770854
28 1 3.4489537336152361 8.8594810589971740 19.2047058700410780 -0.4426819897403838 -2.4844948515364083 0.5774518468744980
27 1 2.0206216171973375 8.8183575891952408 19.3251290734957912 1.1341493137397167 -1.8218563500962457 -1.5789680598498284
37 1 4.1822374779340699 10.0732679762862514 19.1414097685636690 0.3205909808447377 -1.4172893336388954 1.8331256387090997
29 1 4.1679715026263588 7.6037970445657903 19.0873548478779931 0.1873658187006202 1.1177312614145953 -0.1719535681821700
38 1 5.6128668841360421 10.0285509985123369 19.1605046834973791 0.4693831054750373 0.6724978761532929 -1.5475539005921015
32 1 7.7454483028026200 8.8133856389018632 19.0858920546875304 0.9027916485870535 0.2566052275235398 1.1207094258468493
31 1 6.3579684084026820 8.8124831878607939 19.1074297490762284 -2.8116469436301927 -1.1195689039637877 -0.7691900212145942
30 1 5.5764418481880149 7.6116777827919329 19.0712104591007865 1.0728751872951334 -1.4771443875214232 -0.4135721096701572
81 1 8.4595200532810662 10.0283530371370837 19.1070418987919908 0.1906139723992528 -0.3471441464549985 1.4896469286660246
73 1 8.4143247384598183 7.5632774130193434 19.0853071163252608 0.1854568417548490 0.4228155525198696 0.1420075887419378
44 1 3.4098689206733521 13.7500546426514774 19.1939437817094785 -0.1532798820840307 -0.8910751090950786 -0.6168819503529779
43 1 2.0012531506414049 13.7373387063055965 19.2281355413024393 -1.2765147270718180 1.0876216957007838 0.6572198618426641
36 1 3.4140254229220282 11.2373410996681944 19.1776874945183913 -0.5702149935622181 2.7702299206368712 -0.3836483964565891
35 1 1.9958452889467597 11.2365075701922326 19.2482659983763575 2.4306708369798424 0.4966268681597801 -0.6192929865709411
42 1 1.3374279108383385 12.4774306620122051 19.2673441443074793 -3.2967311136855550 1.9935048885763800 0.3410722708782212
45 1 4.1051630688120895 12.5036751514248845 19.1972140675331460 -1.6110981415356411 -1.2888286929014998 -0.9122226713070731
40 1 7.7203585408060267 11.2189577203767765 19.0469450033621861 -0.7418953028093608 2.8253284719370084 -0.4423926577781290
39 1 6.2931901981251466 11.2379989632817061 19.0091142473785588 -1.4076886062881182 1.6466950681891135 -0.2676957697325903
48 1 7.7395336320006543 13.6751363228520280 19.1595669696433397 -2.3236968644383627 1.2758142512621113 0.2395154835300840
47 1 6.2607569623112429 13.6812018079249089 19.1776708312052939 0.8425432746298949 0.6552265047401551 -1.7029812422455637
46 1 5.5067049482455470 12.4919080270593668 19.0907331802677867 2.2248073320171939 -1.9781958138995561 -0.0314253761872224
89 1 8.4502768989143071 12.4681876521331780 19.0660524566442788 0.0355871888283492 -0.2930486627320353 -0.4399349960887110
50 1 9.8310530513389569 0.1551863846400142 19.1098554636618339 -1.1365432612091850 1.8683633649555456 1.1132145754496487
58 1 9.8191401588786391 2.6231168540306995 19.0897283520175449 -1.5058503303874970 -0.9670558717922826 -1.1806037440618944
52 1 11.9568085569522200 1.3645937457299289 19.2158058500297066 0.7024135657517860 0.0973963593984288 0.8925288916647733
51 1 10.5270612634319054 1.3720235634070514 19.1248837891804619 0.0780122045825017 0.0516492685904220 -0.2011664641664074
53 1 12.6751688117377661 0.1465953975800331 19.2355220977645978 0.4201396144591893 0.8172136333138615 0.3301476687767312
61 1 12.6668492209713968 2.5965026029216265 19.2019318250230704 0.5044995135706994 0.2669625781305237 0.6961291677279916
62 1 14.1257539808162367 2.6690334617137359 19.2298287926619018 -2.2706353623814337 -1.2507367673731662 1.7884491529642565
56 1 16.2379762069301385 1.3805500526751895 19.3850381052172658 -0.6356760214839389 1.5778006160267513 -1.1126394802519284
55 1 14.8148873624440292 1.4093949477764525 19.3508196360066123 0.2351834710719729 0.6447617208971343 0.6828319494597042
54 1 14.0898296506446954 0.1889183528670185 19.3267604909928536 0.6355505125781237 0.2614714444497434 -1.5492587593674476
1 1 16.9730622731606680 0.1614784867829821 19.3427245120761349 -0.1237567220479923 1.3362624580782017 -1.1601079728124590
9 1 16.9494620273532099 2.6181263259977121 19.1963033999709722 -0.2044182355394558 0.1920416648841702 0.3839398066808929
68 1 11.9242966080570714 6.3043523419757923 19.3415032698454326 2.2168954303625217 2.5284498948146288 -1.4576063101165853
67 1 10.5202944390312538 6.3238136791415762 19.1985303410862471 -0.0430033267965326 0.9684558854816088 -1.5798928971231061
66 1 9.8249946407714734 5.0546425942849806 19.0620195931960765 -0.1998701905475905 1.4271099612539846 0.1201758128700649
60 1 11.9510331109634915 3.8075488069978212 19.2003667087002405 2.3265992150702304 1.2707573851238076 1.0884455108358535
59 1 10.5560401401804853 3.8337095900722153 19.0989427302542616 -1.8948271620119883 1.1537659810520218 0.2121036283633272
69 1 12.6487930329495128 5.0761987019733841 19.3130959048410062 0.7078515882953929 -0.6184501618526889 0.4532985974756255
63 1 14.8250799884943909 3.8804405438192924 19.2740034561423208 0.4650940326630753 0.1413490559609067 -1.1811821016726585
64 1 16.2371044496593662 3.8425475763036543 19.1720749810601596 -0.1937574172970218 2.6134094910750854 1.9158503696899547
70 1 14.1061358342832150 5.1190278931628903 19.3103716421731768 -0.9634095433636238 -0.8404290319086068 0.4792765975459932
71 1 14.8037351952330631 6.3370136707056517 19.3354358607919004 -0.9557564185967052 0.1041921294293216 0.7374000304280448
72 1 16.2111589506685227 6.3733500012086344 19.2633498083321619 1.2168155819470723 0.2579465896587128 1.2785118486153038
17 1 16.9030523775184633 5.1339118221732569 19.2523341816401619 0.7342577348473236 -0.9730951639132757 -0.3351331281037552
74 1 9.8483863282531132 7.5916216532407255 19.1501374416728574 0.9034028636784197 -1.7543285334730001 0.0345745219035644
75 1 10.5870533349944420 8.8268853068151198 19.1952113339241386 -0.5648574811315390 -0.2248598243783509 0.8318168136939401
76 1 12.0062937051930536 8.8168265733582203 19.2181894771008537 0.1784301885954962 -2.0569888821292279 0.1064442001681578
82 1 9.8618647115609619 10.0707780081028613 19.2499067463281754 0.3947441604061052 -1.5993115033170531 -0.2031904432132181
77 1 12.6796706924876741 7.5870355153374289 19.3628969015241097 0.2682115232499618 -2.3431479117250986 -0.6553612392998310
85 1 12.7135532286650506 10.0149303594285826 19.2984471861454274 -0.4290527487108016 1.6999769257035686 -0.0344647488073655
86 1 14.1580030906981857 10.0791523467889146 19.2688527091405106 -0.4562945793297336 -3.3669280384304292 -0.3720824336315223
79 1 14.8720177803912641 8.8020000523741864 19.3458973738501996 -1.7890206952227388 0.8222804236471741 -0.4781244067771806
80 1 16.2951487265195567 8.8386001345283187 19.3320258150772410 -0.2726376102621795 -0.4447241194179904 -1.4108335409103021
78 1 14.1066390217382924 7.5583253609305716 19.3470509006953009 0.5928133071647164 3.0305463609069072 0.9013862032192862
25 1 16.9765578536126860 7.5930706903270790 19.2583829703351554 -2.7689357961104744 -1.2652350344949745 0.1109431827726163
33 1 16.9537741886910851 10.0742119341404113 19.2511453240561003 2.3001849673619739 -1.6255590217960436 -0.1190259815096689
92 1 11.9977898249949497 13.7292767383133398 19.1845766863865563 -0.7854404378805234 -0.4527166859371573 0.1149209741989156
91 1 10.5433114881787553 13.7627564807154315 19.1433715682260797 2.6115450497117978 -0.4427164605949098 -1.0770177938677286
90 1 9.8539817524034827 12.5484026393593027 19.1530477081874828 -0.9151608056397325 -0.8859504284664850 0.0497292136528253
84 1 11.9778416546072357 11.2724724984212568 19.2750074931287223 -0.4068220254513162 0.7846876437718332 0.6706566563732732
83 1 10.5372975565460685 11.2958714526924542 19.2228857677102134 2.6877190027565785 0.0373035308026375 0.9930606459753748
93 1 12.7118247064366514 12.5150159132317764 19.1616501553824747 0.9695745025397734 -1.7279747220899826 1.1555480033036503
95 1 14.8427058553568614 13.7806159787038069 19.2694158108343174 -1.2196241577171201 -1.6323357015172077 -0.4647808138478812
94 1 14.1659479131842385 12.5484611942705424 19.2309036606991519 -2.4037618281327529 -1.0433638700779955 -0.6377862100500217
87 1 14.8559520245442069 11.2863775388396643 19.3085753726540901 -0.7790788508361468 0.6750148822214321 -0.6619158050462923
96 1 16.2553624277680484 13.7410500319587996 19.2736973840915837 -0.8903602854970447 0.9869483112266227 -0.3555359620038969
88 1 16.2646281802872359 11.3159131687028811 19.3245642388702805 0.2210246924289318 -1.2854891390530181 -1.0409948975831049
41 1 16.9644070039665600 12.5342077954105999 19.2997791436843826 1.4861852194110248 -0.1889828053251216 0.7773014779809659
