ITEM: TIMESTEP
3950
ITEM: NUMBER OF ATOMS
96
ITEM: BOX BOUNDS pp pp pp
0.0000000000000000e+00 1.7084949165859321e+01
0.0000000000000000e+00 1.4796000000000010e+01
0.0000000000000000e+00 1.9999999999999982e+01
ITEM: ATOMS id type x y z fx fy fz
10 1 1.2226890383739355 2.2059290098248701 19.2318017721170627 -0.8052192168427273 2.5938068476016998 -0.5774917924321517
4 1 3.3985954723439118 0.9125944891426078 19.2644351938908898 -1.1797433857532402 3.4135839754876103 -1.2505298703486196
3 1 1.9766174293912324 1.0234010484094171 19.2846829065164265 -0.5184732603670315 -1.8001826424078553 -0.9524970377640071
2 1 1.2284944426682354 -0.2019740972257637 19.1839465355777712 3.1493380626414167 1.3188972941603543 -0.2214826796960017
5 1 4.1028505698507889 -0.2558650418268898 19.1079325385053416 1.1955017129277008 2.2073649950740730 1.0233854603282317
13 1 4.0404630053730690 2.2477989559079998 19.2936020011908411 4.9190936220490595 -4.2977007976110579 0.8452912849226438
14 1 5.5316656005595091 2.2579848742192024 19.2524779109460518 -2.2766202477675925 0.4724492347452379 0.5352306984330499
8 1 7.6743408057212124 1.0801764277237522 19.0677370060603302 -0.5953498166354747 -1.5667083079790234 -0.4176005999398235
7 1 6.2778367225282192 1.0303755198237610 19.1369199511331161 -2.1359097824070261 0.6372096283906764 0.0711245063971145
6 1 5.5241735867371604 -0.1891201795800046 19.2014690103124899 1.1041968066845593 -1.5953901263665802 0.3957390264987344
57 1 8.3891618293250243 2.2690184953616348 19.1499413478656031 -0.5097821238302753 0.9577807950070090 0.7826200145520992
49 1 8.3572002514911183 -0.1494646753618036 19.1108297827640961 -0.2675858585310944 -2.3704836108535887 0.3238593397258404
20 1 3.3157993810491746 5.9722007527807648 19.0978339945646063 0.4947903567176749 0.2805307159514869 -1.3821387781620158
19 1 1.8882603224216297 5.9950724802336746 19.1429123073110610 2.7166451822250601 -0.8063845178440929 1.6671721761727918
18 1 1.2451504964222453 4.7216892870647058 19.3437771426925877 -0.0210344439577162 0.0422193410920941 -2.3328388591071199
12 1 3.3759334489639587 3.4427364146887656 19.3285186673659588 -1.7291956633476799 0.9739990890242007 -2.9386948415467526
11 1 1.9233119649221553 3.4421977465018196 19.2507054440667460 1.6799539475759602 0.5072293427545247 1.3168332043375128
21 1 4.0570006929471649 4.7070041469638699 19.0370314437003287 -1.2359468049349815 -0.9670067451981388 0.8431600862060870
16 1 7.6040788857481463 3.4857525570163532 19.1443695132666569 1.6377728990974374 1.4216700960057951 1.0736252108837054
24 1 7.5534829357115338 5.9605700177693191 19.1446214108903341 1.3093635215031525 0.2646516409372346 -0.5826819822016915
15 1 6.1804362756756461 3.5224736015680067 19.1807799988883794 0.8464065075560793 -0.5557608303215542 -0.3284132756480639
23 1 6.1526880883504544 5.9785696202407905 19.1564069260994962 -0.5817604430236897 -1.9474056849639387 -0.5948303355833098
22 1 5.4461328230627100 4.7106135843981525 19.0838905678179955 -0.2876972041454846 2.5957020687259229 0.4920631038920811
65 1 8.3063094975538423 4.7409429827800471 19.1831774256129037 -0.4983083455619278 -2.1627380938031768 0.9034652356692576
26 1 1.1819872146351460 7.2161064134874442 19.0679157666523231 2.0646557361624049 0.4078404010385366 -0.6197663433674236
34 1 1.1987786165342333 9.7188328931278249 18.9383687242345253 2.3044503435392465 -0.8899579186334108 -0.3073075682926586
28 1 3.3556381899901417 8.4571769367561593 19.0816949913465095 -0.2914852081420810 -1.7647924103930452 -0.2224011841114022
27 1 1.9106518385696045 8.4718144304519747 18.9937976710331888 -0.4210567140442560 -1.2837568973025459 1.5860892648692912
37 1 4.0904488530126244 9.6679405418718662 19.0007997843798151 -0.9999766542739654 0.2573426224640851 1.1519585625630584
29 1 4.0602692201285011 7.1933658091034953 19.1138015640726344 -2.9265570239282512 0.5045637306022083 -0.6911734247266561
38 1 5.4896054029487882 9.6523785553696655 19.0907024025184846 1.3237841036653648 1.2284581900169875 -0.1542606294841134
32 1 7.6367876995167041 8.4256209870453702 19.0985586886872980 -0.4043740197629868 -0.5134963167210929 0.8003970877835966
31 1 6.1930611776786550 8.4147289439781137 19.1124594964019714 -0.4964699086558961 -0.3324655655597843 0.0727876296346207
30 1 5.4474912711926518 7.1823660445526718 19.1808818019276259 1.0519051890867051 2.4641841770926050 -1.9828607525372433
81 1 8.3596034005923610 9.6532513015521655 19.0995700507284454 1.1538027362790813 0.0356464634587674 0.8507654894768097
73 1 8.3429093333886399 7.2116921961623044 19.1346687232435535 -1.0742835492259646 -2.4381228090882550 -0.2261449929308001
44 1 3.3990522820971871 13.3549320871168913 19.1542251602088527 0.5449726405288812 -2.0710819914679339 -1.6110655773896387
43 1 1.9878645409893307 13.3741419962333943 19.2107208315095654 -1.5936751013883175 -0.5006371746241405 -0.3214551858031079
36 1 3.4087773382600539 10.8867222455180013 18.9359291230575160 -1.4286645891541405 0.2444849877112525 -0.1274670495170817
35 1 1.9917041515430207 10.9267607059739191 18.9555247935168758 -0.5183340403595579 -1.3260744302737750 -1.1460716288138204
42 1 1.3022354187937795 12.1665466696969986 19.0680535523202863 -0.6493443423878250 0.3105961375952334 -1.1138919560054359
45 1 4.1074263938339799 12.1387694097260042 19.0764798647960028 1.0460481323547970 -0.8318001200813685 -0.4076951347470850
40 1 7.6827160842599085 10.8892175426108100 19.1488144145734580 -0.1035359481967848 0.3311654680488174 -1.3794492422690643
39 1 6.2227387587305687 10.8884205895266053 19.1372698026909838 1.9923757922497636 -2.0006660014333257 -1.1410489935393067
48 1 7.6456559797797699 13.3891131694848848 19.1641571666650457 1.2892728352039355 -1.3094605551014435 0.3422931489883749
47 1 6.2366336636292425 13.3593380895266556 19.1921670901481747 0.2702976854858924 -0.2738766058403639 0.7570236066946709
46 1 5.5229662750785797 12.0899359434355702 19.2263189390594000 -0.1339676134730228 1.7681154008093782 -2.0752393127201065
89 1 8.3888268414240308 12.1645342324890162 19.0605954190444429 -2.4836414112310861 -1.6468312893866899 -0.5171447793178297
50 1 9.7947069047001261 -0.1966754124953426 19.1253012624666923 -1.1316882003347755 0.3233128419722688 -0.3012238890353541
58 1 9.7880441639910067 2.2763911136620956 19.0906558229596435 -0.5924517302115742 0.6964852083594701 -0.7145791352923005
52 1 11.9115292825261054 1.0599891214054549 18.9734849244377308 0.4846357872158584 0.1057474080240159 0.7021134727337438
51 1 10.5150505859111263 1.0672385227680554 19.0432278682565190 -1.2433762384890454 -2.5682282356435904 1.1139866084888865
53 1 12.6221509198229942 -0.2013068108723364 19.0861890697153491 1.5261311017010042 0.5542395460947528 0.3851150090091837
61 1 12.6544997863314972 2.2761964311576701 19.2004992970455781 0.9897245722526793 -0.6860479992071695 -1.5706694396153014
62 1 14.1083071232577080 2.2420981827709809 19.2939846503941830 -3.1539220530703176 1.0443255229682995 1.1534111873454571
56 1 16.1758336253902542 1.0267355947912693 19.1250615114184939 1.0090818506098609 -0.5530817872966510 1.9862554866625370
55 1 14.7752229612512487 1.0207314667412335 19.2357381628586133 -0.0119885870004056 -1.2314218201793543 0.2585384441096948
54 1 14.0593219341317770 -0.2590508901559904 19.1680978148032146 -0.2442695877478563 2.1257066075793505 0.0756140118360069
1 1 16.9237798610683896 -0.2238708121644658 19.1327198799918641 0.8977015135795834 1.7804770948954154 0.0454326987160626
9 1 16.8567579999299006 2.2220460055224551 19.2368242415366879 0.8380314018611332 1.4582358236611559 0.9343801741585503
68 1 11.8693914659131057 5.9614648788618316 19.1599377375603979 1.0340831135510444 1.4411273932936517 0.3487635369690283
67 1 10.4501905357685700 5.9561599961573926 19.1754213980616974 -0.1628847595382096 0.0623262067651464 -1.3502817399376703
66 1 9.7649065940908493 4.7165473906953146 19.1635782649947615 -0.5131299948093369 2.1661387372803302 -1.3847596839751224
60 1 11.9253010116472122 3.5179247209249516 19.1637603989364642 0.3153015506670849 -1.1814791803428537 -1.0576944439715859
59 1 10.4960016985866211 3.5261194558681090 19.0564654497190737 -0.7038750703488319 -0.1291516267118726 1.0887913831433469
69 1 12.6421804889965390 4.7479925320093166 19.2239885249441471 0.5974372032491446 -1.3901019001106767 -0.0292092028054048
63 1 14.7913417510130376 3.5336153019194025 19.3165161749294683 -1.5962874772204931 -3.3572466283206612 -0.8190050839555230
64 1 16.2007404103992556 3.4761185592866926 19.3257694875051271 -0.1241991342729316 0.5002885608973006 0.0707765461727511
70 1 14.0768213271018894 4.7186841031965789 19.2874838102263091 -2.0312908633932194 1.0995677099513061 -1.8851295375808386
71 1 14.7680928537928846 5.9736142561952015 19.1311240339582085 1.1130500058618220 -0.5260860049868239 2.5283763871351175
72 1 16.1681745464394275 5.9401305361082430 19.2392287804306434 0.1266758504444443 1.8932784929228794 -0.4508006837989471
17 1 16.9208866632286039 4.7163164147049761 19.2823970201488741 -1.3412329203642663 -1.2233191784912485 1.8769215256847112
74 1 9.7704977535610862 7.2202872729965977 19.1513823821709543 -1.8583654690729052 -2.0281208039749381 0.9880257766199776
75 1 10.5323469570960686 8.3874004501328461 19.0739793724483384 -2.2135914818746318 1.0323868107461678 0.7533732246253537
76 1 11.9333262741376043 8.4055011421745416 19.0870138311055264 -0.2605001431945528 -0.6573162026509516 0.4467265152129010
82 1 9.8495011610789156 9.6403113757203105 19.1656890678301899 -3.2127664512141774 1.0480485851158365 -1.1706927902277635
77 1 12.6667981551724527 7.1974083314241701 19.1007118136629792 -4.1131922304913857 -1.4486949186097287 -0.9677951691821738
85 1 12.6574858854436059 9.6168912256966834 19.1435902962491191 -1.0999079484387169 1.5767698923247206 -0.2341215833670645
86 1 14.0476256389539245 9.6848115000089621 19.1632041917402240 2.2650682327049472 -1.3095361984494154 0.1794519912829801
79 1 14.7740486031487332 8.4491238140878941 19.1747035777818304 0.4968204181757304 0.7482361752419718 0.1165588014921005
80 1 16.2052532316657505 8.4575883602078541 19.1060680728348657 -2.1273373455437161 -2.1888322991426299 0.7629671620468224
78 1 14.0414825050671812 7.1829170595951242 19.1717784133317082 1.4247580692987101 2.0522859187053322 -0.1862184968524869
25 1 16.8911508682083031 7.2130830155356920 19.1814526909073351 -0.1896138796587852 -0.2099112701977646 0.8021653068879970
33 1 16.8781653121728361 9.6669928360204995 18.9610328835189748 0.2985962843234796 2.1803331903853160 -0.3749566389887618
92 1 11.9419697449640658 13.3607155198711443 19.1025365771664717 -2.3846084061540580 -1.5689276133925625 0.6797030012168228
91 1 10.4886549247948189 13.3230389598919228 19.0270017112804837 0.7221598852847733 1.9040929907079152 -0.0062308236142433
90 1 9.7711878245455992 12.1211031032018930 19.0378313114612396 1.1425032943374225 -0.4152818551188968 -0.7051311922332366
84 1 11.9738643407056617 10.8752769585003417 19.0594415677048374 -0.8113901202855140 -0.3287386170881258 1.2154397017351828
83 1 10.5375529715361509 10.8751027066779766 19.1045192045513481 -1.0398747904268368 -1.0885353471389161 -0.6830359640377324
93 1 12.6620706196548856 12.1353629308718016 19.0841990557909575 -0.5443624067746059 -0.0733291736979626 -1.4255899466113038
95 1 14.7856536868139123 13.3634915880789507 19.1674895986948748 1.1537505675105284 -0.0320381964758462 -0.1732512990096140
94 1 14.1017279949484813 12.1557453822879626 19.0648675534312595 -1.1234976290854555 -0.2864579275167871 1.8719334347259147
87 1 14.7793104021833575 10.8998563986032728 19.0929313826995504 0.4903397314309549 1.3128697806458942 -0.6422727584572909
96 1 16.2220139697127657 13.4160127723478304 19.1244167781740622 -0.3447243866846953 -3.4805427780012259 -0.8646242883250449
88 1 16.2123366917807203 10.9341802181048688 18.9917139138090043 -0.0122705041897706 -1.8333246652433384 0.3397860185304838
41 1 16.9374527244653095 12.1555883219423517 19.0795515860101261 0.2696330204266778 0.1427992777094720 -1.4416541126991818
