ITEM: TIMESTEP
1240
ITEM: NUMBER OF ATOMS
96
ITEM: BOX BOUNDS pp pp pp
0.0000000000000000e+00 1.7084949165859321e+01
0.0000000000000000e+00 1.4796000000000010e+01
0.0000000000000000e+00 1.9999999999999982e+01
ITEM: ATOMS id type x y z fx fy fz
10 1 1.6265570794917676 2.6318921556290626 19.1670363203786067 -0.5400444122370878 0.0430296149340431 1.1688713055071824
4 1 3.7114756458898097 1.2761787034719128 19.0417110211186191 0.4538405995392019 3.0888220468707339 1.9245690692822586
3 1 2.2925074785655735 1.3618294788296028 19.2471677550715299 2.5724484410603727 1.7578733440232854 -2.6209643632808177
2 1 1.6078488235805772 0.1570819177620419 19.1555409553667246 -1.6492285903000239 0.1260079448454652 -0.2754066071687705
5 1 4.4914510731307420 0.0931558102054966 19.0333188219651532 -1.3158456502394311 -0.3614729450084084 1.3140637348063005
13 1 4.4377628188406888 2.5594661443877800 19.0912217245838605 0.0356180376880008 0.3470600746327243 -0.3256086388024461
14 1 5.8794356092783326 2.5591216647739556 19.1370219625650719 -0.4008983557437358 2.9738505621713456 -1.8540066700941469
8 1 8.0172233021723560 1.3370008387062930 19.1291052231393479 -1.1509555599865076 2.8881769032202547 -0.7459031163760835
7 1 6.5955933956308010 1.3700854031432894 19.0978125036359678 0.0610697942621764 -2.6806972879717179 -1.2199392664076092
6 1 5.9048736476472063 0.0985594198342547 18.9995066472619811 0.5275877390416397 3.1345640978791560 1.2688836469383153
57 1 8.7146056591153709 2.5764638677711029 19.1344810817112432 -0.6398277282731849 1.9034512257145049 -1.6531488583628597
49 1 8.7054056737997492 0.1376112548306594 19.0476964511077576 0.1708197389646122 -0.4717253381561627 -0.3782129098069475
20 1 3.7529783202459877 6.2487080136471542 19.0372755592469183 0.8929595689601229 2.5213923427835727 0.0023632477544026
19 1 2.3121981983163948 6.3162184311659955 18.9765341612849419 2.0927502285864743 -1.4480310016297924 1.3935075473856817
18 1 1.5958920158642231 5.0837031940574233 19.0549765865672427 0.1853178344900336 1.5267198911282769 0.4244617333162188
12 1 3.7189933677244720 3.8242431868379092 19.0537145372477994 3.3296568903005075 0.0869636666819953 -1.6554396780141989
11 1 2.3353254351891510 3.8529868390883713 19.0633969499320379 -2.1849620767292461 0.9952280472653517 0.3122324357031246
21 1 4.4684523338448230 5.0405049121788243 18.9565630465581023 -0.4088692181911525 -0.1098561907567636 -0.7620547018863830
16 1 7.9852666154238836 3.8276580500120296 19.0058286828852339 0.3316668179386276 -0.2907284918023921 0.8227487507819320
24 1 8.0173195852017720 6.3149256481984439 18.9292492032263624 0.0592452688421188 0.6504808442999168 0.6971396498109528
15 1 6.5810798214692534 3.8273468073777193 18.9619438658549448 -1.7774144923215114 -0.1382928525004446 0.7398424315286665
23 1 6.6192675569738793 6.2859468549086372 18.9220711909249673 -1.9812251506963439 -1.1218195362649814 1.1741034667990675
22 1 5.8751922581330103 5.0647428986764540 18.9022552904345460 -0.4667171882828153 0.1162053501355574 -0.3284043483421063
65 1 8.7334291261703818 5.0690520515435349 18.9604987011862356 -0.3747568431157600 -0.4987999623821963 -0.2625432919597039
26 1 1.6083685893342954 7.5391140421777356 19.0659855042380286 1.9486235654554402 0.0780097458335547 0.0402952190445711
34 1 1.6525745231766438 10.0674354519548999 19.1138286127782244 -0.3053953072772370 -1.7521921064801225 0.4231743059572952
28 1 3.7403814836998044 8.7846761043159027 19.0215084352409391 0.5910912434080660 0.0870108356450611 0.8817993234474872
27 1 2.3392736364731856 8.7809005909097451 19.1105423343654870 -1.2172430653665913 1.3072453246353406 -0.0486790809838083
37 1 4.4299919621184527 10.0254185294642717 19.0236053891971011 0.9076315990634509 0.3944357517648805 0.0809541768574045
29 1 4.4602589295809514 7.5281836031321756 19.0715462390118766 -0.0352425612332939 -0.1236893205622804 -0.1460272399859046
38 1 5.8288621593851326 9.9769609335882130 18.9924169611475939 0.2055703636407085 -0.7242162106656382 -0.7731689341798279
32 1 7.9881995189102133 8.7945802226213328 19.0020054956945614 0.6162390096969603 -1.8424229282723004 0.1564835202198366
31 1 6.5426080337015238 8.7257447714360143 19.0168226454261493 0.9117178100111244 0.6436102986856522 -1.1623589115596871
30 1 5.8870848701871594 7.4990807010949680 19.0937328559124246 -2.0714686835240399 -0.8955290060678734 -1.1939987044104632
81 1 8.7353727534505303 10.0094005896717633 18.9859081646851884 -2.0254352361621937 0.1506330508904162 -0.0279675717675185
73 1 8.7409592466209460 7.5585337380807500 18.9661506754887306 -1.0077472970693617 0.9234396274525798 1.4910473854313533
44 1 3.7633843954611983 13.7026552213428250 19.1389297934231060 0.5055363095336828 0.0379603089791380 -1.6823220338300457
43 1 2.3641700227907436 13.7284699620355735 19.1132303256844800 -2.3940983033995407 0.8157536665909894 -1.6235002004815513
36 1 3.7486751797343487 11.3292791760658176 18.9287319916571803 0.6659546061256590 -3.0553040243280387 0.3127430336372565
35 1 2.3524711821801496 11.3039052208268558 19.0466719645802165 -1.1225933570661386 0.5418755953130445 -0.8487358610655686
42 1 1.6222705576520511 12.5132581962275982 18.9912090257368256 -1.1086510025237311 1.3222274582928173 2.0392931193102961
45 1 4.5148702863697174 12.4998951125579012 18.9739548131943252 -0.9913973422531979 0.6675082602870890 1.3265670956366102
40 1 7.9636835962008865 11.2275435532238621 18.9243259446857550 2.2635429507039797 0.4278300608894101 -0.7514552645783998
39 1 6.5849289960734465 11.2156350433232674 18.9124195989553598 -1.7410023546821671 -0.2039272274971091 1.5417032936440913
48 1 8.0001308649001555 13.7456324156846588 18.9551994891804192 1.1007266786811223 -0.7193147434637681 0.7984247124590795
47 1 6.6317363944358618 13.7064896097399664 18.8720387411972830 -0.6159085678978529 1.7430334329731212 0.4210399179449816
46 1 5.9286041738132678 12.5312879867274738 18.9571235185439662 0.0177539175489527 -2.9948216770442819 -0.6228312766195581
89 1 8.7103239459597521 12.5039447165642610 18.9370492044251435 -1.6849649776100093 -1.8395250856156662 0.4324329818408674
50 1 10.1422303427620939 0.1517123460056434 18.9750298892863114 1.2577363514702791 0.0527686590352259 1.0295821937363567
58 1 10.1573505495805421 2.6367799191643000 19.1741266841552900 -0.2906327813953531 -0.8632145234165353 -0.9935604679736035
52 1 12.2674119394794214 1.4166555910876730 19.1628374027046853 4.0124048823116496 -0.7236292133277146 -2.0116359471007743
51 1 10.8870637627321063 1.3886133514090722 19.1219363670401670 -3.1801660510972871 -0.7781652364827365 -1.3809049537137339
53 1 12.9944478517127635 0.1329797757600721 19.0385124657291840 2.1683490110812196 0.1206183337991067 0.8194614422066393
61 1 13.0529609393900330 2.6882202351081830 19.1047287872648504 -0.5781025786615969 -1.2107574059253607 0.5422590913483955
62 1 14.4675173420499323 2.6744996971972439 19.1381880700292832 -0.7518891234063848 -2.3641300525330973 0.0768230674061089
56 1 16.5587261317117864 1.3825580006078100 19.2100496893945589 -0.6958189843167486 0.0993419152973066 -2.1632603200347371
55 1 15.1516205932084969 1.4107639094012472 19.0911453233851844 0.0891642193821216 -0.9128142557275445 0.4569769844972704
54 1 14.4549098112377710 0.1115189506202235 18.9539301160042477 -1.6981434041404955 4.3721587511773414 -0.3638674014738935
1 1 17.2788539933482070 0.1544505218209137 19.1384666428400685 -1.8949001756267823 0.0941692561554883 -0.3483362104698970
9 1 17.2676502211409115 2.6299834698840807 19.1470325680280347 1.6055322763403184 -0.1737814400846982 0.0015423676333985
68 1 12.2770174699050330 6.3215655935844151 19.2219254125769901 2.1577932533111581 0.2053855410089641 0.5078175019444902
67 1 10.8678540087632314 6.2970284048199989 19.1202650413155304 -1.2371819425307402 1.2490554574138102 0.6236774294612695
66 1 10.1439515705585990 5.0342632815140398 19.0909417816405735 1.0310024978868175 2.3280853643740942 -0.6343423541036809
60 1 12.3394693900635009 3.9147720826191144 19.2069061583481577 -0.7863021399267432 -0.4458325769274951 -0.9972014427186158
59 1 10.9065146556814447 3.8404498317627738 19.2135734292689264 -0.7914092919991391 -0.5320479167502280 0.1472384452486359
69 1 13.0482659857271859 5.1237984813474444 19.1980212053867909 -0.4373716420399137 -0.6675501675453587 1.1890137893126884
63 1 15.1860219864295907 3.8906340575623442 19.2659803469111957 -2.5009671797456416 1.7395208476360282 -1.6759812288540918
64 1 16.5607901403847713 3.8992127183230800 19.2131817504428852 2.6511256667480492 -0.8152501250370463 -1.2637042376108467
70 1 14.4509779381612020 5.1472943592804619 19.2364264562028282 1.8987900717065034 -1.2130430500627793 -1.1272951426879674
71 1 15.1623164371528354 6.3185354978103936 19.1779614515116315 1.2363845760689964 2.6602483865480537 -0.7365803891172378
72 1 16.5904697670841408 6.3763757880241503 19.1073181417165898 -2.0907739280015178 -0.4626353569613137 0.6974593973513923
17 1 17.2741856458228362 5.1573412085198500 19.0938296031659149 0.5508890079440442 -2.8530009440087074 0.6202354260379348
74 1 10.1662088938143942 7.5616240186065644 19.0687427635195128 0.0034117906002649 -0.9505462664605441 -0.4626166200690802
75 1 10.8501615787978540 8.8328541660125754 19.1370990209759420 1.7772641626688155 -1.3053202142461817 -1.4961298744022926
76 1 12.2794633975017895 8.7919555180006306 19.1480630960159495 -0.2238890950588724 -0.8092507882178619 -0.3227096472187140
82 1 10.1730238645135209 10.0375278649790118 18.9630776497593629 -2.3679261995309573 -1.5064179313456898 1.9391530070609073
77 1 13.0042640061395609 7.5803375091903193 19.1895455917975575 -0.9329597599969269 -1.0257360416010650 -0.3818820792461380
85 1 12.9708536624972322 9.9957117922900949 19.0055399434591976 1.3888630588813560 1.8593430260495252 -0.7090104220650844
86 1 14.4485137073122303 9.9826106722222221 19.1048109151280379 -3.4121549470626800 1.1246224971138266 -0.6716996625005835
79 1 15.1211540339683612 8.7655311189675178 19.1790986471660503 2.6692626375277602 -0.1630969309737046 -0.7960088291498327
80 1 16.5629201104901007 8.7764367773123819 19.1668657073629625 0.5509821952809790 3.6692515453383150 1.3432287324688321
78 1 14.4168514866692767 7.5463696080661888 19.0713247865877200 0.5479908289607285 -0.4048360330660330 2.6256168618058089
25 1 17.2878327350851535 7.5860035529303627 19.0962055321484527 -0.6477329328022837 -0.9738309196158343 -0.5690558342883865
33 1 17.2876063973541285 10.0851579973926526 19.1942363071428197 -0.2572247839707519 -3.0647666668658426 -1.2784232036226628
92 1 12.3121749224446955 13.6822112956327739 19.0296255247398314 -1.8178072830111565 1.0770623818078666 -1.6764309978929193
91 1 10.8536343900636325 13.7217623422204511 19.0364743122430475 -0.0618674676359938 -2.0133479182301492 -0.4181816143516525
90 1 10.1134497513642945 12.4760746627699035 18.9984491830659081 1.7894274816544973 0.4889839987321941 -0.6141917381159117
84 1 12.2608505453787799 11.2556707166469945 18.9639455390273461 1.5191053112601831 -1.4717268224927866 -0.8898626693043683
83 1 10.8405269861057683 11.2699934688242713 18.9772875390139255 1.0800365783907375 -0.4783705547059883 0.9380798962230450
93 1 13.0229905982036964 12.4703168458040974 18.8977999981588738 -0.2625838059800389 -1.1001492725974706 -0.1198534963650352
95 1 15.1174458503701690 13.6971732388115033 18.9203033689751479 1.8600809495342172 0.1136186989142745 1.1113609573857008
94 1 14.4229069847090123 12.4435542137450810 18.9487262012906008 1.1958554441533866 -0.2283856807001184 -1.5598913570378297
87 1 15.1116452513012067 11.2131054367487017 18.9904086466664559 0.7167144182685132 -0.4001766518125927 -0.3494490857639578
96 1 16.5403861897180882 13.6923550495145836 19.0971090770835907 0.1229118691545770 2.1024803895250876 -0.8898768612994338
88 1 16.5740862343382034 11.2396646772100723 19.0121911632524814 -1.0118251584295390 1.5535307349533876 1.0284380075589825
41 1 17.2322837678209773 12.4678771944677180 19.0246461189481657 2.5518495740444478 1.1816384641038260 -0.9515606205210011
