ITEM: TIMESTEP
8970
ITEM: NUMBER OF ATOMS
96
ITEM: BOX BOUNDS pp pp pp
0.0000000000000000e+00 1.7084949165859321e+01
0.0000000000000000e+00 1.4796000000000010e+01
0.0000000000000000e+00 1.9999999999999982e+01
ITEM: ATOMS id type x y z fx fy fz
10 1 1.4991280923369179 2.0449120825467664 -0.0332665383662772 -0.4054879059225058 1.8155765996833240 -1.1963731209050799
4 1 3.6619136527206568 0.8183547438010284 -0.1068642602719904 -1.3343574842951671 -0.0563873042980698 0.3811765576435669
9 1 0.0891801909992623 2.0421411314050983 0.0609680379283768 -0.7942241694194365 0.6124202350783829 -0.0455422825442462
3 1 2.2163471791426779 0.8312607066765235 -0.1078769198522329 2.3914091258097545 0.9446210042239658 -0.0954502062737844
12 1 3.6343102456845822 3.2864416624075896 0.0117982007886070 0.6650430986625966 0.4851274645175696 -1.0522756035130787
11 1 2.2183664272982564 3.2890705795322597 -0.0251716757634312 0.7496700244501460 -1.2030362532035705 0.9639555813549736
13 1 4.3504296610458955 2.0542455483960342 -0.0754840399034816 0.3900967911226888 -0.9018454430511365 0.8932409507159496
16 1 7.8848006430156783 3.2527755791468569 -0.0238383854422421 2.3180999741632666 1.9110609694842919 -0.6927732967570197
15 1 6.5021071129231220 3.2713801499579995 0.0172707311116419 -0.8134213958485825 -0.9599138513726271 -2.0447243889425932
7 1 6.4901539396663575 0.8065133112737380 -0.1894784493288795 -0.8423720310015647 1.1351379514611089 1.9150377871039743
14 1 5.8088493091406956 2.0652839008589905 -0.1386998292950886 -2.5981065320470229 0.1308677200175594 0.4602566899117701
17 1 0.1336512868668239 4.5621013012271492 0.1230180557749853 -1.3194413137700973 -2.6414095691531281 1.0197810589760323
18 1 1.5507872758479966 4.5240024128682030 0.1161476417372394 0.1794343184470887 -1.0172180907266744 -1.0094843351061205
19 1 2.2765771879784853 5.7236864802764833 0.1273897501376690 -1.1223874789029351 1.6587152589094829 0.2561849840668564
20 1 3.6811855006420631 5.7387413025012934 0.0826116047677060 -0.0539172591539775 -0.3109568285493209 0.8885342913082599
23 1 6.4603629030097673 5.7146750763098488 0.0907692459025485 2.8147154750630632 1.8317104856185225 -1.9263778517843257
22 1 5.7509136418737210 4.4921426054410780 0.0182264567487543 4.1725598421061516 0.9752647686807128 0.1208968584918878
29 1 4.3864466648641613 6.9703793512390186 0.0305966965579236 0.0543266340560724 0.7309594692684019 -0.2426936213787857
21 1 4.4002704760753035 4.5060622017625365 -0.0036065213619256 -4.0655932490752500 0.1207522301194364 0.9516179359474194
30 1 5.7989343358350816 6.9942434523919337 0.0403799821234732 0.4339565691843111 -2.2911797312329574 0.6660128259692174
8 1 7.8751450615607572 0.8197314785612261 19.9858953343164671 0.4648257200947388 -1.5821917574024451 -1.5701695020320330
25 1 0.1399315393900920 7.0105323051743884 20.2001288398063252 -0.5704692601295798 0.5224378270010883 0.2942336593828109
26 1 1.5305164085570457 6.9995174101253603 20.1976061902450077 0.9615900005037000 -1.9217843255669058 -0.5956140224822084
24 1 7.9155464574859753 5.7681491458239638 20.0338889823492963 1.1678851865269988 -1.5501215272871176 -0.5136717848756844
28 1 3.6654047654129651 8.1783986992222975 0.1457515371159267 0.7014153825531967 0.9223412174017087 -0.8341801543668701
27 1 2.2482484706613879 8.2318667990100174 0.2047211414987811 -0.2291683333554041 -1.8471122595675129 0.7521527627487586
36 1 3.6133945411200847 10.6652037620194680 -0.0178103032568796 1.1225903591719977 -1.0022798534749933 0.0650297343444752
35 1 2.2137924003044516 10.7199807827632370 0.0649225933622097 -0.9146630482769111 -1.3457552557068830 -0.5306183856809978
37 1 4.3751968365164009 9.4447491818752400 0.0090070420180201 0.2780569392605698 -0.5140327968738206 0.2858718522666520
39 1 6.5104898760190988 10.6784290235498105 0.0095284000838012 -1.6703271617610158 -0.0103079242334768 -1.4327720607587211
31 1 6.4931697166851396 8.2170808181423567 0.0198023814536985 0.1089148941639925 1.0990690825401059 0.9089260056796266
38 1 5.7961471168539900 9.4696062474535001 0.0296020809863750 -1.4699213983885835 -1.0623728205225251 1.0117980804804283
1 1 0.0915737500823172 14.3961413008962715 -0.0494455742037525 -1.7395918762959077 1.2012399562995042 -0.4443046047895222
2 1 1.5170694334261148 14.4280522111898364 -0.1306457269550702 -1.9042705295799518 -0.8733507241400317 1.2484309853199482
42 1 1.5277259521592987 11.9624951328811875 -0.0395274450982350 -0.5957347988195589 -1.4791744448644648 -0.1954789032389939
43 1 2.2196457860743868 13.1853566859842708 -0.1188426700173210 -0.3886308123127190 0.6103819161693418 0.4406801776315639
44 1 3.6305456577622790 13.1324318032506859 -0.1209277103053348 0.2536126594602878 1.1444067277530618 1.1184783034014987
47 1 6.5025472398574129 13.1488693251061033 -0.1119661318476894 1.1357373587565949 0.7903557511777092 0.1219745777827127
46 1 5.7822308751536937 11.8975010426756906 -0.0852955138489197 -0.6053471987949853 0.9677823066284722 -0.5559562436536283
5 1 4.3943600703187355 14.3504010079934208 -0.1477410347285067 -3.0428421118822349 2.1192604167634892 -0.7699711091979994
45 1 4.3222204644942872 11.8917096879875483 -0.0290207193485078 1.2691053826869305 1.7798839774414199 -0.8687866648646296
6 1 5.7862943587578766 14.3722153350053521 -0.1159748118634332 -0.3426254252418416 0.2770516556280595 -0.7797444434041072
34 1 1.5351725167091059 9.4243376224307287 20.1624824119655983 -1.0892446714758661 2.9852412137189424 -0.0389388145339886
33 1 0.1159799474724553 9.4523529071948733 20.1047558896569996 -0.4308156159167583 -0.2167508982864085 0.2286590756337886
40 1 7.9351731619245731 10.6833727395314657 20.0475756243851535 -2.3092013326552707 2.2713322631955526 0.2694538032692925
32 1 7.9095810101169448 8.2364290804349132 20.0265159955652692 -0.6633791521818151 -0.8472703161440320 0.5248529787811358
41 1 0.0755692426433656 11.9451300754994030 20.0467020664260467 -0.6511799558746258 -1.4224278924539004 1.6021047568523601
48 1 7.9355853686953939 13.1684008246177235 20.0027432394357376 0.4363976970027459 -0.1610760218851769 -0.8131032493012548
52 1 12.1644799548877121 0.8343239237903227 0.1583376214113216 1.5956101497637896 -0.6953309830513148 -0.7862884862454387
51 1 10.7635515005925075 0.8467076083148585 0.0838557971131387 -1.1680219492907546 0.0187702449538267 0.1979800219877432
61 1 12.9069797627766256 2.0637884659902634 0.1341091783052248 0.5083679308218562 -0.9394601041319094 -0.7301646087011928
62 1 14.3522040626697862 2.0674001915863989 0.0921416479683708 -2.7804333081439387 0.9724556712674998 0.3914854204594523
56 1 16.4404176911109268 0.8231319968880069 -0.0548056291258677 0.6748709149759672 -0.4288852579276280 0.9134939428746029
55 1 15.0086622045758311 0.8659130363237226 0.0730394929698143 1.1663350162325083 -2.1773877749916934 -1.4736646841834991
63 1 15.0319009747484191 3.2921430097945752 0.1908686493462316 1.2051812817461378 1.9092229197064725 0.1024903915946852
64 1 16.4976869574472396 3.3121844921591261 0.0646817594354903 -1.4184144236486107 -0.3635939906417431 0.2945922592813922
72 1 16.4830338024487268 5.7622023575441590 0.1160888422014114 0.7212858501079498 0.5415208532144048 1.6517304858755808
58 1 9.9868739894064760 2.0418875301547481 20.0799799762450206 1.3715275750188141 0.3787808304153042 0.5697693419429888
57 1 8.5865812166918243 2.0300027601552171 20.0247269140055977 -1.0592153280719039 -0.6028243608418431 0.7002107520798322
60 1 12.1458354040196514 3.2834858310359767 20.1806921544983311 -0.1116576823457717 0.4752027246707471 -1.1546027457518906
59 1 10.7028769531960144 3.2901256970806325 20.0338951690062963 2.3378913597216311 -1.0032187127534746 2.2777514528297171
65 1 8.6367725119391920 4.4865618310402589 20.0662712297672385 -2.0406126716733359 1.4247262718672253 -1.2146629810213765
73 1 8.6307806111603149 7.0053098523866471 20.0935831728745526 -0.1332433212041969 -0.6471439071873463 -0.2355896733283274
74 1 10.0668892227140496 6.9794550158972388 20.0861292950371855 -1.0427275332380834 0.5920676647171713 0.9489263505301245
68 1 12.1940604736855001 5.7383683307685285 20.1231873522444289 0.2535735724883077 -1.1999627141417948 0.3783456820567405
67 1 10.7404833394981196 5.7517888722927184 20.1314870836543918 2.8567392475279227 -1.7253679927069530 -1.3485445735743666
66 1 10.0488293593344142 4.5133562808205170 20.0952627771135255 -1.4958443438155216 0.4026892066874325 -0.6863703917251756
71 1 15.0351114249078268 5.7135345815483669 20.1560670379448652 0.8137023436531726 2.2175044490940792 -0.2244522315507856
70 1 14.2791919541954346 4.5217552968449590 20.2343234241314818 2.4059063898941933 -1.9129523458215287 -0.8372012515305229
77 1 12.8945387992176457 6.9620404845810704 20.0246840388938772 0.4745399550751516 1.4245725780075791 0.1039827475871926
78 1 14.3426443147289344 6.9718424886452057 20.0258509356258827 -0.3081821376342211 0.8117444944055521 -0.0962868290614016
69 1 12.8898448619894754 4.4910179012611282 20.2371396983854339 -1.8527116006329738 1.7068833979226801 -0.7692974699038255
90 1 10.0915387475291976 11.9170653439201395 -0.0031229180792637 -3.1123071400447948 -2.4905525693087625 1.1161883220741200
89 1 8.6565916372926992 11.9105437351163310 -0.0493970057335845 0.6784721212295408 0.6574405983317047 0.9338564542016908
96 1 16.4520939224951661 13.1678484485184555 0.0763415419018587 0.2067066434990339 -0.1467068217895261 -0.6572092480411100
75 1 10.7424450326855450 8.1897857832230887 20.0354604601674957 0.9604361446737921 2.5155401610569723 0.0335302232139803
76 1 12.1771444416268260 8.2043584073486997 19.9857068558549997 0.3498096348889652 -0.2114802483167743 1.4885685233493184
82 1 10.0539970289485669 9.4675157554137375 20.0394991031147249 -1.0445466882732546 -2.1704521247509820 -0.5880389914928921
84 1 12.2185946763330247 10.6556348458915515 20.1135963025660729 -0.6402581268191454 1.3918201877851533 -0.5764287948609932
83 1 10.8119817280821806 10.6701971321315305 20.0474664364297013 -0.2028491089451820 1.6043386168950939 -0.1125759130279820
81 1 8.5977746829624806 9.4858419576528483 20.0501520046556259 1.4806764059978903 -0.4832208144241292 -0.9986432195336662
85 1 12.9013728929766032 9.4291772616160170 19.9793222322815573 -0.1145594292499345 -1.2078192037414430 0.0143851445731403
88 1 16.4744192014550919 10.6641857513839025 20.1516803926755905 1.3407276410245328 2.3425482543351990 -0.1317005196252278
86 1 14.3166438453714164 9.4748654735168518 20.0130795113256603 0.9577939840837479 -3.9755484233754208 1.4850632129102241
79 1 15.0576932154591727 8.2295197667820634 20.0399718137295011 0.6049974462438632 -1.5764753592108238 -1.0597000415991380
80 1 16.4960586463020036 8.2433946923180343 20.1184115508721320 -0.9893155875642262 -0.1656642798759508 -0.7911426220052717
87 1 15.0684768174749220 10.6345633080713604 20.0902478497820631 -1.4174380992856896 2.7126376677844348 -0.1201489181637909
92 1 12.1719975420031936 13.0984736294368176 20.0363205616658391 0.0356449666911963 0.8280312904631418 -1.0407106273188660
91 1 10.7378690996954944 13.1166464531815397 19.9706624362865242 0.9563086404383192 0.9724142713367314 -0.2106461285362856
49 1 8.6524471997199104 14.4000718650030191 20.0439479174035071 -0.0327462110369416 -0.4851127374326493 -0.2949839765622326
50 1 10.0624812744482757 14.3879679405006069 19.9139513975362910 -0.3967724018283688 -0.3075775615138528 0.2513879324429029
54 1 14.3009287370506328 14.3934413863405535 20.0980942684018729 -0.2527857928596168 -0.5881648941903491 -1.5821966931321556
93 1 12.9197245138127048 11.8749294964687611 20.0047334522930278 -0.5886726308162690 0.5541786928141172 0.0926065230021791
53 1 12.8795381980068431 14.3802374058849445 20.1030115146810324 0.5525985115329085 -0.1878463300511836 1.2749791207290317
94 1 14.3587207196645252 11.9166322540894409 20.0615378065060526 -1.4684751977794499 -0.1388332649247064 0.5149677800272463
95 1 15.0126555766535734 13.1631381629134268 20.0068972019402658 0.9608950866214592 1.0360667690611627 2.2322508303198023
