ITEM: TIMESTEP
1960
ITEM: NUMBER OF ATOMS
96
ITEM: BOX BOUNDS pp pp pp
0.0000000000000000e+00 1.7084949165859321e+01
0.0000000000000000e+00 1.4796000000000010e+01
0.0000000000000000e+00 1.9999999999999982e+01
ITEM: ATOMS id type x y z fx fy fz
10 1 1.7185488167106198 2.3512153797105695 19.0028465220383040 1.5306430033931806 0.6668216547992353 0.6097598979636515
4 1 3.8743871956247600 1.1718318123073725 19.2588963119883232 -0.2829587934411761 -0.0134550269700681 -1.0216870031558034
3 1 2.4661694066428237 1.1141207734975338 19.1002015027196279 -1.4335103323244414 -0.1247197389419100 1.5733888664102107
2 1 1.7586946326431436 -0.1513557005511247 19.2825222338923119 -0.1118165942363401 0.8384675627952869 -0.6535104104246153
5 1 4.5754984586108023 -0.1051354921768025 19.2399437273966925 -0.7759018553453563 2.8172504272453804 0.3026791963735673
13 1 4.6264394512721658 2.4123919938025988 19.1122451105281428 -2.0092275681867897 -2.0366649327345265 -1.2958843143562233
14 1 6.0089789114291170 2.4104604997002612 19.0216337936139332 0.4632286175969834 -0.9005150923743359 -0.0568639108433472
8 1 8.1263796722693247 1.0903125202783406 18.9634336331025004 -1.5522050697896190 3.1289216616181852 0.6935613838669777
7 1 6.6752620965375407 1.1834652049228935 19.0442402473671670 2.0389757390181322 -1.4855239002683298 -0.6809057880007916
6 1 5.9871271609384680 -0.0837389632902233 19.0551325284845632 -1.4490290802998267 3.2815647193686823 2.1433723402236691
57 1 8.7877785468279779 2.3456345604488025 18.9375700953240198 3.4290767083764764 -0.1179660592416371 -0.2683580762757674
49 1 8.8473138058686267 -0.1161050926162462 19.1049104242713241 1.2990843251665101 -0.5264235780343320 0.4946195268905898
20 1 3.8650761727769942 6.0949166844198270 19.0519024356222708 -0.2082638058567372 0.0349996665877938 1.8785548333822626
19 1 2.4311116112498694 6.0631488949052885 19.0921048127655801 1.7632782516801415 -0.9989528206338367 -1.6589401089505387
18 1 1.7633333376524709 4.8018247450277274 19.0141032900325158 -0.7023358271794471 1.5907056942961291 0.3083892315618664
12 1 3.8980270314369090 3.6132343100696143 18.9880246843952598 0.3024328792389489 1.5590716248004022 1.2235945822573941
11 1 2.4631632750862118 3.6103735386410003 18.9683411495797074 0.2917283096810664 -2.8911034966735323 0.4156144050018131
21 1 4.5714015450711569 4.8742919455384675 19.0074368257520945 -0.4361835516214133 -0.6268731255350648 1.4239306170739050
16 1 8.1353141856168385 3.5988327520517513 18.9944222324378842 -1.7914548482676498 -0.8201023057099268 0.0968449009586566
24 1 8.1776060574744527 6.0756599401811799 19.0847606846123057 0.2530518350199642 -0.9859981895319688 0.6075918704333075
15 1 6.6974642165536826 3.6295533773562982 19.0985533666882681 0.5448397167681803 0.8702611180470826 -0.8598798178463374
23 1 6.7310168896848550 6.0498577370254116 19.0611983393245268 -1.4434913927222486 1.0154011760890771 0.6869951809360709
22 1 5.9822222274063499 4.8564683005881113 19.0973208175338485 0.7060660396279652 0.9271787375247545 -0.8600740262386699
65 1 8.8938770970025445 4.8284667307067242 19.0423641587313597 -0.9037205537943144 0.8070549346434728 -1.1933785208263004
26 1 1.7190250321507605 7.2780089552013818 19.2026092988460491 -0.3517475911216512 -0.2626644928679203 -0.7917266254013823
34 1 1.7629619400888348 9.7486818070054415 19.2680184487417385 -1.4069044503619688 0.4605980375274410 1.5518373817805418
28 1 3.8685950624659693 8.5095966114690320 19.0984523428462296 -1.6454264518313970 2.7697701692312249 0.0284127222486652
27 1 2.4349607791046588 8.4992524412934554 19.2422346285127794 1.7551090101451741 1.8072935235440859 -1.8911185958644743
37 1 4.5914352437676538 9.7536859813580339 19.0412214486818563 -0.9817124704396035 0.0498193602378978 -0.2528075544708134
29 1 4.5838304369017164 7.3206126441651689 19.2009895494637561 -1.5032166564236018 -1.9946817430112878 -0.7074280723333294
38 1 6.0361684186166196 9.7570656318092439 18.9505420385687486 -1.1409597676760481 -0.0241861137161278 1.9235384547713292
32 1 8.1673462501315601 8.5033954251815214 19.1402054098916494 -0.8046497017765265 -0.1025508784574424 0.2976072040874064
31 1 6.7409151934956686 8.4770524020011866 19.0518682825149277 0.3593033491273884 3.4068759748262472 0.9342840472571222
30 1 5.9744246818060853 7.3397209496351339 19.0778534699721973 0.9848918377413174 -2.3546065969323440 0.1622934474635650
81 1 8.8765269839786605 9.7417758653824720 19.1908629311268690 -1.1343300903642108 0.9748104780244136 0.4361792587870634
73 1 8.8819034034999387 7.2934524743561164 19.1281518596089803 1.0051080753779023 -0.8824405459847371 1.4330286115236035
44 1 3.8875296709974432 13.4683041565545114 19.2664499385007737 -1.9246761252808244 1.6363445634429117 -0.5594141050958553
43 1 2.4631299576857879 13.4400587057836631 19.2517812953822194 0.4934698609140932 0.2440362072101066 1.8793618062185975
36 1 3.8943170861254197 11.0052752414208328 19.1569738414628681 0.6041721205321353 0.1967266677175989 -0.7561595941315022
35 1 2.4556849666403457 10.9820884983080997 19.3742468833729085 1.1552740635700425 0.6427487742571494 -2.2426460094654188
42 1 1.7669932707340343 12.2100446241533032 19.3513855344772168 -1.2118532381559186 -0.2319114762929817 -0.8214342203219875
45 1 4.5924730437740369 12.2693478721072413 19.1224896259758665 0.3159372217693519 -2.6878371189221903 1.5930753656075205
40 1 8.1466766458913487 10.9719655443378770 19.0793751586439946 -0.2903938163598043 0.9243331185917427 0.5053775515918284
39 1 6.7446794370254306 10.9928671210675972 19.0239289708469208 -1.0956791149874365 0.8925850281412083 0.5548089313441933
48 1 8.1352298738857360 13.4794009796570613 19.1844561855630502 -1.3517131004681153 -0.6331901867736653 -1.0336085562067279
47 1 6.6696910188269012 13.5267011280873746 19.1987011776655834 2.7033583905309899 -2.7203826519305245 -2.2889085585196050
46 1 5.9914927647742449 12.2745980447245646 19.1077597651532294 0.2395335076265539 -1.9936335441586102 -0.4474651546394200
89 1 8.8313874337132905 12.2279468304246528 19.1536581823843264 -1.0542745683110906 -0.1677718834324662 1.6834937844129274
50 1 10.2811719194764279 -0.0882516064647859 19.1562291085716190 -0.2922965215423440 -1.2019473515451975 -0.3500841230232844
58 1 10.2723979390770452 2.3379407760282760 18.9126595506453938 -1.3438909052354755 2.2423810607910797 -1.1099232289894516
52 1 12.3838193262712402 1.0790047283454614 19.0681323615032241 -0.0408731626598268 2.4801074535462693 -0.8872747050125438
51 1 10.9677372782292419 1.1378119888579108 19.0453940064599543 1.3547903617475541 0.3428584972229241 -1.1998785534056902
53 1 13.0787588873713094 -0.1359567715270574 19.1393916905645760 1.4163378805981939 0.8308241160777866 0.8795747278342664
61 1 13.1161010160047784 2.3330513731064202 19.0738117400476384 0.9922818694212072 -1.6999542860341070 0.8662595292247265
62 1 14.5263108688831615 2.2900462760002345 19.1490963366694338 0.4816400952749333 2.1472657137408335 -0.4243101615299094
56 1 16.6697031062223324 1.1040002203035910 19.0940314628913619 0.5681305835289038 -0.5411504541377917 -0.4150238794831583
55 1 15.2407129918667756 1.0800320931440155 19.0776240140877178 -0.6156398007368630 -1.0979694859887401 0.3326084388990512
54 1 14.5122528597710332 -0.1671851261070293 19.1517423732634953 2.0412666811745992 0.5107366457018515 0.1053831886714136
1 1 17.4339410087568005 -0.1291668927170395 19.2233671544608846 -2.5628529836712404 -0.4397447143667082 0.0290917605594868
9 1 17.3982157108568920 2.3315263946702935 19.0063275813484722 0.4837093439787431 -0.2471737477425884 1.1288316240089864
68 1 12.4587986397107446 6.0085989982994832 19.2477833150835096 0.5736931709500783 -0.3189280249276323 2.0117996669846772
67 1 11.0381251836199752 6.0215723246825039 19.2755827579717263 -1.2846476664530262 -0.6868920982195057 0.2282004527227858
66 1 10.2903915168286755 4.8015792919728906 19.1047819452924266 1.5137176475559846 1.5116650207735931 0.5019270360440461
60 1 12.4293847685428442 3.5626336878978226 19.0453674113846461 1.2210663827258996 1.0148376316316401 0.6947736610177269
59 1 11.0090724729800797 3.5915033883103811 18.8984183061664339 -1.8321665487899443 -1.9502918870953618 -0.1680785478362843
69 1 13.1742133884189787 4.7971261244783712 19.2565258155021688 1.0984696274170265 -1.5650117819666467 -2.1474408450345388
63 1 15.3003129481837821 3.5320034795686430 19.0644516098522239 -2.2216065892702987 0.4394102214634771 0.7278328832880913
64 1 16.7221057810767988 3.6053664487807908 19.1215058607200667 -1.3967956631966250 -1.4584396504798973 0.2495294324393091
70 1 14.6038416293106170 4.7796769775578305 19.2023038550936178 -1.1749088430901748 0.2351924797142081 -1.1308956629615907
71 1 15.2986592960779646 6.0113274423702849 19.2743691092493563 -2.8153720244974343 -0.0868293468281669 -1.1634787766169286
72 1 16.6475917752889728 6.0282165979336684 19.2221442482084548 5.3903977321773127 0.6440771236247000 0.2897354681931172
17 1 17.4362300705804181 4.8176938570561996 19.1538856745637958 -1.9091505502515389 -0.1543084229082763 -1.7095719443961670
74 1 10.3020912836983261 7.2467695939794847 19.2851496982971113 -1.2164741298427764 -0.2467087500973586 0.6162880316502998
75 1 10.9585978474493810 8.5085262797970138 19.4274201194463352 0.4124457730133171 0.5504649757528668 -0.0392058272106359
76 1 12.3798993279715521 8.5221371681576876 19.3764050880693617 2.9269840730253729 -0.4832884887631992 -0.0743974028675276
82 1 10.2792575087223756 9.7515668310124237 19.2920566049214095 -1.4232650094454578 -1.0386804837722106 1.0230267372138848
77 1 13.1611563543762440 7.2445529994658564 19.4289662968470154 -0.3159516247820957 0.9613532396230758 -2.1443154146506291
85 1 13.1310776466390458 9.7849594617936155 19.4509260165529554 -1.3998981455208732 -2.0084306737995794 0.5377654176509965
86 1 14.5602971810768373 9.7287903323800080 19.4834748102067685 0.5605570032564949 1.2936323124566802 0.6130519483355916
79 1 15.2848920534062565 8.5205149583171576 19.4929501327459285 -1.2078158482453192 -1.0474345322064811 -0.4635428843530736
80 1 16.6858397095826056 8.4617662467561914 19.4155761785827110 -0.2877566791229738 1.1323836586352498 -0.3167629252905267
78 1 14.5591355180877553 7.2571363261300501 19.3921149891572817 0.7929922133347340 -0.4657102064512960 0.7154204765921747
25 1 17.3922601784305542 7.2729232118094753 19.2954510539829585 -1.6715778792102594 -0.1965496325557416 0.8701737350085106
33 1 17.4291426867288912 9.7056623912796578 19.2898501131157225 -2.1641231171025090 0.2887787500011749 1.7700885833226780
92 1 12.3951884178321645 13.4554790676682252 19.1943704447537442 -2.1171774195746345 -0.9170133219080967 0.2510094807738787
91 1 10.9856379385671712 13.4691085448313821 19.1514132946338904 -0.1344784213504573 -0.8458469800733844 1.7124719343496029
90 1 10.2380727159878546 12.1876234599100162 19.3323362271726289 2.7979423695202792 2.1299701346832269 -1.4174835412115105
84 1 12.4082368836318064 10.9662158467918154 19.3993077994894243 0.3050017984784407 3.2541465372585603 -1.6376874247657360
83 1 10.9795458248181159 10.9612454492060731 19.3662566938239813 -1.2821013619177692 1.3095003587122072 0.3314259807524185
93 1 13.0977479422840712 12.2437748177815138 19.2897275115012690 1.2932746785242513 -1.5217669449129740 0.0948249745115748
95 1 15.2692797530774342 13.3949964655174618 19.3054975081992488 -0.3094343947523470 2.3114003905937706 0.2387396214451038
94 1 14.5640148848180804 12.1949034732408386 19.4349648578960412 -1.1875243780124527 -0.4929721412493681 -2.0408055712359214
87 1 15.2634726128745406 10.9406098855057046 19.3306719169235599 0.5928054917039541 1.9182108240187750 1.0357418923750952
96 1 16.7024119664143385 13.4346390801211104 19.2683501883872061 -1.3250518447741446 -1.0525825576627412 1.0829240437184522
88 1 16.6955235187572768 10.9472171184726292 19.3302058372366723 1.2029388187782588 -1.7979393632997129 -0.1292954637788230
41 1 17.3878913915233504 12.1842515480923179 19.3480831588711553 2.6685184483464557 1.2436363768732623 0.6096848158695747
