ITEM: TIMESTEP
2920
ITEM: NUMBER OF ATOMS
96
ITEM: BOX BOUNDS pp pp pp
0.0000000000000000e+00 1.7084949165859321e+01
0.0000000000000000e+00 1.4796000000000010e+01
0.0000000000000000e+00 1.9999999999999982e+01
ITEM: ATOMS id type x y z fx fy fz
10 1 1.4284576337609547 2.3157777933221522 19.0472303083218755 -0.3340321531343324 -1.8685940305616158 0.0608443702234171
4 1 3.5335868073544794 1.0207175487294247 18.9212213193393524 0.6210723005145391 0.7604676151690423 0.0802764477465021
3 1 2.1064192990549100 0.9877761412206385 19.0170500170375760 0.5319255096572979 2.7119638877410126 -0.5364230286725069
2 1 1.4247714015655502 -0.2204872011299467 18.9967919333410578 0.3923685315149441 0.8912155867153088 -0.4835587355884304
5 1 4.3161433449746474 -0.2175074535286850 18.9929583032718448 0.2402744480358634 0.9234258620287956 -0.7033458932635126
13 1 4.3207040748262635 2.2409500282295038 18.9894481681990008 0.4860042956016973 1.5365465390070108 1.4141464470035723
14 1 5.7662249655145628 2.2437468437652903 18.9270622664845725 -1.1418386727173337 0.0282288753050688 -0.5926243724907169
8 1 7.9294408670825707 0.9930366852671301 18.9620165353260539 -2.3036367493801317 0.6029799631066921 -0.1877100606729417
7 1 6.4610215251361218 1.0120304683286694 18.9086653767211317 0.5232665093287241 -0.1178584325041426 0.4718393629544643
6 1 5.7549640032687153 -0.2275959168770048 18.9321643206927597 0.0355563982989817 -0.1410304010561257 1.2042483541730109
57 1 8.6035940589146751 2.2470226440531769 18.9027536083267336 0.2682011871441489 -0.2630409603229243 1.0198855823523256
49 1 8.6098752676580972 -0.2530395759347128 18.9618643144971060 -0.4954628918964527 1.6396477226517174 1.0857833505165824
20 1 3.6137404650916802 6.0428785428039555 19.1174176590657225 -2.3787182522699180 -2.8903597437682294 -0.1635663338822766
19 1 2.1701984698417185 5.9999362797662092 19.2339875700069349 0.6439542620392956 0.7968269763343980 -0.4326600746291936
18 1 1.4660160094971353 4.7612158835717953 19.1780132112552906 -1.0728707165119986 -1.0601198781169932 -0.2003785472744635
12 1 3.6374623957249339 3.5359170689574628 19.1673511976381796 -2.0218549132831432 -1.8538989820526770 -1.8787096755714892
11 1 2.1753483116615557 3.5230684701208799 19.1865072806262802 -0.3962046279394075 0.2112154010199811 -0.8951069990599008
21 1 4.3198159737631912 4.7774289039464257 19.0443900748961958 0.4602739315089726 0.2162388531017852 2.4722769060751171
16 1 7.8679049695166281 3.5139414040002346 18.9455772763611847 1.5551553631536339 0.0579218757747564 0.0507826176145644
24 1 7.8927410039137254 5.9670663446266525 19.1208290104265863 0.8456325427464165 -1.3889535502478585 -1.3870846243366399
15 1 6.4522241565686649 3.5586302012009461 19.0199375305606360 -1.3991488868592596 -2.3165812416333749 -1.2737442420553806
23 1 6.4462993681665059 5.9876111745786806 19.0913589484455635 0.3471335431505189 -1.5722025969323870 1.5583604223408603
22 1 5.7413512424475011 4.7632834513057656 19.1101866254529327 -0.6712528267522913 1.3810838073920273 -1.5985849353532524
65 1 8.6193866004846669 4.7132636836096493 18.9941632566636578 -0.2718224864237415 0.9847898096922687 -0.4967990991378149
26 1 1.4213710058721276 7.2084531701529979 19.3145307622318256 0.2961877067897438 -0.0854947407924286 0.2191953229965607
34 1 1.4392020462807811 9.6534182181902786 19.2047382762780998 0.4797543349125782 1.3903763753601275 0.0853491283867306
28 1 3.5732918724765961 8.4293719274699583 19.2902101015108869 0.2264637548714023 -1.1630088256005333 0.0765878819974182
27 1 2.1411285427050069 8.4218215366908069 19.3009244567175386 1.1462502494615701 -0.2161433871100209 -1.6407654885133516
37 1 4.2791164956335077 9.6310078927441047 19.1362337874811956 -0.9302601925219066 2.0893478316900023 0.8127699558810415
29 1 4.3179657208188447 7.2221348041532885 19.2132360523237935 0.0890771562808816 -0.5940756678492000 0.7534460897223412
38 1 5.6898244974046861 9.6586796354303370 19.2083198756235554 -0.0947374670170705 -1.1036576304353005 -0.2404562649347083
32 1 7.8574901373826318 8.4393660216247302 19.1393990969815917 -2.2959708598688700 -2.2547972828490446 0.6643251000657346
31 1 6.4253888449135221 8.4294718085662304 19.2930416382243770 1.9139294802212543 -0.7607995263554854 -0.4148505135418670
30 1 5.7307933268839681 7.2000980888186152 19.2163254993936050 0.6167843076467918 1.1819519166447208 -1.2544012661425286
81 1 8.5346183585809019 9.6411218238015568 19.1914537518602764 1.2623407525144703 0.4929638217139551 -1.2636553369917307
73 1 8.5939235135729213 7.2096797498024312 19.0427739114918353 -0.6298342530527598 0.0383103104029755 1.4911818861411745
44 1 3.5916610596232039 13.3230299552477565 19.0371110127286229 -1.0114857371367192 0.8408739571115391 -0.0840883149914731
43 1 2.1250713705874738 13.3380728936781434 19.0148404252560503 2.1453097156763441 -0.5619325544943520 0.6211591205662912
36 1 3.5481046665946678 10.8808342765178327 19.1292705994998187 1.4643647294165631 -1.4580592254624469 -0.7622546594176479
35 1 2.1498694624409862 10.8921535714333633 19.2391529868642657 -0.7699558349942158 -0.4209689987794730 -1.6442986190378308
42 1 1.4383484700465166 12.1189437603008869 19.1152498579093262 -0.4270108507174319 -0.8866960645503164 0.6970444878270683
45 1 4.3129028085925940 12.0953347946423779 18.9964363884890339 -0.7407481312129589 -0.8530209600728679 1.5370375892126487
40 1 7.8253561122595441 10.8207543659479963 19.0350050065316267 -1.2893986491228471 1.9463139190861343 0.4235903701741168
39 1 6.3770135260129219 10.8489616216414042 19.1087156222076260 0.8600830279414550 1.8259443660064678 0.6096863592229955
48 1 7.8735065242208924 13.3417877162854381 18.9721081094492945 -1.9393430057271805 0.8103574563418583 -0.1650082515094130
47 1 6.4495375644257047 13.3196142377690876 18.9450224893225432 0.4553142997819293 1.3580452496011990 -0.6369950335226190
46 1 5.7037535755653170 12.1129092443691135 19.0380952851116092 0.6193859614006723 -0.2824717515177919 -0.3144887381613312
89 1 8.4890715683815081 12.1000708341065017 19.1030804337920976 1.3721008335546674 -0.1892196551484372 -2.0418562508689342
50 1 10.0199817221606278 -0.2285149903038130 18.9641406563559265 0.3179010419826377 1.2059725231892275 -0.9892654141357625
58 1 10.0092925587359556 2.2709613473010481 18.9564366713463741 1.2196513995542992 1.6695120294842378 0.2084094804141230
52 1 12.1681779376988679 1.0165208585644667 19.0782501452206610 -1.6627659554164933 0.2734252645176846 -0.1504030340399184
51 1 10.7066709415040631 1.0470705023334246 19.0090768393807998 2.0110660488527481 -0.9587209696384986 -0.3610021832707369
53 1 12.8076372666912039 -0.2465396741477131 19.0685617000691465 1.4467797465062457 0.0305759100724323 1.1163358797123530
61 1 12.8277584543402341 2.2601381984268292 19.2278891183536267 1.7738996326882339 -0.0390838273206328 -0.0696068371006280
62 1 14.2801889640737691 2.3014406787646977 19.1371369724616862 -0.3621415277406061 -3.1890305127354659 0.3792731910538020
56 1 16.4104553717332848 1.0431084008750195 19.0685004333227290 0.5152843313230994 -1.8890525123087696 -0.5124321888843013
55 1 15.0002100816371922 0.9925745314736482 19.0624223643650446 -1.1018053487462336 3.2019187023309468 1.1649242703197649
54 1 14.2148144512568031 -0.1920067431920167 19.0723657905097106 2.7291415864974424 -2.3035169462258107 0.7038374359587349
1 1 17.1039604839165307 -0.1891990156456058 19.0654660090528729 0.4541644845668932 -1.1620842289165505 0.2038900257122338
9 1 17.0992833639869382 2.2550845996249578 19.0116078474789134 0.9285736664240279 4.2078837610018738 -0.2726144837629857
68 1 12.1572203363856524 5.9595829453366500 19.1009662601494945 0.3992875673007072 0.9300286695028592 -0.2313954479306368
67 1 10.7413699110033019 5.9785698246727259 19.0233534292120154 0.7141042600310317 0.1072747582000411 0.3504438296535521
66 1 10.0396559105770589 4.7250325060746512 18.9874356745726764 0.8182147534516782 -0.1745095643818926 -0.8288496177368012
60 1 12.1543311866479833 3.5039778199221709 19.2033497249462712 -1.0991539279464129 1.0220078901408420 -0.1479056653079300
59 1 10.7594254514417802 3.5182347842547790 19.0501429140923584 -0.7953762150505048 0.3661794490094747 -0.0905296562412215
69 1 12.8889186793174275 4.7508068648102242 19.1701052863134223 0.5384060553061155 -1.1114144868768834 -0.7182348805483947
63 1 14.9710475067609945 3.4849860312083245 19.2117528162510602 -0.1767687643321670 1.1314940855197237 -1.1855783313567292
64 1 16.3868656082907300 3.5461904150950034 19.0994216098613805 1.1760133163234765 -2.4760269140055140 0.2876921864124241
70 1 14.2867244326365608 4.7641615108438939 19.2117564112201187 1.7411255518189805 0.0282697547923020 -0.9739646768389424
71 1 15.0115838402494397 6.0063627927746372 19.2179632561662466 -0.5640341978756536 -1.7739823676878075 0.2869671148452258
72 1 16.4116564472965258 6.0197307858359839 19.2804554067079970 1.0634519003690437 -1.9781168286050508 -1.3717287247593930
17 1 17.1123929189380988 4.7754970097662932 19.1589486531231614 0.2849970499357001 0.5998475819269847 -0.3843825171357792
74 1 10.0105639139026970 7.2311081032083910 19.0859652811929728 -0.9733111156171846 -2.7886442863561842 0.6622326845229973
75 1 10.6856722522263379 8.4261728827380811 19.1355574515315716 -0.4429502371091116 2.4126731411967919 -1.0503840875794124
76 1 12.1085031936471239 8.4524090602718918 19.1684951478135517 0.7341681531900109 -3.0308513224516709 -1.3649094742919470
82 1 9.9831838688369743 9.6642484313779971 19.1303464631945204 -0.2576319678780707 1.7715413766740213 -0.7261688225374678
77 1 12.8177726101618141 7.2129672260251034 19.1275907343589893 2.0027145895857332 -1.1602218159464737 -1.0184464171034924
85 1 12.8130907926741084 9.6017055062390728 19.2305485390290904 1.9786692965524528 5.3595113895868813 -0.0412160644606971
86 1 14.2857196321295543 9.7261569635720910 19.2457077702481421 -1.5499318696373381 -4.7893340996727618 -1.6493849895532149
79 1 15.0098128308114092 8.4238799923670822 19.1586846871763754 -4.0345453484565530 2.2786113431829267 1.3576628537939315
80 1 16.3904156729762462 8.4928420251816554 19.2836312258582900 0.3571399103794549 -3.1457726033184157 0.0710963068367452
78 1 14.2346283133407034 7.1927247640432794 19.1776306326587580 1.7582760217826059 3.0237898475223655 -0.3301399787099732
25 1 17.0919687017958957 7.2439493917234499 19.3000421562440074 1.3398782629994288 -0.5568607127086003 -0.7306788930197744
33 1 17.0917453499691696 9.7158618854806313 19.1914193183387880 2.3276367389585486 -1.8754674923228569 0.2463436557936111
92 1 12.1124654412779389 13.3216608385685937 19.1949888998239260 -0.3749458693613812 0.7797236007145861 0.0390630130376177
91 1 10.7057703050517468 13.3466429591951652 19.0598993709605722 -0.6865929252444622 0.3075466238981905 0.5202950593462643
90 1 9.9147716693836490 12.1808472600978508 18.9936556126404135 -0.1062361337540598 -1.6120933493662561 1.8610741022418251
84 1 12.0763034966252150 10.8783084831075882 19.1616556143232160 -0.5386286003311361 -1.2770507335795389 -0.9194739236199452
83 1 10.6394490574560603 10.9426023928216196 19.0866180048151044 0.6622595006642574 -0.9222154417740209 0.8273697671900904
93 1 12.8200742878475022 12.0998688297938841 19.2033338146760748 -0.7912189368307819 -0.5361251832814629 1.2199036654744086
95 1 14.9596513480659343 13.3786606162693928 19.1316504756863708 -0.2503757245718461 -1.1388525707667694 -0.3635755915328620
94 1 14.2226507544739160 12.1480147475382037 19.2272495221923485 2.8806330133358795 0.3832982221386062 -0.0686808113643308
87 1 14.9708790326112631 10.9147872324365824 19.1920783990372890 0.3742405484162926 0.0196634244652694 1.1023422015712852
96 1 16.3960888012258614 13.3829473243499475 19.0629732904606399 -1.5365266362653345 -1.8609996742597374 -0.1273492518390782
88 1 16.3867433943006304 10.8883842426283639 19.1657749049046160 -1.2129364461066279 2.3286132124291616 0.6665425539807591
41 1 17.0967680086605540 12.1392999988304755 19.0687322700699831 0.9660722524986192 0.1926045150306600 -0.6784728824145664
