ITEM: TIMESTEP
5220
ITEM: NUMBER OF ATOMS
96
ITEM: BOX BOUNDS pp pp pp
0.0000000000000000e+00 1.7084949165859321e+01
0.0000000000000000e+00 1.4796000000000010e+01
0.0000000000000000e+00 1.9999999999999982e+01
ITEM: ATOMS id type x y z fx fy fz
10 1 1.5069445993988089 1.8673883246794867 19.7171027077100369 -0.4198812121270989 -1.4379739881605569 0.5534573589394345
4 1 3.6540533189654139 0.6539737663464527 19.5914591723917191 -0.2861351694753750 0.5064210974970658 -0.5836794568114450
3 1 2.2280277076302668 0.6611754563759443 19.6158971923004550 -1.1400230776109224 -0.1012140390337138 0.1334336907629648
13 1 4.3548732174383842 1.8612934369727760 19.5869196069425406 2.0557099013077731 1.0047850242983110 -0.0135928071668867
12 1 3.6555267839183427 3.0584427941569801 19.6576978647892346 1.3751026419889880 1.7756968556152752 1.2593130731759463
11 1 2.2499387811048122 3.0537080238356178 19.7059737168722613 -1.8241799118854010 0.4092026955756149 0.4065772611364554
14 1 5.8212111169228633 1.8699812646614566 19.6008367746412162 -1.9654500893068447 -0.5708145655954657 -1.1634109656031997
8 1 7.9733721255249348 0.6465363097511631 19.5876830877919836 -3.1024819764614557 0.4785710320470829 1.6343325095643546
7 1 6.5171095535213812 0.6613100052984692 19.6212331424400013 1.4134308898183878 -1.0618537505972612 0.4069918945977637
57 1 8.6754502993485616 1.8741511188002047 19.6256244360692449 0.5158411347593763 0.9617034309735932 0.7623615081412547
15 1 6.5537511042374881 3.0781490529636866 19.5907682709003588 0.2968926894279130 0.8530117521789171 0.2607903865645586
16 1 7.9833632745348790 3.1141142899768197 19.5333699819643201 -1.3626950223283982 -0.3418938383737452 -0.9065674569006461
20 1 3.6876996429225146 5.5574903258443351 19.8361523461415850 0.8645650057078922 -1.5951667971737920 -0.5376001355844625
19 1 2.2593015026220500 5.5323379328171267 19.8100595700121751 -0.4669429029727023 1.5444475426957736 1.6640180137073259
18 1 1.5285637524071878 4.2880553132037083 19.8112231581054559 1.6361580483504161 0.3512827395079620 0.1911539154609304
21 1 4.4298156768427868 4.3082232080544447 19.8181421583472961 -0.8941556022321178 0.3267381150622871 -1.6848082423481083
26 1 1.5672166250600379 6.8135081627369480 19.8929374880002889 -0.7100849438214593 -2.1279816297556247 -0.7530096732520999
29 1 4.3579390123996600 6.7806433143608071 19.7620805197665881 -0.8545832763754810 1.0397399418869551 0.3669194203740789
65 1 8.6577527551283140 4.3706677050759311 19.5273121627668722 -0.0576467094579246 -1.7687998260541038 1.2562205124089614
22 1 5.8398753279735836 4.3034809445260427 19.7533468234855967 -1.3176060294362120 -0.2246214837996857 0.2949407439740525
23 1 6.4819552418039015 5.5389619956100953 19.6298021806041447 0.8986727933049830 2.0660529380907962 1.0525470468782401
24 1 7.9081223109048224 5.5710708593442035 19.5861063122391847 0.4579514795276038 0.5244505762295406 -0.9223070000046137
30 1 5.7803176834317265 6.7798370163548869 19.6722241649048897 -1.0505167832472677 -1.0037506367733953 0.2731795560521490
73 1 8.6277145791951053 6.8347244219511412 19.6422909007345972 0.2440755793469017 -1.0101741051197282 1.1098116996646930
34 1 1.4981705398287430 9.2981249498561152 19.7864376902851724 1.6499364647876313 0.0074478284255457 -1.4089551358847552
28 1 3.6329040543069282 8.0394319758162176 19.7252393602960829 -0.5845516027811904 -1.2775287050624231 0.5451265962588505
27 1 2.2156257956808054 8.0508499255587704 19.7391865610523958 1.1908629523142320 1.1650798190695537 0.3864689818680368
37 1 4.3276671227619650 9.2665809127099639 19.6733755505500874 -1.0136643786789734 1.4597941754200217 1.0848563334918024
36 1 3.5852054967122315 10.5325992338391128 19.6587206365453042 2.7926285357024758 0.6124897006307399 0.0483461863463431
35 1 2.1824953572242314 10.5566158134151422 19.7509483973551347 0.2814528097232519 -1.6646313353894522 -1.1954364943261229
38 1 5.7655761585196430 9.2525706770122689 19.7197921031347754 -0.6991037621009566 2.2684380103953705 -1.8848894890512962
32 1 7.9039486460672697 8.0354560242873774 19.6910655772717185 0.3403407141200782 0.3826290872323532 -1.1187238715788577
31 1 6.4563829985780421 8.0229761064126439 19.6621527947453210 1.3023346909866509 0.7939604821029518 1.0576136833834628
81 1 8.6725678419505616 9.3024999091410692 19.5359820704459963 -1.5624892949754994 -0.9006046036920832 1.7889525976267144
40 1 8.0073549094069936 10.5230140092438305 19.6479205956839991 -4.7389565769691364 0.1323359527253027 -0.6374617037720410
39 1 6.5265969194701690 10.4923280368722356 19.6076392391849232 0.4469655628814114 -0.6682744694600732 0.9918674253907821
44 1 3.6766496390856092 13.0264055281337114 19.6071565255285130 0.0732784712600262 -1.0595896447171484 0.7386479323040323
43 1 2.2397755211570209 13.0187512437739539 19.6482864798712917 -1.1269840224125489 -0.8986288277992702 0.5171492688364223
42 1 1.4735068246461398 11.7970324811875678 19.6606988017186097 0.9506051385231482 0.0825842412677809 0.1174025406651971
45 1 4.3248748079393282 11.7540760077231550 19.6616986835159260 0.0600164037425190 -1.0014399958087705 -0.5231196166768282
2 1 1.5046791331568539 14.2243702941504324 19.6176722723896368 0.1480862153586489 0.9118613146309510 -0.8983231905482049
5 1 4.4265452784730233 14.2587454088938550 19.6919837973364835 -3.2274062019791359 -1.1650198462652286 -1.4984106921304836
89 1 8.6776514646544616 11.7722261255484408 19.5612866472705633 -2.6148742916981447 -0.2853224171785013 1.0003600742046781
46 1 5.7688200861898933 11.7273595462665163 19.6076197431922630 -0.0180238890641367 -0.6544895590483181 0.1283664937440146
47 1 6.4893314686305370 12.9843036743701639 19.6377358203880021 0.2939196161410844 -0.7628623407425963 0.4211417215086027
48 1 7.9329922481549655 13.0004020580787234 19.5913181401717509 0.4844935645787990 0.1487142569323776 -1.2238921828764264
6 1 5.8041704083307559 14.2347261798172759 19.6000602218742763 -0.1113308275937397 0.7735492161206889 0.8009103904127255
49 1 8.6294781615607388 14.2115129725891904 19.5932516317091299 1.3803944891983109 0.0192613497770328 -1.0987077200191744
58 1 10.0707962999742495 1.8645824322413094 19.6749300479019702 0.8765322730692288 -0.9976042436225045 -0.9459308044059233
52 1 12.1409767133950215 0.6615837755579059 19.8040663983211545 2.5839986984773153 -2.0505803994751202 -0.2188518819079520
51 1 10.7619956064196742 0.6148464494124172 19.7333040549285705 -1.4170972502431816 0.0609833904174699 -1.0466074128088740
61 1 12.8647304748280664 1.9004352382169574 19.7962175275562480 1.0080147821945564 -2.7359853596268691 0.0252042828634862
60 1 12.2251736262213999 3.1010086360161950 19.6323697421419929 -2.3662732506779864 3.5373836669166101 1.0270982469950387
59 1 10.7469726663336953 3.1127890674561036 19.6829856495376490 1.4031794131176059 -0.1548880845570615 0.1213847471797298
62 1 14.3105726372343884 1.8968072915473000 19.8034971416111709 0.2112989668053334 -0.2231725604938032 0.6073643480296905
56 1 16.4463831002668641 0.6749326219268575 19.6863910726437652 -1.1146755659745438 0.2165805788983104 1.2270814714709819
55 1 15.0278042487529397 0.6874170819006875 19.7455738604355737 -1.2342191249168428 0.7198397376560361 1.8443072531102953
9 1 17.1301905779839743 1.8937375288185891 19.7869858299220454 2.6476051686704452 1.0198688676456078 -0.7545625403726708
63 1 15.0295836073538087 3.1260774951335737 19.8270006056115342 -1.1537104202230861 -0.1495347871510205 0.8066533689720634
64 1 16.4412219194993909 3.1228455403307676 19.8791199731958521 1.1121720688117243 0.2300960158539779 -0.6571846827326896
68 1 12.2305020287522659 5.5768788175963193 19.5609424410821795 -0.2670189011683932 -0.6121914221009670 0.9599321929437958
67 1 10.8228577291097388 5.5681410724773794 19.6611955087623471 -1.5048049287344858 1.8081581453640005 -1.3881797016712931
66 1 10.1100640534689123 4.3503138630756952 19.5363851831775790 -2.7327353538083585 0.2059855862085009 0.2096919773019250
69 1 12.9609045259843008 4.3610861986752667 19.6378220610795111 -1.3467884689374598 -1.8946493253839096 0.0311328704193977
74 1 10.1067142025386101 6.8065071534982051 19.6105764409246000 -2.2555494532195430 -0.4955160699390434 -0.6707758435257097
77 1 12.9351647098900564 6.8103853172949362 19.5535828051972587 -1.0512944822884605 2.1571365831138092 -0.6476097558265905
17 1 17.2056044780681674 4.3610443344357126 19.8130244870520897 -0.1522294465066452 -2.7328980524255426 -0.7720460172461433
72 1 16.5057722849158743 5.5999485978576544 19.7459397708184881 -1.4962025589741912 0.1199887813739122 -0.7400815626890557
71 1 15.0563098717163353 5.6008759632669811 19.6405968715902226 2.1509154574499973 -0.5123987354959023 0.0446686101683414
70 1 14.3607423475474647 4.3662648853709127 19.7075294186659882 -0.1730438716017763 -0.9752071318200668 1.1534534750571432
78 1 14.3476356548166297 6.8118171547395621 19.6056182073733858 -0.1749262868049971 1.0215129569556640 -0.9564113088393891
25 1 17.2352663928670680 6.7926749676357883 19.8153896496836630 -0.9772681446050255 1.8736944605070411 0.6709003734885411
75 1 10.7966658949287098 8.0502297308103241 19.5234978245431350 1.6177813711986335 -0.5940753841138804 1.3692291145415612
76 1 12.2478172886719907 8.0726086236870991 19.4946012231071073 -1.1435681884499320 -0.4553371688332412 -0.3294628608894246
82 1 10.0674231439934569 9.2877439180450203 19.5762292090293535 1.8927787489732046 -0.7408901884174883 -1.5577121664288192
85 1 12.9504295407168559 9.3012293523914309 19.5236504906591151 -2.3508179543742163 -1.4966988616120551 1.2050633483936295
84 1 12.1986745989657575 10.5145667342191889 19.5655606129965314 1.7056412587374330 1.9770609087710800 -1.0373776910874015
83 1 10.7570966943083626 10.5284672695093864 19.5409366404990301 1.4099187703929819 -2.1181440055863936 1.3916653750239687
88 1 16.4493045563928213 10.5111684375990588 19.5062750180976501 4.0376219697530145 -1.1532521528885959 1.7960912901879789
86 1 14.3464059392037342 9.2731802572612931 19.5306696574003418 1.4653818928449556 1.3163784370080904 0.6896326714075096
79 1 15.0464087751912281 8.0596788490681721 19.6701175184653749 0.8226291430717156 0.2187312433413693 0.2246750662209926
80 1 16.4868037546115360 8.0353826932202601 19.7467527859185665 -0.6768136913449241 -0.7258910359299627 0.1860503577409451
87 1 15.0959884144883247 10.5180254982812489 19.4168257600647109 -3.2274547686252806 1.3059589300477443 0.9700375112620517
33 1 17.1849356836070051 9.2658324823894311 19.7191567065848155 -0.7771024242459563 0.3713362821042997 0.1827967864469017
92 1 12.1944921849315957 12.9657306543490698 19.7078594797884783 0.4111596166404474 -0.1436216413757240 1.1472356084402735
91 1 10.7663834856870881 12.9856355041457956 19.6413137705589840 0.2513393553438491 -1.2025504584369289 -0.6945333528217563
90 1 10.0526401130586951 11.7359276750518848 19.5291558178812323 1.6392724529363827 1.0237071127868360 1.1895659955173463
93 1 12.9196194851634178 11.7666246390142089 19.5887507080772565 1.6353986594191097 -0.1505149249917034 0.8681067296441182
50 1 10.0708979477458342 14.1795743924253976 19.6097742120860126 0.3078086841431982 1.9120130474256509 0.1459171113859762
53 1 12.8688378816084956 14.1976658613714459 19.8175514665120645 1.8161136443625525 1.7559318239467303 -0.7207899752459248
41 1 17.1469939874073773 11.7606907982939166 19.5366407060197211 1.3043456956268291 0.0773346595018692 -0.5608330514580275
96 1 16.4354174856640363 13.0203724865784629 19.5433328489420717 0.5500732816273446 -0.8764250744319653 0.5186107344953670
95 1 15.0306461736211556 13.0342865089380879 19.6696308709492449 0.8450673425467587 2.0939138243380779 0.5992112399111656
94 1 14.3825253774456616 11.8141475553486490 19.5407030412678679 -2.5830106514791180 -3.0882141223298882 0.6239922879388726
54 1 14.2834407198986035 14.2793054157792163 19.7956456380661301 -0.4109399842497505 -2.6205584202003842 -1.0687565307270135
1 1 17.1594441501890245 14.2334714110984066 19.6827256516471074 -0.5032780995794019 1.0770604334747871 -1.7053217665382854
