ITEM: TIMESTEP
3040
ITEM: NUMBER OF ATOMS
96
ITEM: BOX BOUNDS pp pp pp
0.0000000000000000e+00 1.7084949165859321e+01
0.0000000000000000e+00 1.4796000000000010e+01
0.0000000000000000e+00 1.9999999999999982e+01
ITEM: ATOMS id type x y z fx fy fz
10 1 1.4349331524284639 2.3337248220829978 19.1996213348081248 0.7443089376722318 -1.5738924578413107 -1.4856955827633338
4 1 3.4932103110965942 1.0241939053121174 19.0763029959364658 2.3979105811330363 1.1287389838197044 -0.8263562491858645
3 1 2.1148729084074769 1.0285288288234409 19.1333109340281879 -0.0288354537358885 0.5397306427186059 -0.3329602209458494
2 1 1.4072618545957047 -0.1716956800706886 19.0212508772331717 -1.1302247323429184 1.3373413129173115 0.2343926008063396
5 1 4.2665584558605474 -0.2009641403031370 18.9852889394240911 0.1986727541561102 -1.0855337447734734 1.6908837924209319
13 1 4.2123591966577782 2.2652546424781650 19.1192597451345847 2.4874858775493589 -0.9818583149209601 -0.0514327399971695
14 1 5.6874474411364293 2.2174813341611554 19.1376895439387731 -2.2046835901055557 0.5805480259745692 -1.1725160955372855
8 1 7.8308577669636588 0.9803580595212511 19.0587573293775989 1.5953862241320318 2.3663653538384990 0.2219181230912371
7 1 6.4225580340178112 1.0005458215636516 18.9727111838951039 -2.0316304708320034 -1.2289961030668963 1.9492578625777188
6 1 5.7033371087359059 -0.2302999371040716 19.0090086404999958 0.1854774992485447 0.1449747792145344 -1.2602294783490380
57 1 8.5030400857289212 2.2748427557926632 19.1614337490493583 -1.1216577533267067 -1.6099882475026863 -0.1581925923363054
49 1 8.5658708217971338 -0.2097932102025129 18.9956945248213458 0.5174071195777608 -1.1304268347170983 0.1261522665115319
20 1 3.5661238692025607 6.0000638867468270 19.4032409261045373 -2.7987888073175062 -2.1874516196222920 1.1241753455196479
19 1 2.0966524720198474 6.0200460941606737 19.3948692781266701 2.6577921013053505 -1.4710696827433911 0.0523994932150571
18 1 1.4270039422615917 4.7923784626002162 19.3046478223627105 -1.7140210016459967 -1.1700816570025423 1.1998186079774400
12 1 3.5690924384055851 3.5212128944137793 19.2076811705606296 -0.2355205792787947 -0.7703771738987348 1.1938037233652499
11 1 2.1422793287219348 3.5720603440788463 19.2489554744795797 1.0102134085102348 -1.2066053011287137 -1.2341036495384299
21 1 4.2813018921563657 4.7217496915803654 19.4102289804719561 -1.8622038951702344 1.8963639029401573 -1.9318548142158276
16 1 7.7918877147922707 3.4916669755408094 19.2499683894344926 1.2571703839468340 -1.6717948225078301 0.6472048796770933
24 1 7.7519719069648483 5.9405124787693593 19.1394051464659043 2.7043323812713069 1.9922716673027907 0.7146480065576547
15 1 6.3833609807507932 3.4594108289393537 19.2891217953844070 0.0327103211905562 0.4836668703599345 -0.8072673887868989
23 1 6.3749633090335296 5.9416343226062240 19.2351564855214967 -0.8945201878778737 1.5266591409123582 1.2451440981228574
22 1 5.6897564931977813 4.6847210998663344 19.3678415479246588 -1.1706392473155831 0.1690315490600579 0.4000426146002141
65 1 8.4992650692967544 4.7125687813741344 19.1928078303346261 -1.0618013728524496 1.0903713772658394 0.9467500015719250
26 1 1.3360150972255675 7.2119912677644917 19.3761647488766187 0.2887046054920626 1.7373927995298204 -0.7522917262712339
34 1 1.3284466838012912 9.7015523006305884 19.2875798853888121 2.0272918737282901 -2.2708322174714004 -1.0016015769291797
28 1 3.5360539762239638 8.4283943294240959 19.4114697453111198 -2.5772130788072443 0.1278222469263008 -2.4926796393612740
27 1 2.0725534528549110 8.4217991065007229 19.3033238696169640 0.1319456943488926 1.3154804899999188 1.2221530222019630
37 1 4.2264599081262375 9.6753640322209442 19.2400225803637852 0.4843352140384699 -0.9198380155503946 -0.1512287003452369
29 1 4.2501581111378588 7.2025630944555017 19.3293461905539132 -0.4682514188319998 0.5856662566563938 -0.4585743453924759
38 1 5.6790535830916422 9.6588215609200692 19.1417865314048079 -0.7152806477605116 0.0806599262306549 -0.1318513825703386
32 1 7.7869266087927134 8.4396702703641022 19.0455545836861440 0.9832718319581492 0.4209808499937368 0.5837548033618208
31 1 6.3636723152054131 8.4358478674682527 19.1964528021730061 1.1174493768633003 -0.8789777543906503 -0.3121733343555760
30 1 5.6621500233475555 7.2161150128721339 19.2177991294836410 -0.6806956244449178 -0.7879056365650523 0.3873216645260850
81 1 8.4922975059520454 9.6835256541248018 18.9515379971769704 0.6927825674966622 -1.8076898440552556 0.8676419625575438
73 1 8.4939634501424006 7.2085923610805960 19.0453927051906149 0.4456681914330595 -1.2946385839498598 -0.1362520104437907
44 1 3.5089662884793826 13.3866567111457169 19.0194667658972278 1.9813632062191013 -1.2187836685390414 -0.8849834518800530
43 1 2.0858443379450899 13.4003861957002588 18.9918199033555410 1.0789825388790815 -1.6279307161316023 -0.3713207102631906
36 1 3.5010632088365350 10.9187964452652562 19.1499762280782946 1.4955837965400014 -2.3395002582389739 1.6690005552570020
35 1 2.0926039976194586 10.8891218702386521 19.2141859346064443 -0.5911144757579030 3.3229082768053511 -1.1611780883081650
42 1 1.3575058494312022 12.1971141641972789 19.0329915409274584 0.9760123331679553 -2.2328304565776342 1.0381943094892656
45 1 4.2209649049339735 12.1372157259892326 19.1611593531562576 0.5268399638384559 0.5325113846408667 -1.5138911490387608
40 1 7.7556490559170195 10.9007580569802727 19.0435175037707261 3.3649922331356787 0.4004559676408717 0.0398927134540389
39 1 6.3774164884841316 10.8721980039416053 19.0472348960275397 -1.5984480390608700 0.3061782254401673 -0.5830657535749050
48 1 7.8217178418456212 13.3795876833430860 19.0043460139120626 -0.0453804322875859 0.3000066133626197 -1.4049292769901864
47 1 6.4336275498497244 13.3422340723855211 18.9509668786030048 -1.3222511710856506 1.6619858999099200 0.4932573415510447
46 1 5.6930716721201895 12.1524291877369723 19.1086129942248455 -2.2974059124437134 -0.6511633135511328 -0.6547303346763118
89 1 8.4891904101258788 12.1464885632344348 19.0259816736724829 0.5012413935039244 0.4892393721248452 -0.7925968718824314
50 1 10.0015432195010714 -0.1885377805780991 18.9609792950750666 -1.4948513536448447 -0.5899301971721691 1.5893044902092783
58 1 9.9132479636510826 2.2963548909215024 19.0352715755741855 1.8119857943738316 1.4217388816737906 1.0964181187750492
52 1 12.0945257964853408 1.0515144345068279 18.9194790969049578 0.3815028045249882 0.3095264280688774 -1.2027548332176723
51 1 10.6413841276831480 1.0830849928678976 18.9773942048150275 2.4301301904830526 0.1668209816296492 -1.6910916848286952
53 1 12.7967644192527175 -0.1854500690824036 18.8650327510710589 0.2256987351082441 0.0573801029522640 0.9613442039014157
61 1 12.8127041721563124 2.3229146640203164 19.0006227351914738 0.6114725998059178 -0.7612388337611011 1.2493240735351510
62 1 14.2631069093705563 2.2953523929610298 19.0431049080462671 -2.4758788381792942 0.4853003941880029 -0.1945086749330481
56 1 16.4043221250103173 1.0433548863551843 19.0331394372664846 -2.0173413706481074 2.6184252042684184 1.1282808273100056
55 1 14.9485042925015268 1.0826662034959975 18.9561990596658347 0.1274606521793166 -1.7984991222721227 -0.6298180421732977
54 1 14.2165237351164091 -0.1829097882571873 18.9307060834481931 1.0413709251324577 0.5879347827331796 -1.1931930047312631
1 1 17.0668205042934460 -0.1445634878446929 19.0636137081949961 1.1745145340786176 -1.2374105819924610 0.9343085337310184
9 1 17.0891772969476428 2.3058359819190115 19.1039221466275357 -0.4754277556781122 0.4145182677894446 0.0235605693688309
68 1 12.0128373216056694 5.9879421880703800 19.2585263977963059 1.4306831048125068 1.1964121121902713 1.4715461645720211
67 1 10.6049840756492237 5.9819938451702113 19.2865117439441924 -0.8077880487353090 -0.6085906646768972 -1.1565931786610613
66 1 9.9119710813932098 4.7665744564369668 19.1142299392480943 -0.0692965337743985 -0.1482176973947223 -0.1970923051022749
60 1 12.0500757914341303 3.5555283979443213 19.0856882446450200 0.5383561220372937 -2.2506287911582916 -0.1504104381412724
59 1 10.6347012996368377 3.5434092694069101 19.0449758010243357 0.9549536231657632 0.0883475030377592 0.4119372859929431
69 1 12.7903197819554943 4.7848483395417496 19.1699236661773327 -0.9032404575291459 -1.3041313825565677 1.4124867739725051
63 1 14.9503102299458810 3.5429818050626087 19.2270523209660240 0.1333341668232274 -1.5334655014273402 -0.8920691903169569
64 1 16.3765005705660762 3.5261204145078811 19.2388670410504012 0.5991187245286544 0.2845726654271017 0.0038015815427230
70 1 14.1939596947664164 4.7559224935254019 19.2309547565125598 1.2239015845637309 -0.8724925528219386 1.0794288116107795
71 1 14.9277910014839641 5.9532597993421268 19.2864077961006046 -3.4111707834189242 1.3076134741443948 0.3861718501057774
72 1 16.3021064458788665 5.9412880936641859 19.3209338321581860 2.5486385613059288 1.5915013657884300 -0.3555010047287513
17 1 17.0924701142640174 4.7425570152433858 19.2868233510922487 0.4243980544071234 0.1766606329393277 -1.0025952122636728
74 1 9.9054444399519763 7.2112454553936036 19.1157976397222740 0.7849581235687286 -0.4008905660982580 1.6644529124351712
75 1 10.6116769052906150 8.4406390532134647 19.0933976394148530 1.0148465045478221 -0.9361270978982117 -0.3931152454835835
76 1 12.0367341490624824 8.4349626084457281 19.1983761322098125 -0.2893062897297113 2.1487058277785160 1.0432495760867591
82 1 9.9087155437381149 9.6729154115792948 19.1175478043012710 0.8485140893808364 2.2063322745759275 -1.3145221420385531
77 1 12.7288060784590993 7.2275064412269439 19.3097194644082464 -0.2728193031901007 -1.6208061304428114 -0.6791949198773725
85 1 12.7484166084072541 9.6657668692273848 19.2127285394185670 -0.4656641764447587 -0.2094054676689584 0.7461253073644363
86 1 14.1864324212337074 9.7365281183139309 19.2365016467937870 -1.3522338210531175 -1.3365555858418052 1.2915493412742922
79 1 14.8882528098343538 8.4645945385243486 19.3011153742025101 -1.6641155403467331 0.2148859391047592 0.5378109189137146
80 1 16.2787975971478289 8.4650421275229704 19.2959311408145560 3.1989159299618479 0.1534177623539363 0.3162090049286290
78 1 14.1728244423900165 7.2013698901758216 19.3093121428554326 0.7720690025101340 0.7559922060974428 0.9463420516626215
25 1 17.0102899055185439 7.2192544207002571 19.2975141057407562 0.6059953588273765 -0.0133237305554469 1.4215537710446982
33 1 16.9901967651390287 9.7787564929620903 19.2298298862454828 -0.3651961572200311 -2.5555624967657944 1.7665103448048574
92 1 12.0595640150607508 13.3651869850860656 18.9540115755271081 1.1396976713515512 0.0632240600977861 0.0562117807176551
91 1 10.6963051338408981 13.3787335270185839 18.9988003034630246 -3.9581880157352858 0.6805306110474968 -1.6332183567870984
90 1 9.9011848052556157 12.1673599733321343 19.0188987799590130 1.2829410312028366 -1.2507079470228621 -0.1621465733138585
84 1 12.0361223965783442 10.8946164352650676 19.1358892494265760 1.0308737968108923 1.9877644788845492 -0.0806393571439668
83 1 10.6000770534752533 10.9367308437488315 19.1274621921640744 0.0113004880895525 -0.2393205251820104 -1.0669876646547669
93 1 12.7478641965120811 12.1270436821622383 19.0874464854377379 2.3753619499745340 -0.5517028657002354 -1.5152657078088874
95 1 14.9120453754916547 13.3926690043853629 19.0156556626488822 0.7022508627933689 -0.7457813094700660 -0.8605463246675833
94 1 14.1869131851349106 12.1716186478133714 19.0796093710072903 -1.0491436285279698 -1.9740628178902813 -0.5469210621068072
87 1 14.9031092344960214 10.9263434728595303 19.1774948900141844 0.2723630113257479 1.5841878540258734 0.9103471521863490
96 1 16.3179472998596999 13.4365757068236960 19.0613729606320206 0.4506187301016398 -1.7926901756036258 -0.1449184529773103
88 1 16.3225382923117941 10.9921754058931906 19.1986216970821637 -0.3832576251858607 -0.4195746594992029 -0.9548224018757062
41 1 17.0392738969135173 12.1991990096747269 19.0107055553928959 0.2580886190146493 1.1682948681395744 0.0387520909290082
