ITEM: TIMESTEP
6260
ITEM: NUMBER OF ATOMS
96
ITEM: BOX BOUNDS pp pp pp
0.0000000000000000e+00 1.7084949165859321e+01
0.0000000000000000e+00 1.4796000000000010e+01
0.0000000000000000e+00 1.9999999999999982e+01
ITEM: ATOMS id type x y z fx fy fz
10 1 1.4015916120774350 2.1901580903133842 19.8036542672073352 1.4651442460604029 1.8629579676454455 -1.2820891139025310
4 1 3.4979805202293948 0.9724811479531765 19.7166024097680186 2.1579820312994333 -2.6303513537033245 -0.3812789407444029
3 1 2.0936859132964400 0.9607544445383560 19.7977195177240262 0.3375953525651321 -1.0867588008392537 -1.0267083372584946
13 1 4.2028982446335910 2.2021062324208289 19.6847127594814140 1.5407724487787464 1.1861928520504856 0.2400812176088975
12 1 3.5460235371661755 3.4590679717298731 19.6444395879135953 -0.6054890195158049 1.2069557704105722 -0.6735732922489495
11 1 2.1344723856015175 3.4490686941160620 19.6814271551139477 -2.3741288042951165 -1.2473320100044851 0.1953767186475054
14 1 5.6410703689953046 2.1951070268788242 19.7146754674219871 -0.8519642369116031 0.5120206742142542 -0.2771127672562159
8 1 7.8121586915933685 0.9561855766626123 19.5706311510139166 -1.5062443660133182 -0.5965726471462576 -0.5535117506485179
7 1 6.3534343613926314 0.9687615656545974 19.6157186545343265 0.1756303475752776 1.3314229550543648 -0.7819128273534085
57 1 8.5170897892517541 2.1653349826226433 19.6690477999762727 -2.5111632615248056 2.4953266287598437 -0.1579980584043815
15 1 6.3884261474700912 3.4771081583260868 19.6861034700019175 -1.2488163306577833 -1.8596745687662022 0.4568438279186230
16 1 7.7762235446498957 3.4078621885096361 19.6916939365044534 1.3390832154506787 0.6826967698981548 0.7141150161061998
20 1 3.5640194707044941 5.9480077513613905 19.7760560892236228 0.0177779514114036 -2.5242302965441512 0.3370379651509341
19 1 2.1189291423785055 5.9304407120362441 19.8430573531885273 2.3482769342564946 0.2828352127775671 -1.1159818102169941
18 1 1.4424277879065921 4.6975028919869830 19.8257047478809838 -0.6516826091685183 0.5178689291243516 -0.2735474251178920
21 1 4.2543034771762915 4.7117693988010849 19.7072843412553063 1.0423964095376601 0.6181493017202243 0.6282934962829114
26 1 1.4453598491709334 7.2037811365431965 19.9562024634179167 -3.3248164648829173 -3.3990075263832651 -1.4173020954137270
29 1 4.2685990057954877 7.1362432375322253 19.7775080212976633 -0.9849118170225000 2.3108583426680815 1.3736852635344268
65 1 8.4956211782469069 4.6530312519014929 19.7965693588429552 -0.2108530502449599 0.3567126035325161 0.6428723120791558
22 1 5.7196709436676603 4.7455666568551598 19.7391808932202686 -2.4266134290184187 -1.7334850556901376 -0.8614993112816804
23 1 6.4072980026225412 5.9944254242445609 19.7443686488045884 2.0246157406732754 -1.5845629149594249 0.9619739476030175
24 1 7.8523927703787573 5.8773994137545014 19.8433899892879957 -1.0486630319184336 2.1756399639645476 -0.4285402461203054
30 1 5.7124470274700405 7.1898508690970413 19.7871598104498503 -2.2603099856662232 -1.6536858661920317 1.3821749233830651
73 1 8.5302567398683671 7.1170315767333898 19.9225321714046935 -0.9938937055294359 -0.0845467637497329 -1.1212237276697761
34 1 1.3282732021643244 9.6057116117181920 20.0204716372066223 -0.0013264879644943 -0.0819677144094698 -0.7872273578826667
28 1 3.5362690768278604 8.3911134142328798 19.8355815898931596 -0.6423460004641197 -0.1035514026615862 1.3053110162136572
27 1 2.1128461319571894 8.4027432113133909 19.9564877081951053 0.5152576989935826 0.0839760180627003 0.4298402790704563
37 1 4.2487743330525758 9.6304241223454152 19.8887433510944938 -0.4357345287690151 -1.4474568429979366 0.0157646397650650
36 1 3.4888772013607725 10.8658340074809008 19.8397610573609029 0.6718152846426666 -2.1003357585202118 1.4436475410202738
35 1 2.0579231250251011 10.8453367299623213 19.8366617594652332 -0.6683704020067067 -1.0630965668888690 -0.2827635800699080
38 1 5.6705301371328236 9.6129864324230105 19.9194820144431972 -0.9336191839489572 0.3584313832517499 0.8096268343762267
32 1 7.7832344581330171 8.3527418674903728 19.8798784040643319 1.9065562124023498 0.6987659057299183 0.9781005393255899
31 1 6.3634846757931367 8.4110122498735862 19.8817673386790759 1.6298938430853056 -0.5170972464910100 -0.7612100352929303
81 1 8.4874533667944743 9.6117960069460011 19.8867496969755777 0.4438736384836571 -1.1646244396095169 0.6609422629773283
40 1 7.7721802918234939 10.7892367361605146 19.8134035663812504 0.2767064794236086 1.8067744380797548 1.0729820894215742
39 1 6.3700307991587630 10.8443235853487217 19.9154911199694027 -0.9941039902368309 -0.5022343921107583 0.1389863418614439
44 1 3.5029208210518816 13.2603209038575631 19.7240675696931973 2.4674944564345145 1.3791453943973684 0.2168734113064710
43 1 2.0982777637126082 13.3103904766262513 19.7021023737755101 -1.2390450637844659 -1.7672038559806569 -0.7247274101723822
42 1 1.3681081159757933 12.0796511901661194 19.7723320097172248 -0.8747006942378390 -0.5065130582398731 0.1173534792556341
45 1 4.2626957694916809 12.0554828305162562 19.8036280576525137 -1.2584764676314752 1.1605727293534525 -0.1804548295513208
2 1 1.3349613372225781 14.5282582989516698 19.7528597602700877 1.9004312316894301 -1.2508432541425700 -0.4472792126904447
5 1 4.2366094205868441 14.4968235830885952 19.6434220760482425 0.3478607943868021 -0.2642195856951752 -0.8529268037752495
89 1 8.5190792863667486 12.0750780875766424 19.7667671022101743 -0.5053130871585805 -1.6310614977478304 -1.7237009827235548
46 1 5.6900686734781143 12.0910087157640849 19.8653243042529724 -0.0348213360170221 -0.7516373020830772 -1.5141507695366636
47 1 6.4276036202300766 13.3122423524665408 19.7345836244088453 -2.7272200934120532 0.5406631678888566 -0.5177520741553956
48 1 7.8189869208542628 13.2828218395950426 19.6307298030193564 0.2848225783461772 0.8538671134258020 1.3011146357367627
6 1 5.6653491918186489 14.5467432735036493 19.5831047583050939 0.6956570480552128 -1.8894254205192136 0.9626980776924392
49 1 8.5034458938242725 14.5566292450573957 19.5031965802640599 2.3086861733736903 -3.0937129737550251 -0.3271090389107857
58 1 9.9075433001921223 2.2003385123528130 19.5677588163095812 0.7484263138173937 -0.6257091692069434 -0.6810984854083201
52 1 12.0464727850694207 0.9837182066927145 19.6268299239466195 -0.0495389910988203 -0.8697473724712277 0.0009940281605807
51 1 10.6045547799511137 0.9665048448607451 19.5748970020740636 0.9289492136544668 0.4362294869357303 0.9406202950375454
61 1 12.7340272950437967 2.1717453522756571 19.6240415310613017 1.8024958960486872 3.0239705396572352 1.2142111586705260
60 1 11.9899437106789097 3.3998000031984472 19.6215994513827638 3.5984860991352141 1.7993499975523433 0.9087200213461571
59 1 10.5996436428893688 3.4569411039719942 19.6114443534652807 -1.0109422772672199 -0.5739903188095634 -0.7386521033949957
62 1 14.1726588947522867 2.1943972248444994 19.7385712576413113 0.6299452222662171 -2.3120190866754715 -1.5656642479700418
56 1 16.3229173287659144 0.9899052372276981 19.7358833490498462 -0.0072485791012921 -2.2012541651235620 -0.9742380241675324
55 1 14.8852595886129127 0.9549094343470668 19.7438779762418584 1.2338674135884620 0.2116801337343690 -0.2440500246553266
9 1 17.0585692546404992 2.1620672674881982 19.7836864755990440 -0.2427453368173175 3.2520539371235531 1.0311009428883982
63 1 14.9174499250925372 3.3775399668549997 19.7130110626384010 0.4653207457018567 1.7213160845013007 -1.0167338708454750
64 1 16.3953655049488987 3.4239901357053140 19.7564367434922374 -1.4598472626617818 -1.7317981999049097 0.4154873504892684
68 1 12.0424966205161770 5.9399083945037017 19.7482273169097660 1.0263648498050895 -2.3887282750975158 0.8847616769014215
67 1 10.6649626470587133 5.8971944125427047 19.7871452718370477 -1.9082411026818444 1.6458780035561329 2.0556456643066063
66 1 9.9294551913646263 4.6669387176427817 19.7775804540841236 0.3210302828743319 0.6672260072503244 0.4918545767216465
69 1 12.7421833605810395 4.6317190905235721 19.6148852952852408 -0.8117923176092764 0.5566848380998405 0.5645611806423652
74 1 9.9411539438786498 7.1369409476436196 19.9728696880657814 -0.9392363894018394 -0.3912106671149311 -1.6606447799898318
77 1 12.7603133728426386 7.1682177161033982 19.8757649952446407 0.6970021505187435 -1.5955949677339871 -0.0232773120284330
17 1 17.0746763045254610 4.6684011004617796 19.8363708444394682 1.3177284026306728 0.0880676214179025 -0.9629205143991874
72 1 16.3607971597553501 5.8714206216055711 19.7863207724027426 -0.3898076757491697 2.2838976743714037 0.3510980418752745
71 1 14.8981464558747430 5.8404764018061517 19.7545964826223646 -1.0714158754055636 0.7562678182419253 -0.8113081843311566
70 1 14.1967493037689838 4.5755105275526704 19.6266606388394074 -1.1240934654503147 1.2224178545482403 1.8211993020646680
78 1 14.1792365260959734 7.0956216523268223 19.8403608852791749 0.1836559219036505 0.2064829184767466 -0.3217427284499134
25 1 17.0160352092024745 7.1394260100889353 19.9782294954600239 1.0855928765270848 0.7767716065919039 -2.2864159878699906
75 1 10.6135070996915140 8.3662349713463566 19.9320471815324183 -0.6179422794751428 2.6206159891808740 -0.1883803654867871
76 1 12.0458345844913008 8.3881833820035379 19.9287004277951532 -0.4636503425885311 1.7102796326363032 -1.4667807647284725
82 1 9.9101002209507030 9.6490711444497830 19.7908709677148877 1.1104498395961702 -2.6667672595840597 0.6661103479699412
85 1 12.7410136705663408 9.6303876831173323 19.8021854991322499 1.7309226675508955 -1.2133890387685520 0.1130078413690445
84 1 12.0539534648636195 10.8755807017443082 19.7646614629929580 0.2302189051264077 -2.3248677290246142 -1.7152081991760206
83 1 10.6272298297844721 10.8145596427495647 19.6831688847336856 1.4734650294933760 1.5060495856031595 0.2029547166205489
88 1 16.3500425677610686 10.8264972147276701 19.8214645026484568 -0.9481674525238648 0.3585988290048552 0.1933944054041329
86 1 14.1677480461286045 9.5893842354538599 19.8047810352914020 1.0205710978937625 1.5208771221872288 0.9256262723552726
79 1 14.8978130686183441 8.3689294240209158 19.9075569596714459 -0.9351677178516213 -1.1851258849681718 -0.1727222104450024
80 1 16.2777396037529201 8.3598870780067998 19.8816484699306031 0.5579422158392956 -1.6879068203299483 1.7615787504268408
87 1 14.9088563784819890 10.8917778152715901 19.7611096442771377 -0.8218818951026701 -3.1314690891189363 1.5395708354240967
33 1 16.9746769869292748 9.5701316862412842 19.9603749008249345 1.2490524693218910 1.6815896948291098 0.9366668731106811
92 1 12.0483524478750894 13.2799378950825648 19.5016214270358432 1.0449256701123362 0.4140906430547239 -0.0007867349534985
91 1 10.6635518450811411 13.2786539439406521 19.5423950986311041 -0.3478484374340070 0.6800124890752246 0.5494819155238694
90 1 9.9459685624138547 12.0341861207238114 19.6988684356809181 -0.2065076343433175 0.5599849463961901 -1.3048716182674625
93 1 12.8060341774998143 12.0806226007311661 19.6170185370418757 -2.8618299720376692 -1.2533544537305839 -0.1932559056743072
50 1 9.9548937824543735 14.5114680921163632 19.5601639455428078 -0.8375750429478827 -0.1737233543293992 -1.7196475341934789
53 1 12.7688440405116364 14.5396404847717253 19.6134414174090494 -0.6037103911330810 -0.3215662903836077 -1.2513255991985481
41 1 17.0473912599167541 12.0588771843626361 19.8168786165430468 -1.8596541507478657 0.6923257579963011 -1.2195445590168053
96 1 16.3046123459760821 13.3222819008134579 19.5885145068174928 2.1670848299856047 -2.6426449855098548 1.4608227708027739
95 1 14.8993036506657823 13.3234060129716028 19.6235676779906889 0.8257629225442726 1.0606327231539925 0.0160575410744843
94 1 14.2066573602440016 12.1307470809795852 19.7704333267480585 1.0182712205752107 -2.8817205130961727 -0.9481066388619003
54 1 14.1650512152837980 14.5397922479512669 19.7143780918164353 1.9835157875721690 -0.7521483709251922 -2.0432367892566754
1 1 17.0156343672129964 14.5179270767535584 19.6506874919721852 0.3333458034335349 0.8133936236945185 0.7497878638936779
