ITEM: TIMESTEP
3680
ITEM: NUMBER OF ATOMS
96
ITEM: BOX BOUNDS pp pp pp
0.0000000000000000e+00 1.7084949165859321e+01
0.0000000000000000e+00 1.4796000000000010e+01
0.0000000000000000e+00 1.9999999999999982e+01
ITEM: ATOMS id type x y z fx fy fz
10 1 1.3104519795133400 2.2569186756324844 19.1893256393238865 -1.1782089280946333 0.1933565431168819 -0.8903349462557566
4 1 3.4753038760592774 1.0946588780133699 19.2411483790790818 -2.2741177635453709 -2.9793809056697733 -1.4728942013055351
3 1 2.0149181375060468 1.0201760741496226 19.2128964105073159 -0.2579872002033443 1.0973742359888425 -0.5920516998786560
2 1 1.2903192828480232 -0.2077621388557744 19.3297963397629609 1.0312411257153338 -0.7754163253837956 0.8054098705556856
5 1 4.1209980801604349 -0.1839075665849540 19.2786972506287455 2.5495198892377249 1.6164079096631401 -0.3858629810497665
13 1 4.1327981187664973 2.3145930429975672 19.2075070592845698 -1.1335325501149780 1.7433032122826750 1.9369270025141447
14 1 5.5302120182774077 2.3102743781393063 19.2698997080847256 0.4026344554014816 -0.3097013598238854 -1.0442357601801306
8 1 7.6558606505205047 1.0744411234916120 19.2571616154700145 -0.0526679265858078 0.4190926969029932 1.9932423532704280
7 1 6.2345563228163865 1.0447571661780584 19.3304603551167560 -1.0921231210764741 0.1232071585835760 -0.1665502785824534
6 1 5.5360964164147406 -0.2438702323758369 19.3438128002681680 1.0167703891930158 2.6579062197685248 0.0885546260077432
57 1 8.3912263119897972 2.3129138512536955 19.2419916181132358 0.7038182986344927 -2.4488765185381007 -1.5580572794231782
49 1 8.3896753376781330 -0.1562514192265922 19.3832947725177007 -1.6816158999225821 0.2338263227630654 -2.0428132825532663
20 1 3.4574094830750477 5.9674477896254849 19.2355499638320886 -3.4259103708658443 1.8921158889368803 1.4915544562133032
19 1 1.9884703334808638 5.9555945323324488 19.2769548931864811 0.5833301851064854 0.0243866248132870 -0.4018333154219237
18 1 1.2702887296533374 4.7384494253185183 19.1161352055623581 1.0762498570758385 -0.3547695926123612 0.5420024675786103
12 1 3.4079218456718086 3.5232671712096462 19.2911109370633724 1.1187621036881179 1.1994030881306150 -0.3973001118177721
11 1 2.0047666738650065 3.5172043216885385 19.1297086480386582 -0.9255905549357268 0.5352482856846215 0.0863603614797454
21 1 4.1705316628872451 4.7943816327366600 19.3481335282530722 -1.7796431686861311 -2.9764942706609987 0.1838298477672988
16 1 7.7001772209342594 3.5071562343963394 19.0599054989880194 -0.4674074983408060 1.3121109714535364 1.6463775935991525
24 1 7.7234656714867054 5.9113134997809391 19.0427065094191761 -2.1432580939387993 4.2490423453917634 0.5519875969133212
15 1 6.2896555499738165 3.5079794165212004 19.2264350110298849 -1.3023838143549968 1.1102330226805561 0.2320460337786249
23 1 6.2794482886657592 6.0347017790180431 19.1805501090140815 1.3864844523594306 -1.7603307760901425 1.0073861805272704
22 1 5.5795182973258024 4.7587077789487191 19.2881305322241161 -0.5488951460274056 1.9085030754737127 -1.2297475007360474
65 1 8.4294045367294608 4.7627022329075652 18.9971064225201367 -0.7428785278366241 -3.2911509832024906 -0.0260118794995776
26 1 1.2671609931136638 7.2285816115248025 19.2222418193181213 1.9138634436279196 -1.9131943587139504 -0.5118282343394405
34 1 1.2882800194751551 9.6625523873068673 19.1693790522126193 1.5600588034956955 -0.7503170173981586 0.2496675044750029
28 1 3.4317180734887773 8.4249699046271722 19.1120408543571294 0.5776019930321398 -1.0820601122891238 1.6080114318419867
27 1 2.0572571925424570 8.4129566580867419 19.1687222741644447 -4.1491603737339489 0.5516821709538422 1.1702152621366857
37 1 4.1110072086258382 9.6731592763077323 19.0955324579417258 -0.3372160771140749 0.8208803354229608 -0.7152839316912926
29 1 4.1336804393562856 7.2199192012981328 19.1941951859227871 1.6354754005429946 -0.3800704754121581 1.0323573614965558
38 1 5.5497048728584906 9.6610779126045792 19.0725771907860313 -2.1144888298427107 3.3458650976140323 -1.2610535721037444
32 1 7.6672656865831472 8.4311420570716589 19.0548988915358350 2.9856284371300683 -0.9335391815879343 0.5380033776119398
31 1 6.2454842711161813 8.4847084037782228 19.0326121276507791 2.0948164273892687 -3.4718041961672252 0.6241521470285529
30 1 5.5807947877300537 7.2304216061241338 19.1463108137451385 -1.1854239448705739 0.7355982882457812 -1.0736612986864997
81 1 8.3942664504938236 9.6785077310360617 19.1526047113778226 1.5816377421574739 0.2614271069305149 0.5420914452666279
73 1 8.4456604885355144 7.1757802707181222 18.9770600254715944 -0.6826580169281935 1.1990967314858070 1.9073671738168139
44 1 3.4488021121576993 13.3724003857360358 19.2720165726309922 -1.8266035511959209 -1.2316858594319562 -1.1790222809576369
43 1 2.0543587041970301 13.3923288121805495 19.3925598477703645 -3.4138844049727401 -0.5545885157646402 -2.0538664969499907
36 1 3.4086481479610815 10.8861295826303834 18.9317899801627121 0.3921740275159013 0.6391748184846983 2.6052108141266750
35 1 1.9949441862676613 10.9052755894383289 19.1688738727299182 1.1127144545974883 -0.1963777516488024 0.5143749622596830
42 1 1.2901617597339943 12.1475255013906338 19.2806420907563414 2.3955019177148644 0.9049605124186711 0.7741776546119911
45 1 4.1699535669988936 12.1431837432315799 19.1722444945865576 -2.9504335481222306 -0.4212838489942140 -0.4462209737969132
40 1 7.6640882823242427 10.9300428007053920 19.2151526483983979 1.5333197927400044 -0.4281101908579842 1.2045997644115798
39 1 6.2531303754182499 10.9065362804316521 19.1377470552412348 0.2704708878870314 1.3173095109928008 -0.4042585844432259
48 1 7.6540522368617845 13.4166302702110443 19.3486388539297458 3.1273761108119591 -0.3234350532102064 1.8364333097549150
47 1 6.2860968485538553 13.3720511641635156 19.2968522033110332 -2.8099869793256449 0.4222147293163748 0.3098647300529632
46 1 5.5555358439970828 12.1617261709666913 19.1096127509552076 0.4220970925898943 -1.2549024685247674 0.5339721189007731
89 1 8.3678788236388062 12.1529786965851301 19.3979496872068999 1.0384787559376645 0.3414248360002570 -1.5947345949055411
50 1 9.7891033031287620 -0.1647208148236534 19.2901618920382063 0.6893600279102079 -0.6177757808103392 -1.4409537850921468
58 1 9.8193091052897987 2.3351622535788206 19.1713508166034963 0.6228960089990916 -3.5670280171687621 0.9871488662014261
52 1 11.9926558019427976 1.0909109784538074 19.2298184553829508 -0.4369257901704999 -2.1267408861809423 0.6265241721037569
51 1 10.5598571982679488 1.0589485685613669 19.1766981960473011 -1.4249793443794123 1.6176059852330587 2.0100499045616749
53 1 12.6597675984236702 -0.1665841427146601 19.2595615878952415 0.1804621525807668 0.6912245244821268 1.4118135612835137
61 1 12.6861511850647659 2.3211209675926567 19.2478720569774104 -1.4336294198410757 0.2985069367514613 1.0959541366196104
62 1 14.1246332997458595 2.2710774408922800 19.2435141393483775 -2.4996253469767664 0.5361959785036216 0.0503999764336384
56 1 16.2518403452275102 1.0235630371650786 19.3257121033078789 -1.8595703224228082 0.5544401417952565 -0.0574024738447362
55 1 14.8048998290883560 1.0482527500998517 19.2348573236241123 -0.2439679202995997 0.6798959359193739 0.5502091259207705
54 1 14.0841279779175022 -0.1589696082787334 19.3005893486478968 0.1150697171312221 -0.2126272351696140 0.3356790390134120
1 1 16.9203345109236949 -0.2174226384783433 19.3357194042100389 1.1957168053474727 0.5750300630438602 -0.5357357305453654
9 1 16.9677421159159749 2.2373851950460635 19.2684819699499101 2.2226642259818647 -1.2693679623028244 -1.2662854272972439
68 1 12.0098572173808407 6.0024695535825003 19.0191067021184566 -0.1092152756515878 -1.1476464631920353 0.9079641320538581
67 1 10.6061221049759009 5.9775396031142547 18.9403896652281780 -0.3412585229195061 0.3658228220961232 0.0051201375358909
66 1 9.8435203221539034 4.7830543639214627 18.9393981113412018 1.3334651078174409 -1.7081111572586474 -0.1641557927241155
60 1 11.9188254521205899 3.5149332622835239 19.2563121490023192 2.4304586740807768 1.0155739707091462 -0.5317577557052937
59 1 10.5110638822722500 3.5445583343130478 19.1496268664861873 1.8743174165039918 1.3725974744314822 -1.1974156344538134
69 1 12.6985275752951559 4.7506833362634806 19.1457457296198221 -0.9541013224887500 -0.3496097954363918 0.1947260867263478
63 1 14.8599050314098662 3.4540272594548669 19.1979488773014957 -1.8714349204797842 2.7343502401481707 -0.9042292713532732
64 1 16.2596290547064655 3.4128685585434111 19.2036461432921506 -0.9690930292369144 2.1794156638077116 -0.4544416896628118
70 1 14.1256410591611736 4.7428704557374637 19.1448348169532601 -0.2783501482785877 -0.4218657454036454 2.1878443187477594
71 1 14.7804218993228158 5.9601260988081730 19.2832480864639244 2.7293703366417272 0.2233720979335385 0.0970838778103070
72 1 16.2469758750667168 5.9093711430427245 19.2897539742279669 -1.7955696479562897 0.7058031474282886 -0.5869782116748425
17 1 16.9305344147133496 4.7332421548465957 19.1371368897386844 0.9363895169990668 -2.2573469355104558 0.8543599999862613
74 1 9.8784352628582219 7.1878516690103682 18.9937375847454319 0.2353017380824945 0.2168172385068150 0.6559508224679768
75 1 10.5945620262003217 8.4468181462633591 19.0396615792245107 -1.3785003572669221 1.0498547914813874 0.5646343479848877
76 1 12.0186649000548158 8.4440843982372353 19.0519790146596577 -1.3131064350766235 -0.0748929093669866 -0.5081748420317613
82 1 9.8463597475728424 9.6754703129764916 19.1966296038788649 -0.4004018270509842 -1.3142504764658971 0.7073896052913405
77 1 12.7227760404220671 7.2098570607296706 19.0207527289264817 1.9397937946571258 0.1022976096488223 1.3048628356571150
85 1 12.7157336767527269 9.6872453933201381 19.1616657473709786 -1.7423797310911517 0.1917192658029039 -0.6533264192789674
86 1 14.1469075492578504 9.6532866187005499 19.1560229344785284 -0.9516280010199554 3.7399489170668754 0.6294137487912198
79 1 14.8290064444810756 8.4658741217619493 19.1688130736646336 1.6746305542174962 -2.5312259444950325 1.4134472399079148
80 1 16.2459377512478724 8.4386278197129698 19.2283814527369010 -0.5400472019925553 -0.8183843711873960 1.5159167553773529
78 1 14.1563912614218825 7.2603341982728375 19.1592622255144391 -1.3359731711405800 -2.4494710989528095 0.7929898800155546
25 1 16.9376783164751217 7.1559907061032577 19.2833250309672195 0.1188397108400423 3.5140964186050700 -1.2296425054572420
33 1 16.9595503757872024 9.6395752628085312 19.2900806445877180 0.4780138569782025 0.7494070308782884 -2.2523198835573695
92 1 11.9672504679870944 13.3980920477006915 19.2840611908838504 -1.5204756160682562 0.4030047225753959 1.2749972816455855
91 1 10.5100784275159302 13.4052034004947451 19.2945105276850093 -0.1561801150605222 -1.6992677748923999 0.7973924894353548
90 1 9.8303051038731919 12.1113795411018952 19.3859911559042928 -2.4859587708419895 3.9496745949976031 -1.1633045516431906
84 1 11.9564373152919696 10.9300751962618001 19.3036630038892447 0.9488492399063838 -2.2519569574356666 -0.8948003340207649
83 1 10.5525971237813376 10.9275634263329877 19.2622544290806026 -0.7264632612285425 -0.8599072572643238 -0.4716234155582065
93 1 12.6543513747336043 12.1315337072302629 19.3467222794564577 2.5098940181218201 1.3456806175355303 -0.0808643526925051
95 1 14.8150092341179374 13.4041517301101543 19.3374882442876057 -1.5685241737734870 -1.3112981048230128 -0.5811078518542365
94 1 14.0880030186072247 12.1563327701812405 19.3315989128656867 1.2813229673181463 0.4423047628241646 -0.7039763153763277
87 1 14.8577556941655864 10.8953267584699116 19.2647693327177549 -0.2424896937024001 1.3557833739366303 -0.2499744177442506
96 1 16.2349722659728251 13.3356027395281131 19.2414024164862418 0.8433293023078003 1.8486609681647113 1.5118892399046242
88 1 16.2687662073082571 10.8875414803739901 19.1929639640258571 -1.3593392046626815 -0.4717208530554838 0.3834035888039933
41 1 16.9653752597774172 12.1327275882439434 19.2611706602859449 -0.2702220976702125 -1.0999606716428003 -1.3682527886501932
