ITEM: TIMESTEP
5120
ITEM: NUMBER OF ATOMS
96
ITEM: BOX BOUNDS pp pp pp
0.0000000000000000e+00 1.7084949165859321e+01
0.0000000000000000e+00 1.4796000000000010e+01
0.0000000000000000e+00 1.9999999999999982e+01
ITEM: ATOMS id type x y z fx fy fz
10 1 1.4563449944600524 1.8513778323759897 19.7004499848945791 2.0033644203080563 0.4842090668759513 -1.1605562886609426
4 1 3.5994993298180353 0.6257405998058568 19.6683868251712823 0.0000034230139592 -2.2069697311133325 -0.6829070108884454
3 1 2.1781840662496501 0.6123479326742711 19.7163253318491378 -1.7344475495643368 1.6485349146806105 1.7384066394468032
13 1 4.3027675603621347 1.8171243724063586 19.6142474510363201 3.0079491220913779 0.9949470622239522 -0.7357907675714564
12 1 3.6435957378415891 3.0896412036004461 19.6926952293566515 -1.6409700511756973 -2.3254189108139816 -1.3161612060083911
11 1 2.1871810238956511 3.1084379678741181 19.6764512661699698 -0.6358433894652096 -0.3201756705972751 0.1726455671508865
14 1 5.7749594699245934 1.8562741161279661 19.6433430725369469 0.3584475604629798 -0.4136336904534661 -0.1967821926938567
8 1 7.8996122245323690 0.6677332251848225 19.6930868560915115 -0.3314726944628110 -2.9221802996678274 -0.4988676538536558
7 1 6.4788667642138069 0.6213702260839851 19.7478771363702101 -0.1458152780602211 -0.3088216469977604 -0.8252154594677574
57 1 8.6333231315940822 1.9048286227883200 19.6029154687617826 -2.2807604690181469 -0.7233563095599990 1.0728006943300112
15 1 6.5369971916805687 3.1076052332233552 19.5387112089907369 -3.0321114109678717 1.3493319036813429 -0.6698326013177133
16 1 7.9018431367685498 3.1562669914019925 19.5267727592025153 1.0487822001581868 -0.2391778033411422 -0.6971894267170705
20 1 3.5593428810610681 5.5338541984646712 19.5806082214340087 3.5386612147250633 -1.0951164788142655 0.1708941828019261
19 1 2.1497684915347293 5.5183577615264419 19.5878076385769155 0.9029688949703274 0.5342430989460987 0.3388116735197719
18 1 1.4425987955829183 4.3077973158466527 19.6208719533188471 -0.5057895623892177 0.5777039144843505 -0.6056475422411045
21 1 4.3376288628313775 4.2963148557166377 19.6452922412189572 0.8402447239756805 2.6895261732258753 -1.0885012862014771
26 1 1.5160172863674708 6.7635382369962596 19.6735523914829891 -0.1044646972615665 1.4977534914621391 -0.5181374586590684
29 1 4.2891477380445577 6.7851585218392998 19.6239422701028623 0.9123359185305997 -1.9383473291988191 -0.3939465020559627
65 1 8.5783282352524850 4.3820439762241481 19.5353687419558746 2.5593518066332597 0.7451176435696687 0.0517881527004537
22 1 5.8010990166850300 4.3611496028446961 19.5686975770986429 -1.0825633660660448 -1.7745975667067766 -1.1529687637233026
23 1 6.4817459546155698 5.6111297760819365 19.5987659686193147 -1.4091895776829806 -0.5507774812057353 0.4930495314691676
24 1 7.8771562224515810 5.6404515744897328 19.5905107425722775 2.1923048396520963 -0.2113334340286437 -0.5689972877877983
30 1 5.7453221143503583 6.8421886217437793 19.5872178614245307 -0.0206324092720016 -1.9410779729593397 1.5395687762494501
73 1 8.6195826202493429 6.8396553102251536 19.5832549751661311 -0.6740400436778404 0.2626428107828189 -1.6850158572050455
34 1 1.5104279003063985 9.2038487658909744 19.7755957193564527 0.0628096721850238 0.3211756661495246 0.4204147866269302
28 1 3.6270361643935747 7.9913266181709339 19.6061311201759949 0.8640922900150837 3.5492958462090307 0.5018408093671991
27 1 2.2452134190007307 8.0255643148821019 19.6336723985992379 -2.8352363457534153 -3.1674016697300345 -0.6715876524945859
37 1 4.3406748325904427 9.2532758433993720 19.6687871818561391 -0.4426817830608517 -0.7062913982365296 0.7274857243552133
36 1 3.5992473043874065 10.4438006837387949 19.6726406434546810 -0.9752557809062945 1.0109245455294280 0.4090986356268381
35 1 2.1604526489364191 10.4433866716307477 19.7487837749641884 1.4315394831194230 0.1963367185271314 -0.3052797083310067
38 1 5.7752377863242126 9.3000480963186956 19.6908809336714903 -0.1993535275659793 -0.0820403673338344 1.3152052969557697
32 1 7.9063849520439566 8.0353988431704639 19.5697559587954046 -0.0202083428604227 1.5274888279689303 1.2429894993640795
31 1 6.5189936658780478 8.0532742692388002 19.6902954993694301 -1.7089846226627854 0.3591893024348473 -1.4956196307721541
81 1 8.6221812915256653 9.2577981028973131 19.6178407133365269 0.1152560199686807 -0.2398428006352666 -0.1511282348005520
40 1 7.9147758340591130 10.5044860249458267 19.7086587056851812 0.1076399523246606 -0.3061660887803102 -0.1468846592087524
39 1 6.4500627577279026 10.5270843846786128 19.7038502110446956 1.8470603958750207 0.2697253996871364 -1.2824519190357675
44 1 3.6248314420642278 12.9074364307639922 19.7973543862066172 -0.6966274925518379 0.6934868634883400 -0.7758887532978203
43 1 2.1874781481510697 12.9477660563807788 19.7779657866009799 0.1685872544106908 -1.0318884934555976 0.7049513085888830
42 1 1.4443599405094809 11.6918288907327383 19.7710101644825436 0.8875930607800167 1.0103329432653994 0.7456796915186987
45 1 4.3315046394184789 11.7229299521006496 19.7177962300731906 -0.9022405142161304 -1.5838425934217195 -0.9098467374397436
2 1 1.4565168144414666 14.1791965183736348 19.8923131348197160 -0.9069106106210409 0.0842033041045123 -2.3736612406401152
5 1 4.3184765398087812 14.1652248596941508 19.6640608581610969 0.1214656840747603 -0.2391330129483898 -0.3106807566727928
89 1 8.6340274525511678 11.7130232433394124 19.6877583413607375 -1.2642742505204008 0.8556008159537156 -1.7595740599088128
46 1 5.7285373247769584 11.7265033054139813 19.7042278372343560 1.4464453033574849 0.9791654703753895 -0.6984258196981983
47 1 6.4326619264159319 12.9363948838527438 19.6588017406397739 0.1100701612352845 2.2867474985591936 1.1354355506619711
48 1 7.8635272059776087 12.9179831347454268 19.5706484109650134 1.5718848988080367 1.3039209865748305 0.9030279888511672
6 1 5.7156799648737513 14.1838280288674028 19.6834320115306411 1.7568967066067958 0.6759696969519409 -0.5015449092847563
49 1 8.5820314792380188 14.1670785364114327 19.6183916081043748 -0.0529011701504341 1.3108369591105760 0.5006030385700726
58 1 9.9900057373315096 1.9361253995752272 19.6188779921747027 2.9639321124577505 -2.6023501822394803 -1.9150136449212853
52 1 12.1025966298385086 0.7008063860123033 19.5663994557805552 1.2697255878634768 -4.2915273224951491 -0.1477544413353782
51 1 10.7262381671332037 0.6122632740270429 19.5728026008333451 -2.0249674136997249 2.8670757518486178 0.3747734350128915
61 1 12.8044650180727615 1.8950604878329484 19.4945488969055098 0.4687261818799230 0.9248771589323503 -0.5315463766706650
60 1 12.0897019359798943 3.1213672490868496 19.4411568449629648 2.9415689088009098 -0.7589261306577022 0.0181863617662995
59 1 10.7157006044100580 3.1314848119787788 19.4951432441936134 -0.7128495417857261 0.8674758932888522 0.3216915825802751
62 1 14.2451195734412792 1.9265355135163327 19.5373879689792176 -0.6145189496821868 -1.1349893295887017 -0.6588075447041790
56 1 16.3719434674811062 0.6577817249382238 19.7470044389052219 0.5096091897934161 -0.5120095830688587 -0.8279686009824230
55 1 14.9353652958338490 0.6665093678787951 19.6114879266864612 1.3738667354205927 1.1200232107287200 -0.3596620479726623
9 1 17.1252144684624312 1.8882436555694841 19.6434565591678769 0.0104057308481786 1.1340892555187623 -0.9162820636133207
63 1 14.9479341889983193 3.1365739273619342 19.4600316698405713 2.0482842547789080 -0.9728101355821415 0.2958048916072281
64 1 16.4063856166271869 3.1492957429188868 19.5707551528038408 -0.8359431504778173 -1.7872179481760362 -1.7010930952022871
68 1 12.1352521474010331 5.5746108003779211 19.4620304621903237 0.5435078007496899 1.1962908937639949 0.8550318092953209
67 1 10.7229547358292425 5.6227554897427714 19.4736065475497924 -0.3506348698034609 -2.0317786743455324 -0.7838924512344388
66 1 10.0264736251751891 4.3851398600216571 19.5143067809447359 -0.6728344284299450 0.9129654091214580 -0.5038186940586271
69 1 12.8393708309873258 4.3525613235766691 19.4128493045241655 -0.3583041316067368 0.4199557506923089 -0.3009082253897005
74 1 10.0344344302741941 6.8446943504822748 19.5157417856869166 0.9824868025970233 1.5158878212850788 0.2736356854809520
77 1 12.8994561521797220 6.7886944752760190 19.5197904886794440 -0.4347210886971246 1.2510173577469386 -0.0717823035333029
17 1 17.1003748211862323 4.3502832461012906 19.5306560653585208 0.4687411592273134 0.7557887164018802 0.8234194965956321
72 1 16.4194069707628678 5.6087625646763808 19.6495204993406034 -1.0234389845886824 0.0712391654186084 -0.1361773044891895
71 1 15.0005687236297032 5.6122545862428845 19.6099710427761558 0.6489407778145089 -2.0563362712765731 -0.4792733193631799
70 1 14.2701095021957265 4.3657181587592859 19.5823670801283534 -0.7383844551984475 0.7900010002324784 -1.8768052864027538
78 1 14.2984476985902109 6.8277662604730995 19.7043293820379475 1.1757429544099665 -0.4483181607906379 0.0541319094415995
25 1 17.1772158697395483 6.8057915880817994 19.7307915548738535 -0.7556102463257517 0.8339000423250267 -1.5775452447140013
75 1 10.7915191333830496 8.0868039950998476 19.5136395431124008 -1.5588569471011753 -0.0384660653965578 -0.6994743376637476
76 1 12.2236979470634690 8.0783573294441737 19.6192001837879388 -1.7581052165798798 -0.6961187806253198 -1.2794797086317653
82 1 10.0491541191240614 9.2768367224550197 19.5859355912092958 0.3373967454202078 0.8134270781890950 -1.5995249832501393
85 1 12.9059959594693776 9.2979059750978745 19.6289882224442032 1.7799789973812210 -0.3715653302621663 0.7883554700178814
84 1 12.2028339443648512 10.5508225449164357 19.6521463924077544 -0.8102551638859484 -0.8386459642792627 -1.2059994758574137
83 1 10.7648945849016382 10.5123148871268430 19.5495881558423896 0.8177367091504609 0.3836187442894868 -0.8616639934479170
88 1 16.4559711797022281 10.4809420979073593 19.8741118841387241 -1.6281927594383752 -0.5723535950957791 -0.0397676571350498
86 1 14.3527352868966300 9.2616909978133410 19.7821740815921387 -1.5753008862909046 0.1947985203631876 -0.4835152831598805
79 1 15.0499563552533075 8.0570686625232355 19.7577320437938440 -0.1119667251770347 -1.1910744339771648 -0.5817279350755986
80 1 16.4584455740856654 8.0482642316594433 19.7427189409093131 0.7576332538464823 -0.5464314736130904 1.2358672535221764
87 1 15.0088472567055522 10.4968847595553605 19.8572173253097155 0.8094169867909891 1.7458256540779526 -1.1356620625231932
33 1 17.1580169796912081 9.2624736452314913 19.8569911169692830 1.5103751982122833 -1.7320783260711141 -1.7158353196146401
92 1 12.1970671634893044 12.9892248357136335 19.6751662039574207 -3.0769809927747382 0.1133414165261964 0.8089525492734970
91 1 10.7401778900264020 12.9761721620173791 19.5437136764748196 1.1861553367865985 -2.6713855892616021 -0.2450638749782140
90 1 10.0385935798369612 11.7034536137602139 19.5361014346769295 0.0793784643161805 2.9745203946769010 -0.7092377696742185
93 1 12.8771919481036150 11.7602455110625321 19.7334528675672054 1.7961247152594206 1.1121424213881204 -1.2240816861351815
50 1 10.0003857289955604 14.1591116541857183 19.5396241088282459 1.7974020100221828 0.4019702687683655 -0.2999800301563598
53 1 12.8504773398295313 14.2286906955486643 19.6232897871866854 -1.2649864438488665 0.6938840835847737 -0.7007604106613816
41 1 17.1169827313748790 11.7307434215849291 19.7741608428627451 -0.9351055883285826 -0.2923751991678226 1.2012198134743182
96 1 16.3731063517571940 12.9483063520693182 19.7938655864029549 0.1147246040193773 -0.0278753667315781 -0.6536885925614532
95 1 14.9558841064739223 12.9809303992443876 19.7406586830772603 -0.4505655147860849 -1.3297513121679281 -0.7759977167366023
94 1 14.2789821280998215 11.7258573653224509 19.7633552782405424 -0.1812967829711607 0.4460533069618703 1.1906957167058991
54 1 14.2481169945096067 14.2361355015414279 19.5909168943514480 0.8812156764430348 -1.5904807532011118 -0.5173189269499867
1 1 17.0871523180341640 14.2100870969553927 19.7964073006109267 -0.3798722005604644 -1.2377698812584166 0.0220773970652764
