ITEM: TIMESTEP
2310
ITEM: NUMBER OF ATOMS
96
ITEM: BOX BOUNDS pp pp pp
0.0000000000000000e+00 1.7084949165859321e+01
0.0000000000000000e+00 1.4796000000000010e+01
0.0000000000000000e+00 1.9999999999999982e+01
ITEM: ATOMS id type x y z fx fy fz
10 1 1.6742800136044333 2.5022237822340503 19.0097744506463222 -0.5582680387702675 -1.6805428575278609 1.1213484870391310
4 1 3.8457060379194816 1.2614340755195819 19.0906551029427547 -1.1120049629788371 -0.8955837907194001 1.2187321386636543
3 1 2.3702564650652436 1.2338781327407948 19.1350410745668249 0.5662721107952179 -0.0050453423837973 -1.3720816619104581
2 1 1.6284253142572869 0.0216590351308402 18.9866986479280477 1.6851643057259409 -1.7605581208557175 1.2628894286119574
5 1 4.5523837379233125 0.0281750591008920 19.0544117699734166 0.4166503291638650 0.7646089183056806 0.8012824119888482
13 1 4.5766593932080637 2.5163721843432496 19.1291575688944278 0.1533078859253834 -2.6484221855257442 -1.0643133737375869
14 1 5.9975766413116638 2.5031382378644649 19.0989140242158157 0.0784770466493390 -2.6661697617600106 1.2612976676103118
8 1 8.1443557612313011 1.2375189237326603 19.1816432609324785 -2.9185744803867881 1.1247631696169580 0.1443541374384959
7 1 6.6700243467251035 1.1993150435563817 19.1948001338904746 1.1058672283433624 3.6678714050000085 -1.3056358324289608
6 1 5.9958965114518907 0.0426930509829311 19.0554544695664241 -2.6767669869724990 -3.5678422134136913 0.2149284052317167
57 1 8.8271489376848979 2.4374669171831469 19.3291633063429131 0.6940636811950801 1.4519251284131469 -0.9005657186917098
49 1 8.8576722692724434 0.0488667005790763 19.1844304808016659 -1.5786182900369365 -4.1801535580455758 1.1952568680426139
20 1 3.8097354298948725 6.2223876169798631 18.9711367704225076 0.3939978659808345 -2.7823118768679476 0.2677086702946395
19 1 2.4055185287419620 6.1269565587779491 18.8845100272963222 -2.4374522771185765 1.7419870906281316 0.7521568635905300
18 1 1.6898315092604099 4.8964679440391325 18.8610189816863461 1.7514328548209224 1.4334741547911167 0.6972903803588358
12 1 3.8175503187241020 3.7069116833436926 19.0487702075223844 2.3970523215530410 1.3378168040721663 0.4977545362904033
11 1 2.4352528802964915 3.6692684797605652 18.9845893617653481 -1.8966679782650036 0.9758411742987453 0.0702811348451744
21 1 4.5321451270545037 4.9956885278261058 19.0595489362543091 0.4600523822420377 -1.2249148591143690 0.2529985267912639
16 1 8.1262162101637614 3.6886521524513451 19.2556647517697925 0.1347301627285747 0.3980019953279466 0.8829829839782501
24 1 8.0872407899023901 6.1841827953855288 19.1899385176717061 0.7059295008376426 -0.2580549130448129 1.3909323376366767
15 1 6.6727019277960009 3.6916289188032865 19.1868750238863655 1.3615661231542489 0.9459926967091841 -1.0161062909158549
23 1 6.7007368468503632 6.1621632926564214 19.2257796563949768 -0.2403294976645187 1.8803300987770397 -0.4605710655871099
22 1 5.9807267600089711 4.9920729871085614 19.2291877535235720 -1.9344117448584246 -2.4914393133310142 -0.6889310732229499
65 1 8.8279179728080877 4.9236542242067447 19.2471414786538588 -1.9366997023550452 1.0510886768287044 -1.0743878620837854
26 1 1.6889685611568952 7.3962738937513031 18.9731204055644831 0.3138124647601075 -0.6726019068939788 0.2361004187222817
34 1 1.6795776467470032 9.8490258530900849 19.1547737803031595 0.6299912437482089 0.9369216462130450 -2.1789689030567834
28 1 3.8344970887038765 8.6595889441356970 18.9609792032910072 0.4305271521304678 0.1475669696037242 -0.0176589184861933
27 1 2.4089326863310370 8.5994133999227138 19.0138576556824894 -1.4308027561628116 1.4082619370966616 -0.4797177042951700
37 1 4.5257701496660694 9.9001907688383550 19.0329859715227840 1.1459906654388909 -1.1508506564678833 -0.5309890873232270
29 1 4.5476520035604180 7.4177500517967863 19.0134931071808779 0.7947675060694670 1.3385054032538493 0.5316716941603961
38 1 5.9695193565034996 9.8347288561832276 19.1022283351951003 -1.0343052670161477 2.5654566871557125 0.5774443145564900
32 1 8.0849479448625790 8.6679526119487047 19.1140434210568948 -0.5907058349985537 2.4836983659858909 0.9634050750720067
31 1 6.6807728408566902 8.6361142586365922 19.1315773733541512 -0.4143226219291400 0.1279000133974244 0.6706996456113328
30 1 5.9672785391558758 7.3970391414109322 19.1307061455696079 -1.1596591577978992 0.3300711654547050 1.0835728475482787
81 1 8.7868825524327381 9.9149944023724554 19.1739688056076218 0.3915054697826771 0.8484946526075293 0.7386982458809604
73 1 8.7725045742134533 7.4631115433782433 19.1332679212936903 -1.1331642669620408 -2.6115726499076772 1.4709090292440652
44 1 3.7822720019857217 13.5902810068891551 18.9865084074729751 2.6159528216134600 0.8592026290955299 -0.5581649339431713
43 1 2.3779694677605088 13.5716886545065112 19.0749400427520861 -1.5441798156773943 0.7528289342157574 -0.6257284035036581
36 1 3.8094466160034353 11.1096034776174228 19.0011312557232124 0.1223693779294632 0.5873269887377475 1.1328653000208573
35 1 2.3814651346310094 11.1009957767786602 19.1362831661456561 0.0477238578115547 -1.2307538136809577 -0.6505669781754666
42 1 1.6592835836367628 12.3526266550566053 19.0955421601384856 0.0254762761401991 0.0818164239385406 2.0071992856058674
45 1 4.4698823387193851 12.3456859674441350 18.9970219580516257 1.8900379819154822 0.5055226732660113 -1.1843007689134208
40 1 8.0885479532498117 11.1743264615297662 19.2383230096570408 1.9146905362327944 -0.4851141954106533 -0.8461798468485056
39 1 6.6725561560158706 11.1240563034374862 19.1553346763845269 -1.9687633043907957 0.6328447661936193 0.3315804394776015
48 1 8.1224112097675771 13.5940598442573872 19.1391927825278181 -0.5614724426763740 1.9056881189919535 -0.2319467471878008
47 1 6.6826812403264082 13.6039486974244213 19.0174852751968757 -0.6200469275128431 -1.2587850005297434 0.7458124020107971
46 1 5.9284864188338213 12.3264934437349982 19.0449022121874236 -0.0236290664680723 1.8553997308587475 -0.5645452269784729
89 1 8.8643682298031550 12.3906336543639561 19.2127021920959322 -3.7629747609239748 -0.2709723724440036 -0.4155329401736116
50 1 10.2601109982175682 -0.0444326032544009 19.2283283014737556 1.9962298701261481 2.9841683286048299 -0.1082552084314491
58 1 10.2823321552203168 2.4554447399966199 19.2874752162517957 -1.3124037614633668 1.8683731898931488 1.0393405297163096
52 1 12.4261348166615750 1.2581739060793451 19.1990963246871225 -2.9171955155078018 0.1683133261035086 -1.7196014179671453
51 1 10.9647691564797043 1.2637520300546898 19.2498470461440263 2.9491519598022178 -3.8463473927693101 -0.2319687114520761
53 1 13.1095004391528676 0.0397189036574209 19.1267520833316631 -0.5082268081651317 -0.1482271265267054 -1.0739185334506591
61 1 13.1136668002583203 2.4644622346707115 19.0847117693397230 0.9945241843841770 0.6567057973425574 0.6784396660727978
62 1 14.5568700355665275 2.4750028266962207 18.9001871024215937 -2.5873696646603546 1.2401955864551426 0.3589770374896080
56 1 16.6161246098396873 1.2226598312237011 18.8638362121684011 2.3005935089663101 -0.8046917750685291 0.6855241535595975
55 1 15.2083765876083010 1.2399625187063392 18.8222680896231971 1.5682750389146984 0.9087172775502623 1.9999085076871603
54 1 14.5226030207509886 0.0128871756526871 19.0087910704189618 -0.0794377283311976 -1.0226522005812324 0.2299458052382085
1 1 17.3317737137262817 -0.0299071399751280 18.8668485036950528 -2.4919783010487659 0.6288820501102730 0.9105888955159764
9 1 17.3458958712582465 2.4777200750660473 18.9292540475945330 -1.3548963123088127 0.4266029871788061 0.4591415249523340
68 1 12.3590364810917901 6.1798896728797947 19.1344896423232704 -2.1145211205397203 0.0808142095301554 1.3253646528300678
67 1 10.8953017817560944 6.1717601246027218 19.1331109590852186 1.8872298067839224 3.1494388711445396 -0.9486392222022066
66 1 10.2328243095923153 4.9586508789119312 19.2212670892464104 0.8453344433733697 -1.7906436894221207 1.1462353706755208
60 1 12.3801890748252017 3.6967746241751978 19.1491849066973252 -1.3527657200945971 -1.3858548414224601 -0.7963359141620322
59 1 10.9560428965664620 3.6829096196093434 19.2965793871606053 1.6141024037442291 1.2539109622731750 -0.1717581381187897
69 1 13.0359130783173391 4.9448388901669587 19.1651781708523465 0.6144882267508784 0.0889162501989825 -0.8454009354512987
63 1 15.2310644268168005 3.7135110001240306 18.9163681898594689 -0.3026147231766582 -0.1051523984319491 -0.6469100974451836
64 1 16.6491763780757864 3.7256817133593265 18.8980804585562367 -1.3230461612895261 0.0191942711762347 -0.4570690861963789
70 1 14.4795511129068153 4.9210587422515308 19.0487886038565435 0.0420528853192834 -0.1709047228483608 0.2717717147506213
71 1 15.1949403030401484 6.1425855963449703 19.0607745533157420 0.0559168995346346 1.0639956490471072 -0.2095628568224316
72 1 16.6269704946600747 6.1875970376527452 19.0103092619949514 0.3710264027642331 -0.0357778209422284 0.5051562520415629
17 1 17.3736808893629338 4.9455561423891741 18.9541950525906557 -2.0326785552314477 0.1241992732470585 0.1931707824608955
74 1 10.1629976234972563 7.4520443017786766 19.1635927483117463 0.4703363767371185 -2.9410053566821310 -0.1941501724470135
75 1 10.8935909526278998 8.6533670728962235 19.1014960588412528 2.8007108113082770 -2.4018816266508991 -0.7075058936036208
76 1 12.3241779673435730 8.6338422645150015 19.1960981300761091 -0.6533113950629766 -0.6209342643260453 0.3704642709410553
82 1 10.2572725091393924 9.8538414812363513 19.1252856200791186 -3.2849161751433127 1.8936112456463228 -0.2456260061273965
77 1 13.0618190554437579 7.3914805958011671 19.2327370636190196 -0.6501929006730256 -0.0376950666968996 -1.1034606828779663
85 1 13.0281556555038254 9.8762931163158019 19.1875681952421964 2.9355119609455880 -1.2297910476379188 1.2186704831692030
86 1 14.4982727028256768 9.8493885665164775 19.2045967602957042 -1.2520587397968959 0.2025869402882841 0.3501368287216652
79 1 15.1915920453838336 8.6313083987754169 19.1829001663630336 1.2179845184497053 -0.9509140543797973 -0.9681677915083309
80 1 16.6034229113569936 8.6100881572927985 19.0154087986381626 1.1682962930361742 0.7899611436408197 -0.5082559757469602
78 1 14.4875308488833987 7.3876557816892330 19.2351310351602081 -1.0935442113748610 -0.6275387132439291 -0.9200530737114230
25 1 17.3535979051284670 7.4083989651133004 18.9741784573364036 -0.5371713374242719 0.2904235938169499 0.7962527300526422
33 1 17.3044609855861147 9.8236641582806996 19.0426399664150985 2.7506197305880926 -0.8047475008001219 1.6831220983218027
92 1 12.4002090981371094 13.6089372099301080 19.1127277677603296 -1.4333483822110469 -0.1075542988700732 -0.7385063072297290
91 1 10.9594934145361016 13.5611466291013105 19.1195231459078236 1.6127082951971119 -0.5055688907130502 0.7747801117883533
90 1 10.2228978814263982 12.3356936676994309 19.1228669682648089 3.8867672128342967 0.7911799362981443 1.3669090597739213
84 1 12.3886840281057591 11.1187536009269934 19.1349837701810905 -2.0304972517150426 1.1470506959866600 0.0423858535171256
83 1 10.9350155275765175 11.0901755536933759 19.1904075628083994 1.6281231467821100 -0.4446163382077151 -2.1803115018973753
93 1 13.0592167890862552 12.3583699890326155 19.1096287201978789 1.9774262785887591 -0.2770716105776783 -0.5141422696755662
95 1 15.2042320620622071 13.5552361179321057 18.9689482494578279 -0.4319193735767858 -1.2294553133012855 0.5652124455457651
94 1 14.4605891684413592 12.2895037024862361 19.0239019299753629 1.6170313415344557 1.6132191423224997 -0.5091967096722061
87 1 15.1954798214747822 11.0756851583607041 19.1628053642601550 -0.8438307723799233 1.1626503610866525 -1.0779089761868406
96 1 16.6057217630938041 13.5521041042970012 18.9429941448400285 0.9037322798076366 -2.4389796246227857 0.1017532629564851
88 1 16.6450888425282280 11.0569594722966116 19.1065223501512165 -1.1153088892336411 0.0485285447467753 1.5194063004307945
41 1 17.3039369666437572 12.3064562183079289 19.1651145397759208 2.1093531844939180 0.4520340418689555 -1.4645069679427802
