ITEM: TIMESTEP
2940
ITEM: NUMBER OF ATOMS
96
ITEM: BOX BOUNDS pp pp pp
0.0000000000000000e+00 1.7084949165859321e+01
0.0000000000000000e+00 1.4796000000000010e+01
0.0000000000000000e+00 1.9999999999999982e+01
ITEM: ATOMS id type x y z fx fy fz
10 1 1.4386243680384927 2.2671942611487705 19.1336079866383528 -0.8174734093307425 -0.1007635051262556 -1.0033040109586970
4 1 3.5997317282632797 1.0752158998369730 19.0902180911504971 -1.0362834608735281 -0.9082322431546200 -0.3777897160846722
3 1 2.1872924501007907 1.0310166906070817 19.0574555343492591 -0.9574878608517944 2.0311618811841083 -0.6298882723250347
2 1 1.4806034253451470 -0.1956500847345542 19.0640435987812822 -0.6514836776220745 0.5705757712201284 -0.9932340394994414
5 1 4.2860410348957059 -0.1528465237113400 19.0088935766105713 0.1959784328388086 0.2375273380584033 -1.2559987521472786
13 1 4.2800038087775887 2.3097080984134202 19.0499757085301695 -1.8719353306416084 -1.9834888796147310 -0.4498988698403103
14 1 5.6711073195743245 2.2603626517409481 19.0007347199552079 1.6850166727226177 -0.0176478975812258 -0.7212461288481923
8 1 7.8404451949094538 1.0790415663205732 18.8581542363221004 0.1578799526039919 -1.9066254871462351 -0.1761318980078230
7 1 6.3793613782386833 1.0552987330404449 18.9554451692621093 0.5437335036222082 -0.6357189240202819 -0.9977761842010502
6 1 5.6652296500558910 -0.1773133088097306 18.9403103085321938 3.7738807871236988 -0.0024835661662982 -0.8078977727883776
57 1 8.5852945573716539 2.2539044298408886 18.9970437098965483 -2.5877501760756134 2.1384501277293726 0.4753009521570809
49 1 8.5564784966582508 -0.1708789724893763 18.9052036953943841 0.1769935137392448 -0.1576131533879944 0.9377178027425562
20 1 3.5305673203025556 5.9474110775658424 19.2433973127655307 0.6500116546079522 1.0599229120709661 -0.8817936295890274
19 1 2.1225702564324149 5.9894582418993201 19.2797985258002171 -0.4539733876525337 -2.5319516782210769 -1.2661431501696614
18 1 1.4098431102373719 4.7232551087006858 19.1623861235477477 2.2654694294343698 2.2350500337563570 1.5720891097381287
12 1 3.5535144147469389 3.5086601505265218 19.0235475475982838 -0.5166390871809293 1.0860671822229662 0.9459402558540561
11 1 2.1378698942640941 3.4842481888505938 19.1069566396267980 -1.6803408251651837 1.2285337223360777 -0.9152371708989683
21 1 4.2617134977584570 4.7302842792825190 19.1571318847779146 -0.6169354337893324 0.8716933144725669 -0.8272095208758562
16 1 7.8290124669299095 3.4797119405359727 19.0056002919806701 -0.3727738164202072 -0.3731364251273726 -1.6254253455608265
24 1 7.8439219641585689 5.9596416775402306 19.0336267823619671 -2.0412861609694213 0.1948029462217942 -0.1346577377244202
15 1 6.3973740031759050 3.4645329793269863 18.9921150923186381 -0.4862451833630488 2.3545777532038299 0.1198104324365221
23 1 6.3981296514470918 5.9416133529731479 19.1296366980905503 -0.7503357437023253 0.5454699115004570 -1.5855182204500329
22 1 5.6858656861286301 4.7027158901147192 19.0398163922597874 0.6548431063684773 0.9826622620357989 -0.7027725981880153
65 1 8.5448794692532459 4.7031205423937799 19.0048433964216876 -0.3228649843516864 1.1073059992814975 1.0550805590922931
26 1 1.4518919376509267 7.2145861925299721 19.4129562912561724 -0.9160486319973833 0.1792154559559946 0.8038008148466829
34 1 1.3951805028457338 9.7221122543207485 19.2958755062193497 0.7475947761379790 0.1757863672330661 -1.3762140467571480
28 1 3.5387924953814083 8.4844386943739529 19.2734464015152973 1.7069621175583838 -2.2970689831263660 -1.2768392171499192
27 1 2.1119796285523735 8.5293123888964573 19.3656394799771014 0.1640151084706688 -3.2601382174034854 -0.3913010868538974
37 1 4.2672837417990417 9.6758092917968188 19.1668483699694612 1.4874608148926014 2.6387155182451814 -1.1252627419497230
29 1 4.2434934909333020 7.2078073489723709 19.2292129958603653 -1.2124977749074750 -0.5692332577587149 0.1103599165093679
38 1 5.7103892827374461 9.7181439361430346 19.1641231793249780 -2.2155753789569905 -1.7156543174790642 -0.4250429596806999
32 1 7.8138421505582683 8.4269736939096145 19.2896820981163053 -0.9952723766256095 -1.6330703989998168 -0.0859466866741051
31 1 6.3903288414652684 8.4654173727718884 19.2561592832747372 -0.1219664295765755 -1.7043128750428316 0.8039701639183652
30 1 5.6831159436990220 7.1850762660670346 19.1951878132118381 0.2208491335825084 -0.1405519225901189 -0.2493483786655402
81 1 8.5043189566352293 9.6500695348849437 19.1193612843986784 3.7980938883584763 -0.4521297595715777 -0.1386042213637754
73 1 8.5176681103230756 7.1599713913515410 19.2742074091241129 0.5396951302065970 0.7688296398776333 0.2794111080935319
44 1 3.5743701786068578 13.3985280006148599 18.9536071762254466 1.7655639995891805 -0.6569042368117470 0.7091819767159151
43 1 2.1713237710655373 13.3790250800696597 19.1236871181443711 1.1106549009561573 1.8441763531616513 -2.2723198038793266
36 1 3.5489821872706142 10.9457557001716062 19.0017047771910725 0.5799159559601919 0.2458212254860084 2.1186762473765461
35 1 2.1561683153792619 10.9483422256010243 19.0965393441352376 -2.7468756712260389 0.3497953632363828 0.5005186143718114
42 1 1.4370708506288177 12.1934230223513023 19.0861913273222044 0.8768126087809454 -1.6147215094339231 1.2897393698954351
45 1 4.2986099464554259 12.1819862560945626 18.9998923438341123 0.4604583692653562 -0.8823867434618042 -1.3510572916059389
40 1 7.8659564578333434 10.9188496499184140 19.0374897116697817 -1.5154478316549356 -0.2417651483252693 -0.2705293383159083
39 1 6.4333828193580294 10.9118782721179013 19.0790288946771796 0.2561797445233819 0.3350774642500798 0.6621060438791467
48 1 7.8904168967554913 13.3952258280361232 18.8900107860096647 -2.4820701308746260 0.2978403131099476 1.0718818532435324
47 1 6.4095152395041417 13.3939396637123025 18.9136202664585795 0.8608629521079221 0.4069740142017981 0.0694933916756147
46 1 5.7208654279473823 12.1514327049179798 18.9418824931662684 0.0598417241695634 0.5919973628551373 -0.0028879995620131
89 1 8.6136510871944303 12.1346586378230086 18.8655833827514314 -0.9398041575729070 -0.0662534765272817 0.7392291137186531
50 1 9.9823293662265815 -0.2131658051116201 19.0074033744861275 0.1988768787961575 1.1734730494848562 -0.8556024493877401
58 1 9.9785983444504858 2.2428510764924456 19.1064262567814431 0.5186185260705113 1.8584827485437383 0.1131470830498853
52 1 12.1343862740786719 1.0389653191430244 19.0867263944544305 0.1598441432857111 -0.8553465472145336 -0.6281156719203401
51 1 10.6928351283309482 1.0155921761709656 19.0220052830266546 0.7776173131527827 -0.2912003969309534 -0.4321524474947837
53 1 12.8522816569568334 -0.2004700005667127 19.1090366994465413 -0.6665775771333009 1.8571101616104193 -1.4517967610859732
61 1 12.8215720981920995 2.2472331488823407 19.1076605862002147 -0.4187170211043556 1.0850654502759196 1.8381423812023807
62 1 14.2516318398099973 2.2833728938014235 19.1127534188631572 -1.4479441660137609 -1.6171437700461275 0.9087352333838968
56 1 16.3928283240613126 1.0465157392893907 18.9838190554023818 -1.0728787716774038 -1.9001116429755753 0.3319247593962960
55 1 14.9666848645338391 1.0407988370283898 19.0646127363808056 -0.9686227987947293 0.5227371899834562 -0.7282289571869172
54 1 14.2734992258616256 -0.1895006511177286 19.0846926272081596 0.9983759537498056 -1.2737963553360063 1.0321519294723975
1 1 17.1003497812148630 -0.2265041078270631 19.0481051323990194 0.1280145022975370 0.9477327112548467 -1.2031160209078890
9 1 17.0988188547737820 2.2503945775773779 18.9735041219253802 -0.2182780711512838 2.4333392917347960 -0.4474675554769072
68 1 12.1001236487369095 5.9661426146318313 19.0012431827299899 1.5177987784332656 -0.5414352584470123 0.2176194378886320
67 1 10.6990098789937846 5.9792092348810062 19.1051108640649403 -0.2104233545132093 -1.8200846380601032 0.4780308092453742
66 1 9.9492531998610509 4.7139529746394659 19.0524873244651829 0.9315205450120545 1.4828234193437480 -0.7745830841416568
60 1 12.1356125219055322 3.4790416482717430 19.1796980366981771 -0.8833485091245155 1.4136670770351778 -1.0936832628193960
59 1 10.6918431659803996 3.5064920006198350 19.1535778246154287 -0.2769673964316334 -0.9508325734893252 -1.7871657235039697
69 1 12.8207187532917217 4.7296541385674322 19.0922976709841912 -0.0087824332127488 -0.9131010402449494 0.2152848163101618
63 1 14.9590761044310199 3.4936310709166967 19.1269996670178379 -0.5366265672405587 2.3413091693682708 0.0150672758569087
64 1 16.3765915215714841 3.5233741735131279 19.0308292359145490 -0.6637083478651030 -0.0664146970410352 -0.4254339058927301
70 1 14.2161180255110651 4.7448626965792249 19.2030503785231517 1.7713947259431744 0.1829568174879028 0.0123566464693530
71 1 14.9849218071511441 5.9594683384565874 19.1840447660008024 -2.8434093741417863 -0.6967652381904190 0.6817649049846679
72 1 16.3662019904023666 5.9688025475684725 19.1989806624900901 0.4444928715539262 1.4431063829405382 1.5073849905105576
17 1 17.0966717204018011 4.7674354607650304 19.1401657908810314 -2.0582803167283217 -2.3419575619075719 1.1083979560497841
74 1 9.9777630278016503 7.1988178992228891 19.2181120062625084 -1.1643057076271597 -1.0755077199652421 -0.9854882639671452
75 1 10.7097382494242179 8.3813567054497717 19.2040756890152906 -1.5497412781347268 1.1221791354362129 -0.6337293334491810
76 1 12.1373295684200571 8.4564566109465780 19.0547823833492203 0.7882541390510036 -1.6426603479613124 1.5089660184595548
82 1 9.9623298892733612 9.6220758139522218 19.2102995755749220 1.4925867252556542 1.1763664821050119 -1.9499699843150724
77 1 12.8500807710640164 7.2008902969571276 19.0347768205663783 -0.1298468522420851 -0.6529855713855945 1.4349954745248317
85 1 12.8106839705760880 9.6551278685058790 19.1087578013056749 0.7276999829593087 0.4894297160692456 0.3086450284702054
86 1 14.2123022648798241 9.7263452428525561 19.1537901812715496 1.3337499042912484 -4.6333127480405425 -0.0009887857432628
79 1 14.9555346319187006 8.4308514300376629 19.2796948866508053 0.3839425600361010 2.4356259194596603 -1.7219675132076555
80 1 16.3889863468046570 8.4747243568244315 19.3384003063639085 0.4486645432978252 -2.9333373046158773 -0.5367194325948714
78 1 14.3069946986018941 7.2025037845079121 19.1560506611131380 -2.4741686422873039 1.2219635700108693 -0.1807737272321746
25 1 17.1008185334140599 7.1853848139470777 19.3809409876425498 -0.5169477178060466 3.3129732141834500 0.5157422690918861
33 1 17.0559879141172281 9.7284792590034943 19.2850908962419787 1.9564699280253746 -3.6285841341542104 -0.3405533986889481
92 1 12.1206079150397610 13.3956119963893254 19.1337674727501401 -0.0075780949793710 -1.6628642440516845 -0.9147869019556888
91 1 10.6998781022732476 13.3527932409126961 19.0309393783199781 0.1229179839409844 -0.0930319895537501 0.4924410412733126
90 1 10.0544875397814906 12.0880571636779823 18.9867284124664977 -1.5600290237311387 -1.0062903752202648 0.4345079079639836
84 1 12.1199417208977351 10.8821770274750520 19.1652647047207019 0.0637149604229917 -0.8826190503271270 -0.5486436399975780
83 1 10.7524704877168222 10.8133457314202950 19.1011086601638205 -2.0114997362983100 0.9473672280172876 -1.2398373433536896
93 1 12.7802063902983125 12.1359087223829647 19.1850966495473045 0.4108783170544774 0.5823442779329289 -1.1305859655950985
95 1 14.9526495751487492 13.3414583793086781 19.1409405734946674 0.4259749070314235 -0.8893391888619909 -1.6967998930041019
94 1 14.2035429324043569 12.0892707339328069 19.1649606679197078 1.4719154965890437 2.8390186669670037 1.3743457816430842
87 1 14.9675224912550338 10.8704744956296491 19.1699854523278930 -2.0750505062273876 1.7543187150988653 -0.8993535665307623
96 1 16.3820714286079330 13.3440425763386319 19.0689181945633059 -1.6587150196597493 1.6067866860726698 1.2103416639645275
88 1 16.3796713285105255 10.8797326698408074 19.1262391680552071 -1.2164748494685664 4.4424761420015075 0.6453510306640491
41 1 17.0893714860814754 12.1497759216225134 19.0668212462059046 -0.7539539333906470 -1.8905040602049425 0.3142372093387052
