ITEM: TIMESTEP
4490
ITEM: NUMBER OF ATOMS
96
ITEM: BOX BOUNDS pp pp pp
0.0000000000000000e+00 1.7084949165859321e+01
0.0000000000000000e+00 1.4796000000000010e+01
0.0000000000000000e+00 1.9999999999999982e+01
ITEM: ATOMS id type x y z fx fy fz
10 1 1.2100176570748604 2.1984890529904515 19.2876177507164144 -1.3351458295734457 -0.3985222659834737 -1.2486268610509643
4 1 3.3783447159471138 0.9482993551632071 19.3481451249417020 -2.7810152419795799 -1.9455320931778561 -0.0277785113366700
3 1 1.9524197943008053 0.9558715266523385 19.2628511713870694 -0.5132245177352885 0.5084989869730059 -0.8758279798389562
2 1 1.1547938979952075 -0.2888036101997879 19.2220215003000128 0.0392619836375276 -0.9044929620481135 -0.3473262829239211
5 1 4.0494067130327469 -0.3103260647743720 19.3359027634403340 -0.7724856928243965 0.6466881997298087 1.0318954780411620
13 1 4.0145560728509437 2.1924109592601102 19.3028123731435954 -0.7419893653912754 0.6155389308704629 -0.7043751685094581
14 1 5.4026663391536918 2.1522760285320488 19.3936445571209681 1.2489318883640423 1.6696779876203460 -0.6174239323269802
8 1 7.5130420969885021 0.9438400474792747 19.2917607090300116 1.8200845046866596 -1.2966733053497133 1.1739581283227107
7 1 6.1489121621147200 0.9355202693789041 19.3038829598015482 -1.3551157137302874 -0.0816625731071742 -0.7167120432912508
6 1 5.4948075423294069 -0.3280756533008180 19.2632321749763662 -3.6656347133293385 2.3124974853188780 1.6644753198897353
57 1 8.2421513206596071 2.1097312070871088 19.3289482393757304 1.7472255481829349 4.0190952983580761 1.0046285771843011
49 1 8.2230359688696435 -0.3039649198438696 19.3206301827836313 0.9245968212094499 3.1844481901407642 0.7209901077238152
20 1 3.2124338740488056 5.8567215037854794 19.4188028462669671 1.5095309155746202 1.7505185908711032 -0.9900228607019050
19 1 1.8177436048059039 5.9237209383019396 19.3561763290413360 -0.2851765535739023 0.0245343378933562 -0.3980572516875956
18 1 1.1283984837815819 4.6825352449879682 19.3302737189693090 -1.2585858562485750 -0.0648874323815165 -0.3629522963824278
12 1 3.2640751546586388 3.4432024168027704 19.2909958116763995 1.6431330841350675 -0.9679672167434508 -0.7152908955004473
11 1 1.8512508677442596 3.4319518965136933 19.2202313304232355 1.0505933598512074 0.2795809478037903 -0.3658733815589075
21 1 3.9638681872249681 4.6319353912591144 19.4721080229763359 0.6730180699867612 -0.4505673664202968 -2.1640268386759871
16 1 7.5415169785899145 3.4094988667715844 19.3843207726158688 1.6474262819721006 -1.5498018270693863 -0.1406201993985375
24 1 7.5205294445998341 5.8716997677030918 19.3986401673228492 0.6602065625863692 0.7017603797144937 0.5407356463319315
15 1 6.1359529348789001 3.3925273908385107 19.3678671554263175 -1.1183341300561196 -1.8407461051436305 0.9450093404587983
23 1 6.1178869386348591 5.8263864453454275 19.3671973406055429 -1.5096090008603733 0.5742165930094780 2.2960770047925925
22 1 5.4242027952464413 4.6051849693335924 19.4420489972948296 -1.1457947455110256 1.5072414023782019 0.7874429436818335
65 1 8.2428248454631454 4.6453089441816111 19.3843880066480168 0.5127634556478062 1.2422005184974680 -1.2821057505240139
26 1 1.1225992815801125 7.1490581942759333 19.4796863242839180 -1.2725134120476655 -1.1008797434556730 -1.5987833554197350
34 1 1.1121900721935125 9.5872040928401141 19.3908342394762556 1.0712995752147962 -1.1331840801058912 -0.1004622479801703
28 1 3.2813282371903960 8.3506681356102028 19.4363509793524933 -0.9640357688498400 -0.0966332830389309 0.3914573377723377
27 1 1.8518908112940848 8.3660172433659454 19.4041920591430639 -0.8129840722805376 0.6008826743483667 0.8956102327044710
37 1 3.9949819690170836 9.5796719279314679 19.3810059931996008 0.7427210777675097 0.5248525899401273 1.0509228917135300
29 1 3.9647922261120310 7.0769260573502937 19.4095244810073844 0.8357029922120256 0.7334592122234873 0.1842800193206156
38 1 5.4394826305854860 9.5634544647541553 19.4858136267788424 -2.5592896734156181 0.4190604626415643 0.0217170425672916
32 1 7.5394428436697130 8.3742444881536393 19.4783847773581229 -2.0419271472954712 -2.4149221102357816 -0.7566411972932754
31 1 6.0871395088974030 8.3363922584408083 19.4257369301179317 1.4429332520971694 0.1911495875430995 1.0104830141048349
30 1 5.4026574447135367 7.0913676862780894 19.4593261838208882 -1.5113103289828196 0.1036609146891087 -0.4744120680567331
81 1 8.2369422626615947 9.5626024526149838 19.3185872378511938 0.7271307445993700 -0.1564964170681398 1.3700036023964925
73 1 8.2438560446167237 7.0874957663208704 19.5122812980533986 -0.8722245443919699 1.3820550942975123 -1.6412376801973219
44 1 3.3048601907273603 13.2352813957134909 19.4270596688140280 -0.0838777019104143 0.3799151826132051 -1.6088129435980549
43 1 1.8540320191057309 13.2596808686197871 19.3092005859450708 0.9506331705179056 -1.4213148471354411 0.0282637305478787
36 1 3.2766066923659847 10.8037243302825132 19.4884210335208401 -0.2599369309657421 -0.7644427595176251 -0.1450939233326717
35 1 1.8401249270011824 10.8136359935206752 19.4081366342921982 -0.3176548952322697 -0.3189510092889354 -0.8114321095616842
42 1 1.1066258458165907 12.0236616928068205 19.4026966451133802 0.7909230794037191 0.5105048039086015 -1.1470134926753528
45 1 4.0557996202837847 12.0051804324806213 19.4175902824654827 -0.7094919057696130 -0.2306546329865996 0.3386544035416005
40 1 7.5714100640615571 10.8077680299057093 19.3338180462833655 -2.4286498083215449 0.3532081067094489 -0.3230040535089442
39 1 6.1374758912255656 10.7567079946355104 19.4345414914678258 1.2936201471771027 2.6252191358844832 -1.3081759841392966
48 1 7.5145922293142657 13.3204574464980556 19.3325970801264333 0.9560542356399213 -3.2858847942578411 0.6506720947526697
47 1 6.1433963143991415 13.2528778663797464 19.3725844686980793 0.6513838217387435 -0.0051371497685275 -1.4303282518571319
46 1 5.4697831662856844 12.0018076375181497 19.3752327333046388 -1.3420904145802168 -0.0085740168003176 0.0862771177700238
89 1 8.2393329802149058 12.0809580001791836 19.3187388141558785 1.0156671451832147 -1.4508511866083862 0.8299568243950448
50 1 9.6887136986440368 -0.2743618096464006 19.2840472607843836 -0.7308488702342519 -1.2488780746803445 -0.0030257911865029
58 1 9.7157346053278335 2.1575512417046996 19.3131860799954858 -1.7920768386414081 -0.6483483520833664 0.9362291443616841
52 1 11.8306020815826152 0.9845458127552245 19.1992879233543654 0.4272232145292713 -1.8540301740577374 1.7336156929555955
51 1 10.4059829859472046 0.9355359414947537 19.2727455230565141 -0.3058319617219949 0.7627657551867471 0.3049327450019099
53 1 12.5031346283448741 -0.2774263654304795 19.2774462850313171 2.0039165615145014 -0.5680602926381728 0.4910567618248476
61 1 12.5479213612198208 2.1731921745908038 19.2466082528208311 -1.6343409717576975 0.3315800390115882 -0.0959924787357238
62 1 13.9730070004746434 2.1446815162256501 19.2593074972943512 1.2855832593494987 -1.7746421150718736 -0.6762208525523892
56 1 16.1440871889371280 0.9107799688770106 19.3618657427987770 0.3676284017058605 0.8119646287973565 -2.5553638448487845
55 1 14.7042075091503701 0.9182170039737374 19.2771043155556789 1.6497960606603712 -0.2859742174971230 0.4257502092135025
54 1 14.0039504182681167 -0.2783260709278494 19.1672691333254051 -3.7807040294273344 -2.0854236275890248 2.1812282531187934
1 1 16.8025330126807617 -0.3239192896903515 19.1838268904330569 -0.3694286812581410 0.5479687394110919 2.1882615407963986
9 1 16.8701686460362090 2.1499628131360322 19.3293351061469281 -1.2089915712967718 -0.4457889139392406 1.0874394981680615
68 1 11.8246754430070578 5.8668877550726544 19.4677307509457655 -1.5401496753661386 -0.5495157485785730 0.6646735467151161
67 1 10.4078783323892914 5.9123834230698806 19.3752713430595449 -0.6199823026067329 -1.9096563954008923 1.1607379399252440
66 1 9.6370627521259262 4.6674027379268530 19.3698326805915535 2.7343602356435870 -0.5340084135543738 -0.9494439464928648
60 1 11.8023780040272079 3.4356807760551598 19.3161335504860823 0.0641285905919796 -2.6363756750704583 0.3608731766378054
59 1 10.3541474238731883 3.4272023189258678 19.3592452409295319 1.6382949779215676 -1.2434153085862294 -1.3560200629413997
69 1 12.4915476849504810 4.6169438091051562 19.4226436344977564 2.2722714791663048 -0.1940648304024925 0.7352285682689381
63 1 14.7141332907242361 3.3359633451346657 19.3612043870049924 -0.5888430909782842 0.6935163381857097 -0.5272077640072304
64 1 16.1202355628320184 3.3494908246670168 19.4186217791540479 -0.3496410093432233 1.9205922885579794 -0.8023811568539494
70 1 13.9468288959098370 4.5515867137402122 19.4516063705313265 1.5216940673202233 1.5569674839859675 -1.0535125548264106
71 1 14.6356915910695289 5.8450096965845324 19.5046125362318179 -0.6202046880316092 -2.1957837424669693 0.6332010981076646
72 1 16.0537082021093838 5.8715960146039974 19.4183200290701237 1.2729022400435868 -1.3563883550172287 0.9807893880796906
17 1 16.8080238654142740 4.5935199063511929 19.4081429828237972 0.0956852625174407 1.5025619331341744 -0.5354636302866171
74 1 9.6533458993388042 7.1059638653228445 19.3087430335013011 0.2991435277475080 1.1405061546512745 -0.0120500817726303
75 1 10.3974468003967768 8.3685808645427979 19.3068452415855738 -2.4373797516451026 -0.2016993281344874 1.8542212880649529
76 1 11.8055042331353697 8.3140580043653021 19.4948541226119225 -0.3695523891925535 0.3535871853041246 -0.7795420077311745
82 1 9.6914278215831544 9.6226908594815317 19.2978958523488870 -0.2020155599648469 -2.0167289625416851 0.1266155418021341
77 1 12.5128772476807519 7.0818362501292711 19.5242123334307820 2.1370911767347383 -0.5824262034843393 0.6529768891979422
85 1 12.4746920485968573 9.5346814871762842 19.4990959587162962 2.7094999181046728 2.7133095452686167 -0.9286852691193962
86 1 13.9420615397247918 9.5424565624931041 19.5088209603054885 -1.0375405692860915 -1.2328194962805403 -1.3179595307534897
79 1 14.6304990903000611 8.3027480290920899 19.5678311075652687 0.5425636109552721 1.6350366521139663 -0.6358689683570051
80 1 16.0715905794430718 8.4001134599990266 19.5199078878057897 -1.7176093687907428 -2.7999685409500628 -0.6108268117815625
78 1 13.9440641350256982 7.0674383837881853 19.4750586928227385 -1.4228599094605479 0.6954604470706506 1.0924019710272472
25 1 16.7670351231981947 7.1564053781066645 19.4530263683123152 0.6759704971783351 -2.6826251969155006 0.3670021626240385
33 1 16.7801667868091045 9.5801208836883855 19.4400430627602319 0.5506750616497268 0.9838131198733311 -0.3540098367053582
92 1 11.8413394960932070 13.3034696576670104 19.4044200201334327 -0.6305754774662525 -1.0310832838080226 -0.1688566628038658
91 1 10.3751776303470784 13.3099651473287679 19.3234788983078190 2.6415293855053070 -2.5351421793154709 -0.1682368773518671
90 1 9.6569741121051038 12.0675701586643633 19.3641039722200397 -0.0006486112437115 2.7755870292734239 -0.0813508361593265
84 1 11.8096386099991673 10.8454728427704108 19.4790771085757441 -0.0883527456178335 -2.6662667655172370 0.5481160264383578
83 1 10.3502604908361668 10.8833228798015309 19.3346421442192842 1.4790202392478911 -2.0837316111001014 0.1016249144235869
93 1 12.5555998212332423 12.0059687759500751 19.4112027330135746 0.3873397467734876 2.7300511446288986 0.0898928268707870
95 1 14.6575300389490177 13.2545590405547209 19.2425216144060052 -0.2663281610606688 1.7144458224187757 -0.6515572070288844
94 1 13.9775180409655704 12.0181116833503854 19.2987800556381472 -1.7479033354106110 -0.3939585392220775 -0.8339820956958011
87 1 14.6176494890322441 10.7639913193711969 19.2897344464836955 2.3348786879260750 0.5359053775458897 1.2933503179835690
96 1 16.0316828507231754 13.2815959714248670 19.3183791377377858 4.3440548430909498 -0.3285825041406070 -2.2910005168128835
88 1 16.0557709480322615 10.8100186831483995 19.3462856433415773 0.3196546458908505 0.1004297386276710 1.1911776848469593
41 1 16.7590965828891996 12.0206288594588937 19.3303420991646249 -1.1361169747484381 1.1925157290226420 0.7596445765469644
