ITEM: TIMESTEP
4220
ITEM: NUMBER OF ATOMS
96
ITEM: BOX BOUNDS pp pp pp
0.0000000000000000e+00 1.7084949165859321e+01
0.0000000000000000e+00 1.4796000000000010e+01
0.0000000000000000e+00 1.9999999999999982e+01
ITEM: ATOMS id type x y z fx fy fz
10 1 1.2261733513747608 2.2929491989878530 19.0508626444831961 -0.8318901602510728 0.8966527438881031 1.6057057192814039
4 1 3.3008177868636728 1.0366234797203011 19.1493953031015565 0.7231570678774951 1.8857986520866126 -1.0363953088098794
3 1 1.8596138133834901 1.0404635494401604 19.1110993663124766 1.4412802764616941 0.8040535274508721 -0.2306336771487794
2 1 1.2019918144985806 -0.2097170602365691 19.0678156854374841 -2.4092079497312811 0.7915665579706044 -0.2858372477662250
5 1 4.0283799099491260 -0.1560025739026319 19.1051587158816361 -0.5491724904015455 0.6221095254255364 1.0097624466948436
13 1 3.9902388938786593 2.2853023935406402 19.1008381771375753 0.7800810419736695 0.6229392083347646 0.6999899850576918
14 1 5.3984921645083146 2.2829227240084440 19.1931482837346508 0.4672432956068469 0.8172255639335806 -0.3570443892120033
8 1 7.5823138459528536 1.0201664580893728 19.1373475918033442 -2.0207475266907489 2.1724625490884479 0.1224916683861736
7 1 6.1437533989625193 1.0602928066376642 19.1755841239687896 -1.2082060789138398 0.0088628270059913 0.4953462208375025
6 1 5.4782699383029998 -0.1752161535681246 19.1389300003177425 -2.0684732181338661 0.0607717135695266 0.5265528792917554
57 1 8.2188823694966970 2.2505863980479650 19.2332484292973511 2.9148900851691311 2.2453244068589537 0.4819877440720000
49 1 8.2996183648575936 -0.1571206435683567 19.1092300045307084 0.6062176702233115 -3.8639604456525491 -0.7050091132557945
20 1 3.2765020694548097 6.0052989362112967 19.1759632672609470 1.6876271459619230 0.8852203550234718 1.6711845259942320
19 1 1.8826874690465218 6.0107925568504585 19.2452435386707883 1.7286542738822195 1.0636690772366066 0.4075368869490006
18 1 1.1991203485213944 4.7962317772133654 19.2131304611209863 -1.7174165809248758 -0.8496001785983894 0.5087665058865575
12 1 3.2970274809141138 3.5035219411504159 19.1894827508746815 0.2235817861017038 2.0282210061904218 0.5570213710551498
11 1 1.8907838791674580 3.5641579134259098 19.1842820410650319 -0.8580875017567474 -2.6838295725122303 -1.7728440368564493
21 1 4.0185729056793278 4.7663602813918935 19.2053168543172816 -0.7136494128916923 0.9193590710745655 -0.4390912593119217
16 1 7.5448153215605700 3.4811552923622671 19.3083271107197021 -1.0614935932172958 2.2080617733757375 -0.4703905628378566
24 1 7.5492220576761220 6.0036930871099825 19.3814698593321602 -0.8425048258557140 -1.2554797092750587 1.2891685775463331
15 1 6.1329426638335693 3.5186220509262522 19.3233426405483684 -1.4380459131667505 -1.6435548589176501 -1.7758423955494620
23 1 6.1283172311398806 6.0079244842409683 19.2646532098060561 -0.8235431868283090 -0.8895446642646075 1.3277151185976019
22 1 5.4130514053780479 4.7617142125453409 19.2590225442501044 1.4359838526616240 1.3799421181946001 -0.0870937610454689
65 1 8.2341082784473123 4.7650265782685928 19.3961915244446210 1.7163054138027785 -1.0529871703240303 0.5119555418511569
26 1 1.1907224743746145 7.2458874614789197 19.2332289645829242 -1.0500281263083693 -0.4777576723505385 1.3101930498419128
34 1 1.1964079653100594 9.7040733589827557 19.3243058300746853 -1.8854851247529407 -0.8358383475632568 -0.6604119292113098
28 1 3.3541064009286092 8.5152700489249273 19.2703677192401521 -1.8115762890838865 -1.8726068776569376 -0.2062752276323619
27 1 1.8885437970323413 8.4548190846389026 19.3031945224191297 1.7004055569544643 2.4242807785460592 -0.1051700767901597
37 1 4.0672094808847739 9.7220867757989691 19.2816577635300632 0.3819716245204109 1.4464782382258079 1.2887014851814742
29 1 4.0170798521168232 7.2721201810605081 19.2644670658427195 -1.6972881232702772 -0.7229089507015416 -0.8821977131458550
38 1 5.4682524385881317 9.7192900627925827 19.4058253757555832 1.1998099995613667 -0.9184175366863008 1.1968519371534270
32 1 7.5655648932771555 8.4855218188280066 19.4852154459218418 2.2688804030114267 -0.4589229465158853 1.1045862473819072
31 1 6.1768180456222339 8.4590734127861733 19.5087788993689344 -0.4341755833815188 1.3442775509317324 -0.6556604405988494
30 1 5.4271709420129115 7.2592132731326977 19.3442641753593065 1.6177275899970938 -2.3002282685137776 0.2645897808944071
81 1 8.3669328592491237 9.6974529365825486 19.4463757252464191 -1.4166595989575033 -1.5224051732315438 1.1284590554824137
73 1 8.2905508124345921 7.2337852879563460 19.4876810394676170 -0.6548281612900215 0.5831404194272627 -0.0501627058425455
44 1 3.3467702707478426 13.4248996174095119 19.1900160237949535 -1.2222437565038218 -2.6001782733606236 -1.6355981773300705
43 1 1.8731396810192904 13.3615745235845509 19.1633179836128100 2.8363314451903188 1.8885329141431848 -0.5087576696610812
36 1 3.3573991738110704 10.9531738799250036 19.2807881102756227 -1.8242023181741085 0.1855660651605277 -1.4991774019566138
35 1 1.9035388371709869 10.9167099952336031 19.2783391281360608 1.0039670058493952 1.5279230047178061 0.2325924932114730
42 1 1.1999087622539109 12.1555374487659424 19.2292787968639303 -0.4936191261111058 -1.0407289861873508 1.2527244320006918
45 1 4.0787295302937716 12.2087727485240833 19.2100548010323493 -1.3922958243859849 -1.5822490818682025 0.6472917113476424
40 1 7.6522737578198665 10.9331231485043556 19.4719476950136041 -0.0527932651960739 -1.0490151693295060 -1.0771450085111824
39 1 6.2185946546777453 10.9195997629025801 19.4852038077362231 0.0230989323440453 0.1242223960780905 -0.0583858749198747
48 1 7.6047685307637600 13.3635366869884358 19.2269244659910079 -0.5852049704593041 -0.0243965288807000 -0.3272279526642266
47 1 6.1687839120737227 13.3954846846612750 19.1224712505257628 0.8650564802116262 0.1065384809052490 2.0666643617344111
46 1 5.5265804745910687 12.1079013508068165 19.1865639737171065 -1.8197416071042116 3.8097765965908827 2.2222625340066413
89 1 8.2942486737209276 12.1309505946359000 19.3434546581868787 1.3200196296728892 2.8099293487983088 0.6241701461734593
50 1 9.7065161499430381 -0.1556607730817621 19.1394169247184820 2.1683280449334608 -1.4873360981589128 0.0279747921837173
58 1 9.7287578920632534 2.3127126664698179 19.2090727127416159 -3.2133351329111735 -2.9673249767705006 -1.2387987090202637
52 1 11.8590199781355370 1.0757539949395749 18.9974862584567923 1.2337822854086111 -0.5459763308692508 1.0869205405755740
51 1 10.4288353934119176 1.0539975504923047 19.1214297475881096 0.4011757660398695 1.1048395804748794 0.5865251317593316
53 1 12.6046974432365939 -0.1612767419585270 19.0934665738232709 -2.6089579690686331 -0.9403546836115733 -0.7190054343982255
61 1 12.5859658046214360 2.3082524231623096 19.0308393024887046 0.1272594190231386 -0.3895215458670944 -0.2191429210133156
62 1 14.0443636062720003 2.3498707863477870 19.0409492058053473 -2.1800031801990416 -1.2398063862133406 -1.3629169410176598
56 1 16.1607608842378063 1.0297270938337530 19.0429064170295170 0.1746290834866533 1.5282003729646672 -0.7141251229246693
55 1 14.6977795726934986 1.0588308597721801 19.0301249048362351 3.1836119554496571 1.5410825910050061 0.3259457137774164
54 1 14.0012023387970963 -0.1765845068868069 19.0156550428739131 1.0468999478980254 0.2847253077633183 0.9238080269707901
1 1 16.8706249256044529 -0.1492244015334715 19.0845461034662449 -1.1495048300788973 -2.7264939930429133 0.6359403046374025
9 1 16.8979523813505033 2.3132663281957591 19.0815584946060000 -1.3289475449580519 -1.5347796519538313 0.3350429806022052
68 1 11.8651803389162609 5.9319346392749264 19.2546351473961010 -1.7550438758012823 1.1077940030979043 -0.2747760404674182
67 1 10.4471952453267498 5.9195510763316577 19.4125961975068542 -1.9937148312014765 -0.5657874218912918 0.1584910478694086
66 1 9.6786535444564343 4.6987656264896680 19.4565601176236918 1.1598355021991049 2.4828827564846221 -0.5485937761148402
60 1 11.8445146309765192 3.5281635032327103 19.0616785972464662 0.6539948949789312 -0.2382246196267316 -0.4715115161658323
59 1 10.4310283668745374 3.5208026145227160 19.1787223280346879 -0.0291380846569913 -0.8015273095390035 2.1221478339547688
69 1 12.5330098532841507 4.7262418235520594 19.0562086373111867 1.0248792548428589 -1.1637961717004823 0.5061025391263108
63 1 14.7924906944447248 3.5564665604081087 19.0947220774694166 -0.9670096542728568 -2.3388672258828196 -0.0454139336473326
64 1 16.2045104730402940 3.5320038477464970 19.0365464012794199 -1.0404612465156755 2.6558553160522953 1.0336452795842592
70 1 13.9727937933083677 4.7104965875006659 19.1306421291767421 1.7816502006188910 3.1357557093989401 -0.7294183902912713
71 1 14.6535222258236253 5.9721699609745240 19.2958922546810676 1.5557158070078458 -0.4802631109657357 -1.4509276207073074
72 1 16.1016948080586388 6.0296042650030053 19.2414051918227109 -0.9179380900708458 -1.9035000195415843 -1.4102042169042002
17 1 16.8574740638468583 4.8342449763116875 19.1703611737862971 0.0962397850872567 -0.8577888313756363 -1.5598146454938409
74 1 9.6943776086061675 7.1608083078624496 19.4931775683880737 2.4843969764326386 1.6954612746460227 -0.6971454567107546
75 1 10.4881914276853401 8.4283291743894111 19.5252873520597099 -2.5656110949485713 -2.2328902090155118 -1.3306429701806630
76 1 11.8853864832029377 8.4052273244580533 19.4476280738752401 -0.4582108200232545 -0.7861619780039794 -1.6352715884654314
82 1 9.7608292397321055 9.6591801323335105 19.3672159233491996 0.7677281811220829 0.9255870380970506 1.3714012397865740
77 1 12.5658567133652834 7.1756962327733795 19.4186698530798125 -0.3551796587216103 -0.6381520928156778 -0.0717348344668646
85 1 12.5823011073241897 9.6424098911672900 19.2711092891764686 -0.2684537992675050 1.7207060858881156 1.3993296657979051
86 1 14.0118345606368635 9.6981266400769623 19.2595455553547694 -0.8227892580891633 -2.0661657388418595 0.1088515745882778
79 1 14.7111179123913764 8.4617894930924891 19.3233785058395497 -1.2581568690020215 0.3216084805840683 -0.9321013068803631
80 1 16.1374277050188120 8.5007110974083240 19.3303541697058634 -0.8454974428989982 -2.9007873492921399 0.2687337956643140
78 1 13.9842746811307812 7.2191887038437583 19.3415928963468460 -0.2507991519038058 1.0000279544110851 0.1457462844285408
25 1 16.8252807292285596 7.2346269905413454 19.2025538252342081 -0.7221368802078386 2.3654863795553926 1.4365327661733984
33 1 16.8106750381350984 9.7186445669500845 19.3833139070861193 2.1748626484246785 -0.4456909885724144 -0.1508373109564690
92 1 11.8330311223393316 13.3789335042743005 19.1037141867738711 -0.2899177435461313 1.9506882480288239 0.3603162047651847
91 1 10.4264038124028389 13.3601085151285517 19.0979765011950420 -1.8371049348074289 1.0902921624540345 0.7305107310065166
90 1 9.7423648964101570 12.1241146853693884 19.2288411317696095 -1.3731380449466741 0.0106624109696785 0.6298086275835542
84 1 11.8550477565766919 10.8909229295638621 19.2575088551844935 1.6120864174752008 -1.8253077446243213 -0.6804252293177180
83 1 10.4792439000465816 10.8927657947201215 19.2703359181020062 -1.9281783810913731 0.0426387027485250 1.2156317099049807
93 1 12.5106198089998486 12.1331989437914345 19.1387818184060237 1.9845120937503178 0.2845128210638812 -0.9672610930989791
95 1 14.6877869273551589 13.3728531528793795 19.0490208393462410 0.5319820383642322 -0.2790052408299175 0.1944088655442718
94 1 13.9405589373265304 12.1523170538601128 19.1873180368765901 1.1239755895294756 -0.0386692803531329 -0.5163311193842471
87 1 14.6907059821292520 10.9379828097130414 19.2410369998516586 0.5204121564172799 0.4977184432326142 1.1628608310894191
96 1 16.0969958048993043 13.3538485684235990 19.1595133155329940 0.5420395856763459 2.9291744965026565 0.3944545165808435
88 1 16.1129704671910368 10.9357740776825256 19.3459217320369596 -0.0281535643623504 1.2448340751895239 -0.7589854819346582
41 1 16.8247393310039861 12.1727203223846203 19.2739915453062736 1.6887185039564296 -1.4557104895462154 -1.3799246003885641
