ITEM: TIMESTEP
5750
ITEM: NUMBER OF ATOMS
96
ITEM: BOX BOUNDS pp pp pp
0.0000000000000000e+00 1.7084949165859321e+01
0.0000000000000000e+00 1.4796000000000010e+01
0.0000000000000000e+00 1.9999999999999982e+01
ITEM: ATOMS id type x y z fx fy fz
10 1 1.4952034655601620 1.9534972392223535 19.6563123925649599 -1.6501721645186316 -3.0725474965042943 -0.2915535540867424
4 1 3.5895234596877095 0.7160004122711119 19.6830999947123253 0.9393018309986210 0.6505906598515231 0.0491819495064999
3 1 2.1567509367625441 0.6991279123567806 19.7339174018382018 1.5288882292844379 1.3247418047251656 -1.9725274957650099
13 1 4.3344385921972624 1.9424279731941458 19.6181946046292595 0.0932344896085969 -0.3093508855715121 0.0145595976864403
12 1 3.6146194543940871 3.1744267750904029 19.6531758614354679 1.8533438550825987 0.4027762392850086 -1.0884597575478994
11 1 2.1934073605127509 3.1551216803777358 19.6299598726531599 1.2238747267491523 -0.1019302403217609 0.0272962577761029
14 1 5.7671044361616310 1.9436964886313775 19.7556845036115902 -0.2155716036654258 1.9175176808578165 -1.2211349107376963
8 1 7.9326910675918159 0.6922368759371054 19.7971284039143569 -1.1032809339996035 0.7385090307256843 0.1229607903004637
7 1 6.4680928466414382 0.7438102816503755 19.8222502757442065 1.8950864454734930 -1.8618055271003746 -0.1963951767510217
57 1 8.6245804558951491 1.9306949669690441 19.7092515905982459 -1.8467722833068096 1.1049794220706459 -1.8011582082507049
15 1 6.4708908055417655 3.1751793681150224 19.7622386135605410 0.4772324050509628 -1.0022700816956320 -2.2667188311601816
16 1 7.9036455565350341 3.1893425725472295 19.5945840586307050 -2.0047476826993118 -2.3589918702812382 0.8887231878530208
20 1 3.6080902271555195 5.5968444085515934 19.7330681224647506 1.2991096794405110 0.1944701221124772 -1.1810774728279212
19 1 2.2162539205477625 5.6210126820291313 19.5870666375471494 0.2399354871806105 -1.8641713581597648 -0.2265521927380526
18 1 1.4720164658002637 4.3724107154516840 19.6034248330780549 -1.4874694547612490 1.3672294883994387 1.2299043637446063
21 1 4.3504891322317869 4.4002489001814125 19.7090766261600123 -2.1003117514017049 0.1200637645929010 1.2487119425165831
26 1 1.5267334384230120 6.8623509118505712 19.5988552177121989 -3.0484367955539455 -1.0782792774796965 -0.6292238443569168
29 1 4.2724817718846149 6.8801058759108802 19.8046549270828613 3.9028261716657147 -2.7318449119568493 -1.2639824923930527
65 1 8.6059168171626528 4.4108318084563720 19.6815236953780932 -0.0566994514004743 -0.0150435765349846 -0.9823404006299882
22 1 5.7607643050642547 4.3989431166831050 19.7110459907251041 -1.5893552198575944 -0.1394978594720429 0.3174453108414962
23 1 6.4308398934296216 5.6237020376074485 19.7248847076879450 1.7721910735741397 1.6779640062157020 -0.6107113553156691
24 1 7.8639808508826299 5.6580782252545125 19.7105923447614479 -0.8242498713500961 -2.2656213638655371 1.1906376872263686
30 1 5.7194466719401484 6.8879513321141781 19.8070174892378219 -0.8976959931724526 -0.5182403486925651 -0.5225589505735528
73 1 8.6084559138366128 6.8480604472960467 19.7228472986934591 -1.8654527799466936 1.8144455694082673 0.6899386516042709
34 1 1.4484628000724897 9.3339347745177115 19.4797592193861249 2.3018928001279022 -3.2658472907032987 -1.2933780282120722
28 1 3.6474144990914290 8.0830168846085897 19.7724781715844635 -3.3025045192668223 1.8731822968040608 -1.8255972124702153
27 1 2.2003284376174941 8.0732407552504508 19.4894077034723523 1.1637127842454156 2.5606594006804677 2.1187119980732607
37 1 4.3625187310046467 9.3496704847416829 19.7377889135836391 -0.5686072565336023 -1.0157488395687453 -0.0112402744031344
36 1 3.6319655400804898 10.5694392537836457 19.5644171620166034 -1.2414500839525380 0.7058040752787715 0.9212663963467976
35 1 2.2139172134995140 10.5398322324235192 19.4103922195955434 -0.4364689124101336 1.1268184284328271 1.6856170840382558
38 1 5.7586911276044086 9.3972383684334915 19.8552804314736981 0.9298101928915525 -2.3480592674232672 0.7675352320881794
32 1 7.8937393529525020 8.1255336202300210 19.6961155923748095 1.1356649781093344 -1.4733383197588359 0.1932419869176520
31 1 6.4647575004924498 8.1104499719777365 19.8798549529927762 -1.1849563605754794 -0.2999920525554458 -0.5730672744689131
81 1 8.6281640598792482 9.3128238305139455 19.7870050115764826 -0.8913302834897530 1.9793357736035946 1.2667843481602075
40 1 7.8911821760777023 10.5686454861180668 19.9101811234037562 0.7398992163096660 1.0283382712823339 -0.4739096911742428
39 1 6.4866922041939530 10.6034069966028657 19.8255196997616530 -0.9265298434079441 1.9809425151880498 -0.7443762419604625
44 1 3.6173830316164484 13.0584653379736224 19.6348874362322192 -1.2183077737782240 -0.5334917770475638 -1.2716582554044984
43 1 2.1865097590231115 13.0055394964934603 19.5868733848125878 0.1525328152316482 3.1967135895803107 -0.6161291614025317
42 1 1.4933403178661806 11.7720609275111201 19.5068047310088630 0.1784865424444288 1.1873022091674965 0.5665662450604754
45 1 4.3032141064432068 11.8263481481147554 19.5770092230044916 1.4950537296803930 -1.2264725826099401 1.5767139646373241
2 1 1.4405926731586445 14.2775744185760587 19.6844362409153888 3.9431831153603585 -0.8376117848223825 -1.2648884629486030
5 1 4.3373119314998707 14.3132165162936023 19.7202856805186784 -0.0541465420826996 -1.9133222613425287 0.0354745383461222
89 1 8.5751474748142567 11.8219697056382529 19.9855059528644290 0.4692839098319304 0.4162364898742786 -0.0515781783965774
46 1 5.7345024672566360 11.8703702671433557 19.7249900967080869 1.7048110299514856 -1.0352479683013465 1.2091814249472017
47 1 6.4454222389716787 13.1146847339656922 19.7873222497641557 0.6746376975220069 -2.6450807313671336 1.4115048040072984
48 1 7.8520807933885157 13.0792219251078166 19.9388316272558157 1.1860785259312507 0.3632068426019708 -0.1514971266551047
6 1 5.7422080565735323 14.3402182830319589 19.8127202905665918 1.2852753675348723 -0.2443259723161111 -0.1053555941945946
49 1 8.6088081102354597 14.2868257041537028 19.8746553724731818 -1.4830265704069989 0.7452589434002630 -0.0669814399317015
58 1 10.0034806490051835 1.9691799797227367 19.6858706934296954 3.5317726605080284 -2.4892126928225102 0.3260736855465057
52 1 12.1513672559692196 0.6961336151702664 19.6911526282240459 0.1984396079361356 -0.6407833006179153 -1.0719338907703972
51 1 10.7638019376662903 0.7164761363443612 19.7687671925810804 -2.7824496589582606 -0.9540571657018131 -0.1787446890349473
61 1 12.8482132227528556 1.9197566909701422 19.6556488058260079 0.5419694196085896 -0.9637699718377011 -0.3554877075239639
60 1 12.1492341089549729 3.1596129630975720 19.7003710806839756 -0.3368565678440608 -0.5626627757642929 -0.3346025802577367
59 1 10.7475127403963473 3.1671218717231118 19.7483724347740512 -2.0569446998407059 0.6489211708209648 -0.4346004921988765
62 1 14.2592518390539809 1.8752198519302350 19.6679532683952552 2.6498493494972997 1.4199421815744671 0.4630986240167347
56 1 16.4360249612441756 0.6445581103580850 19.7390952934563479 0.9049676091176659 1.3214416282319079 0.4255520626942656
55 1 15.0252275731708433 0.6434566806273916 19.6985607882749072 -1.2404480585663038 1.6729308150883220 -0.8024262431551652
9 1 17.1119499754257980 1.8698209081514465 19.7336603540763242 0.5407895125457463 1.8018098789622747 -0.6018214297720749
63 1 15.0090559158940078 3.1138967286188222 19.6857774246540664 0.4578986657974549 -0.2296536695260513 -1.1663367969827332
64 1 16.4126633786380935 3.1363189208887787 19.7337559285088275 0.8226544108453372 0.4002302567244009 0.5995814340459804
68 1 12.2048757816123441 5.5815793982009438 19.7785099747918771 -1.7560964775169796 2.4599688841922416 -1.1616709523442041
67 1 10.7676698074158583 5.6328947666537079 19.7333473295113144 0.7004467836356023 -1.1319866905752591 0.7474869529543737
66 1 10.0363352567859341 4.3940292776351271 19.6945444374371945 1.4060103818972158 0.9799797804336291 1.6747197505631077
69 1 12.8840539938636631 4.3966549004106028 19.7262486552796581 0.7628748109555707 -1.5299785399704979 -1.0759677285582341
74 1 10.0261527901973366 6.8111384317591108 19.7150140499103088 -0.4614314267834208 0.6846630507902631 1.0516067393600010
77 1 12.8456208596618193 6.8529337072348699 19.7303666009237197 -0.2752994616137916 -0.6160873860421681 0.1482567224560974
17 1 17.1268889307919032 4.3701913155714314 19.6429375661159078 0.1170156538848907 0.4164113215383170 0.6511610356776505
72 1 16.4119936587982949 5.6491716256825422 19.5845009659789433 0.3699714691519702 -3.6700824141340354 -0.5147486670283131
71 1 14.9818011667116462 5.5888686634675420 19.6038420455586504 1.6008276234936292 0.3990736886083687 0.3493928751972750
70 1 14.3357702377909302 4.3237351962655053 19.6837997591474654 -1.5845174813267038 2.4248240567544559 0.7430756166967751
78 1 14.2797227985025224 6.8070425722879877 19.6649934588461051 -0.9542356611343703 0.3438611693087065 -0.5660453365220709
25 1 17.1550307994176237 6.8461370524749450 19.5566461622286809 -1.1729875060407662 -0.0396944589096241 1.1466250253893975
75 1 10.6884780213964365 8.0708155637085000 19.6644787057613755 1.6419245819005499 0.3187058076070420 1.3520344136448534
76 1 12.0964314233280170 8.0729986716966682 19.6646855564643204 1.2741602290915475 0.8316158003862451 -0.2220939456731087
82 1 10.0185831744812788 9.3207713779452686 19.8261010019485440 0.5034588548088628 -1.3585001423350684 0.0177805170994001
85 1 12.8382258059035799 9.2986853017284599 19.7836220445177631 -0.3944527937668322 1.2533753086362096 -1.3481038095793192
84 1 12.1470466339553695 10.5951439367954272 19.7640658716119688 1.0166360524022171 -1.7301788736778327 -0.4829429813711954
83 1 10.7386173973048873 10.5663491452518734 19.8911973244406397 -0.2563792758214825 -1.1770341619544114 -1.9419492482168135
88 1 16.4600542575848046 10.5107091669382093 19.5783552675159420 -0.7568938845343633 1.5334453865411075 0.8536264697798857
86 1 14.2643112957476692 9.2773433216959980 19.6580693927927292 0.9520237590845728 2.1420971915451608 0.4479050509985670
79 1 14.9585322306035824 8.0657342627157824 19.6588123132183590 -0.7425459871188359 -1.6651092006843409 -1.7394641021480242
80 1 16.3529233145270254 8.0199623280929107 19.5616637067401520 3.0597595764628727 1.2268202353929754 1.5671582831309543
87 1 15.0530534541574124 10.5151871403002399 19.6104119577951472 -2.7391849644347857 0.9346320187872719 0.0151141315462234
33 1 17.1063185920803846 9.2728972412038875 19.5724315508901086 -0.5336246958052822 0.6753980573194838 0.4698090590964101
92 1 12.1863569788007169 13.0617344630168635 19.7084476107824038 -2.1184997709728379 -0.5217873417696217 1.2106593809771837
91 1 10.7244374464470766 13.0365507773802864 19.8706110932633919 2.4356973375884765 -0.6949635515307375 -2.0083224390645071
90 1 10.0331408364596015 11.7703498668535307 19.8773894918242640 -0.5590385638655192 3.5517509239104381 0.0676652085265453
93 1 12.8554050002408964 11.8142157082906305 19.6501160455800985 1.5160144236703541 -1.6342257665760114 1.1465750021872059
50 1 10.0195586068654947 14.2977571816205256 19.8245957423381043 1.4456616280151060 -0.7885602289982234 -0.4241657691764994
53 1 12.9151573102229840 14.2498615432388540 19.7308764791501261 -0.3088065662904642 0.8162045254645629 0.8718511196311673
41 1 17.1578957989217677 11.7649414600656534 19.5260345861006854 1.7388760972097606 -0.4531655824662297 0.6913556936371037
96 1 16.4788312924711136 13.0059884873710843 19.5971464450494395 -1.0102825476923201 -1.5068888874223156 1.2728506489255045
95 1 15.0552728055422342 13.0093379743704300 19.6679362583823014 -0.0824682296397902 -1.8084166810911433 0.2962791601059135
94 1 14.3307084243508704 11.7718564574697542 19.7063147055472676 0.5416941323811625 -0.2992637696659638 0.0452426146786371
54 1 14.3184924827215134 14.2263606956575046 19.7068181205187045 1.4737992080973379 0.3323336944729434 0.6219268578390704
1 1 17.1574546771972827 14.1998595585856471 19.7576701233546643 -0.7136980067762744 0.6539692669501145 0.4191927558599797
