ITEM: TIMESTEP
8770
ITEM: NUMBER OF ATOMS
96
ITEM: BOX BOUNDS pp pp pp
0.0000000000000000e+00 1.7084949165859321e+01
0.0000000000000000e+00 1.4796000000000010e+01
0.0000000000000000e+00 1.9999999999999982e+01
ITEM: ATOMS id type x y z fx fy fz
10 1 1.5331023222722437 2.1477322044023111 0.2917569342650828 1.8141923477399766 1.2807986557556437 -1.1603725611938585
4 1 3.7599670743748619 0.9067065678439149 0.2807224343142442 -0.8549126918695966 1.1345771025393572 -0.9996434824825343
9 1 0.1254413980825142 2.1489577895188123 0.2306122057752661 -0.4290031351818220 -0.9113231149667557 -0.2950211615840442
3 1 2.3119803573015725 0.9512283451112201 0.2329145680326121 -0.2749185136415770 -1.9046386037256315 0.6056994641169957
12 1 3.6769468052606302 3.3756636804535454 0.1041477993740473 -0.9750798958258253 -0.6620192726440709 2.3987015026064400
11 1 2.2314720355000501 3.3591117399302610 0.1097603206093321 1.5084294404182916 0.2090411406294392 -0.4241061625103084
13 1 4.4313634218558668 2.1624648794187227 0.2710154598965382 0.6513297869287498 0.4514992670574919 -1.8790821872546988
16 1 7.9296182847618732 3.3525746958020699 -0.0868894971463720 0.5393496183837641 -1.2001071690307012 -0.8812424958844122
15 1 6.5140161034017652 3.3550980600294271 0.0452859186289192 2.3617803010852318 0.2299253241906674 -0.4376897352203993
7 1 6.5836273860850971 0.8774583115844651 0.1588659395009601 -1.1071795062422860 -0.2209106766776531 -0.2703141653243268
14 1 5.8652182174514467 2.1471494491932828 0.1587123949372486 -2.6376849854205426 -2.8276800959355066 1.3805880293533923
17 1 0.1296509673531474 4.5998629313774932 0.0769061555366016 -2.2774099456675061 0.6672510796607657 1.4429263738725466
18 1 1.5324217091990711 4.6274732938538712 0.1360914687445860 1.0968403126088835 -0.5669047245397516 0.0603213186919301
19 1 2.2729056833113277 5.8275137010788374 0.2239629305280156 -1.4030047476564951 2.0875942108269347 -1.7385769380686518
20 1 3.7014092849240097 5.8439386060183489 0.1579314797367080 -0.9126443837805868 -0.0153954079196782 0.6835785852275327
23 1 6.5137370690058285 5.8321621547865279 -0.0373370041050581 2.2868408262734019 -1.3784828214503988 -1.0277685482771965
22 1 5.8479386201845598 4.5769284203134255 0.0546348623461363 -3.0578588958074397 2.2492961360038959 1.4333737204057804
29 1 4.3950454521523072 7.0633835991050296 0.0404677716838358 -0.0107808486691169 2.6298871206545482 -0.4180612499106543
21 1 4.4345101264195588 4.5915087860500581 0.2136922787276939 -1.2615327600421189 1.7854954993301444 -1.7378217087340013
30 1 5.8084155871622496 7.0814432549811022 -0.0875849804541510 0.8560981946746457 0.2229943327007120 2.1442659001510789
8 1 7.9999342268843741 0.8630909239841822 20.0640808835434328 1.3385077092262154 0.1111303072232308 -0.2851901013947625
25 1 0.1329663144274731 7.0537425948922756 19.9671538641756712 -0.4368348999884843 0.9155056734701684 -0.8906414246261218
26 1 1.5546415229866186 7.0730203033927426 20.0437164601898594 1.0472403852202365 -0.5922200146020240 1.8046539172076796
24 1 7.9629650705981687 5.7578552047418983 19.9665693811746010 -1.9714643492463479 2.6582965612322855 0.9074380267366122
28 1 3.7289217180830314 8.3415591175235537 0.0517303106036641 -1.5982220610900524 -0.5887966570823582 1.0215396643181525
27 1 2.3092366706073153 8.3386072362584844 0.1446104810398822 -1.8437762616010422 -1.6416393097614521 -1.7676981111535539
36 1 3.7326433481722949 10.8370386115102395 0.0437432267595807 -2.0518284928778434 -2.0611625412148804 1.5646890667283817
35 1 2.2696074786124236 10.7680503733059894 0.0859296343767350 0.5769076538478333 0.6812310885635744 0.7649443299472570
37 1 4.4199577256864879 9.5995999285071338 0.0952708000352027 -2.2428188866976742 0.0943115354966730 -0.8066630374310010
39 1 6.5288670906588715 10.7420647948095116 0.2361836313069315 1.0757376989691416 3.1198924256896978 -1.0954561067819872
31 1 6.4941155281766010 8.3112584790170079 -0.0466970122412587 0.8290645869777278 -0.9671515140098437 -0.1662867518664620
38 1 5.8052441111831747 9.5709677041502790 0.0287626062998530 1.1182017122796728 -2.1925386635939583 1.2259156536286935
1 1 0.1151115743822860 14.4876588067888488 0.2245304569511919 2.1378104838351231 -0.9347797276677452 -1.3340125460694470
2 1 1.5700276724980600 14.5222004369902997 0.2348278006421932 -1.4339883847833823 0.2776911225602073 0.4631582063624880
42 1 1.5484805437848506 12.0036630975491931 0.1508099324439250 1.7640121049930908 -0.0076304197373789 -1.1270878469061407
43 1 2.2923720093060185 13.2766674351538132 0.1812100566723859 -2.7396152141441297 0.0315661231622260 1.0912446121414521
44 1 3.6711107062159010 13.2939195084785808 0.1981302724703666 2.6664652364805455 -2.2313200227354577 1.2810957149269870
47 1 6.6138395786498512 13.2436442041352169 0.1923196484181804 -0.2169326257098176 -0.7292448074788309 1.8348848480205580
46 1 5.8439490869298183 12.0310420587287439 0.3172699043226010 0.3829230230391713 -0.5861747817083949 -0.7292151934005865
5 1 4.4249146028576618 14.4838358344812121 0.2894845767829552 0.0019902434409547 0.8620145335866282 0.6717606012331216
45 1 4.4384942885129126 12.0358070031161901 0.2303240880744217 -1.1832997672961829 1.9582921914086786 -0.3029440822734212
6 1 5.8543652047080208 14.4607072668364616 0.2454932794067005 1.5933960329194596 -0.1297170480852357 0.4448242793403552
34 1 1.5795435640596645 9.5552339799130070 20.0753225541642522 -1.4559793392664528 -1.4259551570972366 -0.4726983909636603
33 1 0.1068551351885948 9.5280939742391126 20.0001027349228515 2.1318096839416416 0.7521694676496923 -0.9648088462601171
40 1 7.9607511143067633 10.7525310073677449 20.0888290667336804 -2.1939315344225192 -0.3833901464504395 -0.0612284259203210
32 1 7.9147778443881096 8.2995594609003351 19.9906671912064660 -0.2441466573893267 -2.1810216733195427 0.4657397894543860
41 1 0.1516923045554276 12.0346343363225969 20.0478318101879260 -0.9298937606610952 -1.7119271207837905 2.0619624821931608
48 1 8.0321792295440861 13.2277091753481582 20.2171217001662598 0.0081535989920055 1.2420256318841663 -1.1979983534203296
52 1 12.2225673798780949 0.8517157556908864 -0.1713915871261714 1.2335673949135928 -1.2033688348955001 -0.3632806553906001
51 1 10.8033661752971586 0.8898860071259341 -0.1137320078775630 -0.3376556349856628 -1.0142145436477807 0.1493729318471527
61 1 12.9832820354012188 2.0600138280451969 -0.1080454623334794 -1.3483011582966749 1.3278285750864796 -0.9422577177044749
62 1 14.3614001150600110 2.1834565248417714 0.0820993535879535 1.3527625352282666 -1.8566808290618810 -1.3483307812222667
56 1 16.4746344696325515 0.9017651578591533 0.1373809395932078 -0.1599604257692475 0.7658735222698264 2.0718161887785937
55 1 15.0657884790226912 0.9289170627277636 0.0896425002042312 1.1509636544583610 -0.3249864276190589 -0.0834700169437610
63 1 15.0418939953175421 3.4003105730940795 0.0562209584187642 2.0426377707888861 0.2160463849457408 -0.2387088594168358
64 1 16.4505699647338766 3.3934376213572164 0.1235199715411235 2.1025256851029628 -0.3575947032070093 -0.2134733856400759
72 1 16.4977304275766699 5.8344493807722451 0.0053662930867746 -1.4416951350285512 -0.6694588957728530 -1.3350978635930599
58 1 10.0982695503456217 2.1023899668933130 19.9140555283126730 -0.7126449307338795 1.2970619299624051 -1.3177239400068590
57 1 8.6664051534820192 2.1138659025723903 19.8962134202216099 0.2975379661382140 -0.4532474060674087 1.1119723803347241
60 1 12.2798958429610519 3.3111805618626606 19.8780519042549173 -0.7054610179420013 0.3454322740682136 1.1602925141046783
59 1 10.8616175691664534 3.3269124848136231 19.8787975469938516 0.3905383929304819 -2.7852333115520391 0.2537094927555114
65 1 8.6718915104758310 4.5978721032064609 19.8635169341435613 1.9879429255951964 -4.9032847358907814 0.6593263831115387
73 1 8.6628260323729922 7.0239605662297917 20.0639064919966685 -2.7088653185530687 -0.1479922412719799 -0.3663918125797380
74 1 10.0574180473659904 7.0605542763164824 19.9164972021649547 1.1256173950887864 -2.1094857546035168 0.8278494755347421
68 1 12.2058160079266695 5.8288248817036212 19.7060329028445729 1.8287223038300908 -3.4451728129989507 2.0061223489007745
67 1 10.8035831710067498 5.7933764253339719 19.7505145472868300 -0.6726951782185457 -0.8804631960097965 -0.1539423829321414
66 1 10.1366206009166628 4.5043940873325168 19.8742609580634593 0.2567496936665714 2.1789023937676717 -0.8891319923110579
71 1 15.0767097816570583 5.8474699574033417 19.9692997916078738 -0.1884321837842874 -0.3113337842743952 -0.2355810460936546
70 1 14.3508981643860913 4.5999440806492089 20.0254863901052786 -1.3309888181159226 2.9441651815900167 0.7874357836308470
77 1 12.9141629476528710 6.9974896986533874 19.8780491629574385 1.2860387951730439 2.1751898989299598 -0.5054236089715615
78 1 14.3576891719873601 7.0864089112183901 19.8608665000087505 -0.9737567382181600 -2.2310888583961566 0.2969850260034956
69 1 12.9439854216765085 4.5803770963813610 19.9401640389018660 -0.6110691987769405 -0.3866017972919291 -1.5294674663465839
90 1 10.0657221490688524 11.9463737124668672 -0.0643220678053626 0.4523940730615741 0.1436142854775095 0.8473067009977819
89 1 8.6806993179744083 11.9887119792582748 0.0894617680331343 0.3192880012227328 -0.4129266960379774 -0.3203200918494862
96 1 16.5421178283545594 13.2491006766257780 0.1444967218031231 -0.6651182267347805 0.6485196368216344 0.0389149963767379
75 1 10.7917520570372307 8.2374964469379339 19.8915042276061200 -2.0280624059930750 2.2460866125261547 0.4501609156575930
76 1 12.1977758460078363 8.2352582342284837 19.8338698677350393 0.7305780696609667 0.1281058926450398 -0.5257696944713625
82 1 10.0497774684189167 9.5304957954186715 19.9380606362667052 2.9678034703094864 -2.5788618448857132 -0.0103381881764877
84 1 12.2139918814976074 10.7255199991002179 19.8730565857037114 -0.9102931965115384 0.5874153708601801 -1.2098796638745601
83 1 10.7843396159498148 10.7389157564673834 19.7963662806444454 0.2098778105327427 -1.9373194971451881 2.3304902588423166
81 1 8.6511134292406044 9.5390843514744343 19.9845086637456220 0.4528385264539393 -1.2845544126405846 -0.1671868648963365
85 1 12.9367603617788269 9.4653433796951827 19.8292865634924951 -1.0717231411669457 1.6221106206749680 0.0749527932987219
88 1 16.4876298836843311 10.7789574005557185 20.0074124671630464 0.8968056877183690 1.0596357629018174 -1.5198675383532476
86 1 14.3254259503093149 9.5122605094196988 19.7834650223853536 2.5142919816613691 0.7539096697191678 0.4015277324924011
79 1 15.0440970027424896 8.2906159601905856 19.8262250720502138 -0.3042096151405597 -0.2130449010739832 -1.2092940933334955
80 1 16.4772593511137266 8.2705474745872181 19.8997710601871134 0.7674960598760602 1.0451339576244951 1.3616593680294056
87 1 15.0654098400301386 10.7793517594247792 19.8533608496226925 -1.7379314459591422 0.6269045557133762 1.7543644059730674
92 1 12.2269701046743897 13.2164886658755449 20.0078243790016970 0.3019979682129670 -1.0824694549305627 -0.4788735460738773
91 1 10.7957048559309214 13.1838813224842326 19.9422400704580411 0.1816168804902960 1.1453960321185845 1.4881774786087423
49 1 8.7527222343687630 14.4344059416413444 20.1781388560538062 0.1685592370728555 0.5403457280467895 -1.4630403812931272
50 1 10.1436376515012494 14.4519980737916001 20.0240261958248738 -2.0608091999850142 -0.0660458291934016 0.3505182270774284
54 1 14.4044085515269735 14.4733540316108567 20.0147163599357363 -2.4148755303997218 0.2072284850528349 -0.4390276650860212
93 1 12.9210137422748481 11.9578417305471927 20.0046564428564722 1.2462268508054104 -0.6775787709908326 0.0021003428507707
53 1 12.9444511058865626 14.4000378000525693 19.9235359826392120 0.8527097755174338 1.0138063864071181 1.6157689757202858
94 1 14.3590291806256154 12.0187246419721898 20.0746276862267656 -1.2008752931226467 -2.4798395308524217 0.5404294572570089
95 1 15.0892449160568578 13.2378835383821531 20.2059255701663112 0.2472270769657484 0.9806796431644671 -1.6619795174447123
