ITEM: TIMESTEP
8750
ITEM: NUMBER OF ATOMS
96
ITEM: BOX BOUNDS pp pp pp
0.0000000000000000e+00 1.7084949165859321e+01
0.0000000000000000e+00 1.4796000000000010e+01
0.0000000000000000e+00 1.9999999999999982e+01
ITEM: ATOMS id type x y z fx fy fz
10 1 1.5337861480064687 2.1305908064305221 0.2290467912493331 2.2415857319310861 -1.8531159782962434 1.1880189065850606
4 1 3.6291134303973092 0.9099711590831830 0.2240941705877543 1.3080488855316521 1.0019505867529670 0.4951151274990552
9 1 0.1453366376583639 2.1576986723224656 0.2576338757153454 -1.1696331800972384 0.1253454852392419 -0.8733706045211823
3 1 2.2107101663851565 0.8512688751874538 0.2562813507760311 1.7336918828762349 2.9387302208770194 0.3430602296701125
12 1 3.6729740539194262 3.3414241636466717 0.2251793717263382 -1.4086733562643339 2.5711621276982837 0.5395225920668210
11 1 2.2767833453371829 3.3423763451655377 0.2368840298852048 -1.3494005562470752 0.9642762523233003 -0.1989395448333912
13 1 4.3451219418602012 2.1481924615516368 0.1378444661052687 2.5582244173614428 -1.4886498472649041 1.1672549388682665
16 1 7.9740022622206697 3.3230025008611523 -0.1758644612455727 -2.2785729355977975 2.5302379485421076 2.4400894217615106
15 1 6.5051537381195157 3.3748265567125442 -0.0483041344164971 0.5682879907121117 -1.5772416462433356 -0.2572158891728872
7 1 6.5115849840571745 0.9053133549198465 0.1032713019400911 0.5748003232211553 2.3646416010812690 1.5344046125064752
14 1 5.8101447468259471 2.1611834003545121 0.1066563012701870 -0.3043670412913446 -1.7903737918021603 0.0988835088254472
17 1 0.1571596004365677 4.6005519467843436 0.1094276772574675 -3.1443471266912963 0.7679311884769480 -1.1766402160956282
18 1 1.5359337847482171 4.5931596298725017 0.0610021944442857 1.9046956401376587 -0.1525671999266167 1.2319323925302395
19 1 2.2398777779282431 5.8225354198097676 0.0372072234706288 2.2246198098238654 -0.1680623541857970 2.0334861186040802
20 1 3.6720978757820797 5.8491525753218925 0.1947556674069097 -1.3978959560405917 -2.8264282151855782 -1.2320417019510252
23 1 6.5250153592504416 5.8108860441925723 0.0240079080309784 -0.1214456242677476 0.2958283329015834 0.2522591951010217
22 1 5.7764643946400254 4.5757535696332088 0.0744827541152937 2.0192327069606999 0.1004155956065762 -1.2298154057422199
29 1 4.3802133601749844 7.0469405897658453 0.1265009717798192 0.5405570228541178 -0.4628138425017959 1.4749298422706760
21 1 4.3804683776811322 4.5734106869527835 0.1592836454181213 -0.0596337667198481 0.2165699198041773 0.9011517954627875
30 1 5.8478927295768957 7.0309360050308705 0.0370494307333536 -2.8687926752905168 0.6619666438938241 -0.4865618252453379
8 1 7.9375988095223722 0.9203833619565007 20.0742859223468351 -0.6321207511111393 -0.5382488242546999 -0.1905395052757805
25 1 0.1579957634262917 7.0863307471592236 20.0370265946895998 -1.9028681849867146 0.5829559647243034 0.0976163391411226
26 1 1.5304647723421652 7.0206635735004177 20.0854094734995350 2.4265324484448301 1.7955615386079893 -0.6164355868733212
24 1 7.9587948723525219 5.7974887630897181 19.9945493807678858 0.1042182382238210 1.2811003164507739 -1.9451155691612396
28 1 3.6390009289747760 8.2851302394867297 0.1380887269547230 1.1317685170151823 -1.7973058929956331 0.3714854953621706
27 1 2.2089567902922576 8.3015336310255439 0.0187293862138209 1.6429295751456756 -1.4757768839595746 0.3937062381077983
36 1 3.6822907510866028 10.7323380016207945 0.1553710145216341 -0.3939882117797778 -0.6020631739164423 0.0954030663798487
35 1 2.2779005488345891 10.7922314150204954 0.0234312504561624 -1.4731513244142944 -0.3834560948749925 1.1031294368333235
37 1 4.3988522062179811 9.4624778181917382 0.0418010030921046 0.2883195627329187 1.5526008465001435 0.6459151845776475
39 1 6.5703144031285490 10.7461348214656489 0.1208397084300615 0.3942465204148219 0.5587141165550753 1.0524946997130196
31 1 6.5636026892312067 8.2696644930947336 -0.0516126075371574 0.2549867357667837 -0.7388774541255847 1.2002050065493166
38 1 5.8188871609449571 9.5271792966898232 0.0970514546503265 1.6953541863023329 -1.0028245781004261 -1.6055266695585244
1 1 0.1332775449976057 14.4468983500288566 0.2344645963235440 0.8487948175712823 -0.0688869806773753 -1.3770811456736189
2 1 1.5688307104431567 14.4471901087776970 0.2278520121141750 -2.2290036750253259 -1.6033641792559858 -0.6381486667808129
42 1 1.5486090891854840 12.0365453781554308 0.1000739079520799 2.6171926158159033 -1.5117430107804044 0.1329246412828450
43 1 2.3051366744367487 13.2334396655445445 0.2351472251680719 -2.0817619506729486 1.0171984699664776 -1.0679560724506898
44 1 3.7128789225885637 13.2538321555864478 0.2507667449408985 0.2861227137194989 -2.2979543506934825 -1.3861698828022506
47 1 6.4971906784929159 13.2374300100082589 0.3138372225999725 2.0398086031547291 -0.8170141280485425 -1.2596890669149774
46 1 5.8363252103311449 11.9918181585917711 0.2149074344511122 -0.0678896940727382 -0.0565596751103169 0.6759939971245149
5 1 4.4235496406863408 14.5171522766590844 0.2270077202034624 -1.2392140614550309 -2.9635174203614305 -0.5626192102029003
45 1 4.4113403455861118 11.9673482444651444 0.1667739356105545 -1.0960948828529689 0.0819850178032790 1.6775808273140580
6 1 5.8139368794050448 14.4647519890182767 0.2008684691327919 1.1820839697040464 1.1654371931468366 0.5985726608698675
34 1 1.5543127666996011 9.5366118857700837 19.9658396093022610 -0.7547833250760712 0.3637126350443257 0.4809575496690671
33 1 0.1621635319615926 9.6049077680233967 19.8553256089070480 0.2491600342834586 -2.0945991931963155 1.3390870588804460
40 1 8.0035089796776475 10.7093462784373603 20.0130945211420936 -1.3882361213083863 2.0422508453933390 -0.5847848370910566
32 1 7.9898432546645548 8.2685186927143413 19.9536244955488549 -2.1471464068299380 -0.5713246869982654 -1.8095098955110300
41 1 0.1579690949103194 12.0362137830893356 20.0769902278857550 -1.7837096811653548 -0.1882609555056352 -0.3913367560331922
48 1 7.9437035594930796 13.1949327455522383 20.1537367732915058 0.4775910535635784 1.8622776521380000 -1.1453350170824779
52 1 12.2647820895103870 0.8844750103714898 -0.0842594153374489 0.0832026313539842 -0.4241283759741639 -0.2088610949126439
51 1 10.8235998929204342 0.8228000902595094 -0.1025033426632251 0.6378837835330335 3.0804447341129544 -0.0290968217098680
61 1 12.9434482031009672 2.1559342020235377 -0.0475415272410147 0.3175653676731984 -2.0941246480310207 1.0711430631568317
62 1 14.3821085784733320 2.1283812215041888 0.0457161870320575 -0.9944658684665895 -0.2714659349534328 1.3108895081581171
56 1 16.5008366733726000 0.8824619795094657 0.2527326839248062 1.1165040081698456 1.1432026105293569 1.0513216848290940
55 1 15.1236420395246807 0.8352682103809399 0.1037140915839631 -0.6229964490670032 3.2692139494812995 0.3866508256763859
63 1 15.0716754373277873 3.3713982128836899 0.1356503530093646 2.7321220719251675 -0.5733188097061370 -1.4467960325588114
64 1 16.5314758400161423 3.3852781986791078 0.1725396516261385 -0.1889606293781925 -0.7248995636099371 -0.5491381438606947
72 1 16.5193103362221052 5.8553035830889888 0.0470917545851758 -1.1280450060235658 -0.1758455660645818 -1.3338784402334276
58 1 10.0934803929731682 2.0541244342455247 19.9222146117200580 2.7581612847647170 2.8850760059994012 -0.8040228412521222
57 1 8.6999945025317302 2.1229340465930462 19.9716679381794471 -1.2757363053071735 -1.0790841002029063 -1.1624594921398770
60 1 12.1806637883956608 3.3781955713223724 19.9350863163070109 0.0194378293311721 -1.8218705668424355 0.9476512753190510
59 1 10.7704991498832374 3.3442256819136515 19.8825482720374005 0.9274926152742404 -0.6588676828889753 -0.0357995687307347
65 1 8.6730667005889899 4.6049239299526903 19.9315584790102065 -0.7776070687308776 -3.0523291574031721 -1.0337744817895449
73 1 8.6761745120245379 7.0269954720285730 19.8822367405272971 0.3479958267282024 1.5458057199160895 1.3854253854342198
74 1 10.0745989213998577 7.0309806478446548 19.8646777597448185 0.4283044403414393 -0.3612298971765649 0.2380211206951533
68 1 12.2250256066010472 5.8433701253214192 19.8309567211422255 0.0025772979724649 -1.0569879940672275 -1.4501325096760878
67 1 10.7969143578137121 5.8289250920214890 19.8494108238483520 0.6405379087575900 -0.2845383523036713 1.0386745325961857
66 1 10.0666958891338147 4.5812067414725623 19.8033760154307927 1.6170258224110206 0.1994907330427908 0.1084977589317189
71 1 15.0761005098482919 5.8281113791856090 19.9651134071950587 1.3102577876920545 -1.3993172283139379 -0.7660958997289300
70 1 14.3766276773333797 4.5793656402802281 19.9583745359897371 -1.5492103256605336 1.7896664530909461 -0.4213653029560942
77 1 12.9521802394336198 7.0776341574072257 19.6916562599542857 1.7235354771914300 -0.5575565034652752 0.7502376973335592
78 1 14.4142669658062541 7.0562444169171981 19.8413083137577644 -1.1639074774207769 1.5237490338022202 -0.3017712328804077
69 1 12.9389286877446139 4.5813782771168672 19.9177984741313701 0.4231261392235594 0.8358699012796975 0.6169184601656255
90 1 10.0991188167570449 11.9604779729922690 -0.0954130109287177 0.2940243162599867 1.1640121304690885 0.0432436960193117
89 1 8.6709884584311396 11.9930083319032743 0.0156348813116830 1.1917940077381979 -0.9156731530297050 0.3047949733953778
96 1 16.5245599064816133 13.2171008556904148 0.0813561702155957 -1.1704009941827427 0.9954883062021653 -0.9404492355770239
75 1 10.8349680705688449 8.2294142684633087 19.8613639925005359 -2.0791503900986155 3.3670575601648247 -1.1026504180313306
76 1 12.2668467275059161 8.3509221026557228 19.8262504758889726 -0.0238456350096854 -2.1685179888747532 -0.0945155012174499
82 1 10.0816849643072661 9.4955015180673641 19.8813381379973464 2.5186515355869461 -0.2282939792946843 0.1355365553350406
84 1 12.2377122484971732 10.7633883516547044 19.9631554929009525 -0.1600960866872566 0.6211220715368825 0.1953129745826005
83 1 10.8101201652651380 10.7598783104020903 19.9992615188695844 -1.3563917256244005 -2.2886809256019625 -2.1937374765235167
81 1 8.6832809575045680 9.4702966281607885 19.9371376563854312 0.5037109687909321 2.0616622553068629 -1.0203912591125723
85 1 12.9815324146265691 9.5537347114933144 19.9188056712334074 -2.3899750183323678 -1.3218467721000500 0.1596036409305422
88 1 16.5418539452879294 10.8240158474682424 19.8236399195236217 -1.4655206730428567 -0.5123267638317527 2.1214898793368868
86 1 14.3492755384867223 9.5383160134905687 19.8235373550939080 4.3555779275419875 -0.3003658665584220 -0.4591593769785638
79 1 15.1443720424262285 8.3133190559364412 19.8015485996690970 -1.1021833109044434 0.4984066823883994 0.0031754786165832
80 1 16.5412066736973813 8.3609672220779885 19.9110102903558932 0.2949891786194722 -1.4676676848654480 -0.6984056577088540
87 1 15.1053386551593096 10.7590969186945760 19.8859835043193627 -0.9987737115878976 1.1172972677234996 -0.8667778647375861
92 1 12.2759381536450167 13.2440022069915297 19.9650954663855416 -2.1143508894162806 -1.9060457563203488 -1.2010839195417156
91 1 10.8208287056923318 13.1904428084176857 19.9785357764928087 0.6430693099710202 1.8416197459790831 0.8666910610908971
49 1 8.6138525289911421 14.4703499221559184 20.0773639756217861 0.5894194749320945 -2.1211186216232436 -0.3097825697855700
50 1 10.0768305585485596 14.4288842713128513 19.9886091198263181 1.1390551502329342 -0.0712218200681395 0.4556803885317016
54 1 14.4031807618580405 14.4455777976519126 20.0923338068625448 -2.2264898020943464 -0.0961936822347307 -1.8940694958475501
93 1 12.9475834954922355 11.9849728063095800 19.9949615709023867 -0.4371745467545350 1.3829250287562329 -1.6194670303003482
53 1 12.9601307077315511 14.4462935527396645 19.9783891359357106 1.1216823661789781 0.4783674151569781 1.3888776631771469
94 1 14.3339137332586439 11.9771241084154170 19.9650566372840075 2.5615897383959227 -0.1049627160325962 0.9788818422744985
95 1 15.0418429500821524 13.2092391916667715 19.9553761227550446 3.7539895252140791 0.5261513380092051 2.0598844561479406
