ITEM: TIMESTEP
8900
ITEM: NUMBER OF ATOMS
96
ITEM: BOX BOUNDS pp pp pp
0.0000000000000000e+00 1.7084949165859321e+01
0.0000000000000000e+00 1.4796000000000010e+01
0.0000000000000000e+00 1.9999999999999982e+01
ITEM: ATOMS id type x y z fx fy fz
10 1 1.4877164611652531 2.0516283346712809 0.0149809993685718 2.0078084248560515 3.3024754577871249 0.1061071831587158
4 1 3.6717281692850006 0.8271169868267857 -0.0125168682253456 0.0550540756821574 0.6560805885027003 0.5690222856510676
9 1 0.1190908829861448 2.0860879659144906 -0.0377743160903669 -3.2167927748134484 0.3976923212421282 0.4927674671045873
3 1 2.2467750539266849 0.8285455386637259 0.0337036107254017 -0.9969196200077076 0.6396475906109222 -1.2591468689792253
12 1 3.6272365749346620 3.3186510070287825 0.0213077176689141 1.4456377365347599 1.1674428140851310 -0.8960601605279065
11 1 2.2195104572669289 3.3448931599446547 0.0269402391661858 -1.1873742071622881 -1.6559806462636248 -0.0778997928666010
13 1 4.3411746335332815 2.0793345251914843 0.0374280199930888 1.4934218316092669 0.2735638372817440 -1.7177401999648396
16 1 7.9045016356796305 3.3824076622830002 0.1211021316693215 -0.2797349261867127 -1.4927973352156036 0.0795449385774469
15 1 6.4469193039501551 3.3458274603151850 0.0140645766263242 0.8985009789253020 1.0686746320602913 0.2117275291980415
7 1 6.5035544309943498 0.8685251465865844 0.0454213683117712 -1.8226876457046612 0.2011298283784121 -0.9319891509163826
14 1 5.7897188849414096 2.1192127037759301 0.0265803260240225 -1.5998625161141449 -1.5086640534954900 -0.1132549709791802
17 1 0.0728367132274194 4.5824802174455357 -0.0023507661040671 -0.8103279024529916 -1.0328093467282149 -0.4562822347476047
18 1 1.5119102672677214 4.6032973092544811 0.0218061770896723 0.2229434748133026 -0.8635062196399175 0.1276421713631809
19 1 2.2304611921311732 5.8299969397445741 0.0869791059713338 -1.7226208269955803 0.6456220574636362 -1.0467439070456330
20 1 3.6221299676064262 5.8275297099113867 0.0450539074395187 1.8430848615567972 -1.0938289421494201 -0.3158617196634455
23 1 6.5083328930154183 5.8322165470750971 0.0736228246898411 -0.6518153139037732 -0.6452882825393202 -0.6925573795857491
22 1 5.7484589043661787 4.6175045432707948 0.0585698768014371 -1.0902503619545003 -0.7710354633044627 1.2226158127514912
29 1 4.3509041637578481 7.0190350454585229 0.1012453819932544 -1.0062856470672537 -0.0107871134179347 -0.4375410864187415
21 1 4.3140993174703901 4.5741154785037121 0.0225736358883156 0.3785189855917813 1.4363927006049546 0.3383987487254777
30 1 5.7610260513607328 7.0467978058593852 -0.0034576046862529 1.8107982690157947 0.0075012332074273 -0.1785456316900814
8 1 7.8818392908101913 0.8913076620267548 20.1329474843977110 3.2873896470259356 -0.4482782012942210 -1.2796657120744421
25 1 0.0779732495858449 7.0108581774987355 20.0343109496931007 -2.3453590921069445 3.0143583800363958 0.3804298708151530
26 1 1.4653951252250181 7.0545798400237310 20.0197348317921460 0.5423988791346325 -2.4285633224351351 -0.6066016566486666
24 1 7.9270319865556189 5.7988178324162005 20.0954412062891841 -0.0317799515492206 1.0698858761259165 -0.4814212744531697
28 1 3.5902636651300348 8.2196292343858524 0.0975219350174394 1.3315570297343811 2.3981026461739541 1.5781753183873164
27 1 2.1710961600383589 8.2591943270758232 0.0954212560123603 1.7691687520778077 1.4474491195387489 0.3790812239355571
36 1 3.6347680973799639 10.7123766082802110 0.1483567076906713 -0.9417254902483805 1.8849412401829313 0.4386653238339042
35 1 2.1635851978014800 10.7423550217286508 0.0657729917585461 2.5508332891348990 -2.1600103233903791 0.2412468002373516
37 1 4.3590871281792065 9.4747542938245903 0.1303947103460543 -0.5532397587911499 0.0165271556951165 -0.2027958459825382
39 1 6.4872588974905128 10.7608383202516116 -0.0404841749597199 1.0780530120451588 0.0306541494946967 -1.7962407210140625
31 1 6.4661654936658701 8.2501437808763374 -0.0673241233459454 -0.2184042408753675 1.7108209609376379 -0.8035615970657168
38 1 5.7616265230210084 9.5383305994877396 0.0066581032562141 1.3815216844547342 -2.9042810654128814 1.2040646381814126
1 1 0.1570887873695034 14.4013439619218868 0.0426041465324892 -3.3569838489514532 1.4127882274606256 -1.0706530534082899
2 1 1.5373039073924621 14.3902266110204433 0.0540320292263052 1.0675908363630218 -1.2287056802084051 0.4956766014118296
42 1 1.5030047291411412 11.9444484806640379 0.0481585583208085 0.2905676950674192 0.8155036170854276 -0.0425600505057289
43 1 2.2149069754581316 13.1480694831846776 0.1245430524799899 2.0435184741293089 2.2691004251246154 -1.6059183949079525
44 1 3.6669928852100742 13.1869117309680011 0.1056642616147008 0.0267081445931778 1.1832863521304191 -0.0260381884023033
47 1 6.5329683102974334 13.2095575532902956 -0.0393921464022007 -1.9691445999920416 1.9216288926559255 -0.2576453886380985
46 1 5.8033794133666392 12.0232003626235695 -0.1080142789348826 -1.6404810169144408 -1.3572376988881345 1.4205782386119661
5 1 4.4279696712949725 14.4348617626667739 0.0577464425074760 -3.8738539634874529 -1.3350667071636064 -0.1401333696447987
45 1 4.3682432929850155 11.9882683761226669 0.0533762352170061 0.2983988308556067 -1.9042679158333893 -0.2508466550374541
6 1 5.7822052448523236 14.4217584739803790 0.0008147052309582 2.0912975074207378 1.6928236724795500 -0.4346932002513484
34 1 1.4508811625175850 9.4966837019527901 19.9984691758669477 -0.5528122119941223 -0.3726747486564070 1.4930539698885892
33 1 0.0300355960202741 9.5011498899202014 20.0219095468299244 0.1595864234740710 0.8731381193408323 0.4067833806724179
40 1 7.9161169424742299 10.7244723064063336 19.8999395928900356 0.2901239914983448 0.3003389726113891 -0.8048203815775786
32 1 7.9305701827922253 8.2539044838013425 19.8362195588141468 -1.1439909785796518 -0.0403736893608998 0.6301478125136613
41 1 0.0732521669564274 11.9569239257030748 20.1620821841847935 0.2958479660949196 1.6560360343755773 -2.0695107729961242
48 1 7.9264586658230360 13.2004534890768603 19.9569226315451544 -0.2703919503668991 2.7185783280735571 0.9949364744342947
52 1 12.1756657672293862 0.8813677006814662 0.0489996433075201 2.5267552246547398 -1.3157073049703345 0.0680064332824594
51 1 10.7956865525958481 0.8615489279294291 -0.0218375577209158 -3.3578373018097434 -0.4310937058664932 0.8573079435974558
61 1 12.8593175373194288 2.1051739227447892 -0.0710549878795574 3.4069586665756768 -1.1573236659337105 -0.4922797527581105
62 1 14.3178580214432056 2.0486622826820176 -0.1536767662559622 -0.4481978512938162 1.8729539931514769 0.7868526493143221
56 1 16.4980228544306158 0.8461566662643933 -0.0308411074628554 0.2034582471982767 0.3311224123152391 0.1469157722960202
55 1 15.0251618261911553 0.8366859133413623 -0.0875119979650930 1.3394848508676922 0.1988404185724301 -0.7712739992886016
63 1 15.0153117839987083 3.3021036364883929 -0.1249502447365480 0.9623480481044175 0.7734090685602497 0.4962048121990765
64 1 16.4179172610308619 3.3163330237876019 -0.0299249792535347 2.9858538040361964 0.8813661743746202 -1.5971239741804841
72 1 16.4263815913062210 5.8150583805897167 0.1207784198163572 -0.6191196448993455 -0.4046692428868399 -1.8316201299230008
58 1 10.0327962481828035 2.0803123301031889 19.9849751990696483 1.4695041959463506 0.4897418476630230 0.3061967377285445
57 1 8.5946679040960863 2.1277055285010489 20.0107853457458553 -0.0867513613922877 0.0456480360077265 1.4670748106814711
60 1 12.1832043954829032 3.3263701647287447 19.8725007298838428 0.2513380807863046 -0.3121819021823679 1.7920878867265868
59 1 10.7785674008806609 3.2777075133251961 19.9488241201680339 0.2458010654069429 2.6347566365852386 -0.9217753975488322
65 1 8.6620163303419258 4.5821886450380704 20.0509502032003368 -1.6509433434469643 -1.3901719010684244 -0.4938152770806908
73 1 8.6308053884098470 7.0030438399006973 19.9010969009649479 -0.6275829829634063 0.5667812581701955 0.9783700126739981
74 1 10.0436881951563954 7.0068886605687783 19.9491930112472957 1.4836303095335295 1.4075009943058627 0.9746427540779964
68 1 12.2032762928747740 5.7523268131087875 20.0071524895315349 -1.9642619171519917 1.1989092538350301 -0.0823108660882135
67 1 10.7554258562752629 5.7710008143878317 19.9981050523330239 1.3604130412833610 -0.8937491553042127 0.9349412858978564
66 1 10.0912528226036269 4.5382061923797998 19.9722454586278282 -0.1382884009432259 0.5487302625589916 1.0094672503143425
71 1 15.0080368901082171 5.7940003047798863 20.0249102198222602 -0.7290136717142047 -2.8997226103460942 1.1588397736542697
70 1 14.3430717218334678 4.5331623908036329 19.9764626590863230 -1.8117320639473937 -0.0514451988357949 1.0771258652884741
77 1 12.8505305042500240 6.9818250272749669 20.1018686053097397 -0.7337390427367763 1.5294149458447603 -0.2466417515832779
78 1 14.2626541951314874 6.9538408124279023 20.1155264843079209 1.1377540446155696 4.1765035609041181 0.9146676676329289
69 1 12.9269943410687365 4.5304193100923360 20.0203278867218479 0.2192681291204375 1.4793008547093200 -0.1394581600798819
90 1 10.0255485626739826 12.0147959333872709 0.0766258010400039 2.6220055455276277 -1.7901248298152328 0.1960613357538953
89 1 8.5970071652838680 12.0202607835868580 -0.0308263756100400 2.7620629201731726 -3.2124062825990332 0.0045613161609183
96 1 16.4850689821916916 13.1798594808422393 0.0423496615787436 0.6414250508697821 0.2831175798966996 0.2545079847067968
75 1 10.7579210907351790 8.2794253373252751 19.9641290091335541 -0.3281335846004483 -0.0435136019648922 -0.4825592086644616
76 1 12.1626539118173778 8.2935717541164014 20.0285992081307320 0.6408578474050571 -2.3348220986169292 0.6168596718187591
82 1 10.0548676213283290 9.5510556182082578 19.8709675338488410 -0.6703867467756185 -2.3069105166510093 1.1840467030456259
84 1 12.2100484052228957 10.7452339829382062 20.1234223247373514 -1.1563186141019868 0.8393224197683983 -0.6081522372778218
83 1 10.7626137181373771 10.7598725992841810 20.0885637509439725 -1.0186394006697272 1.6410052272857469 -1.7305617501778197
81 1 8.6235698613415934 9.4794049496520199 19.8137557522314012 1.1851214313265905 2.0530634436228636 1.0292481997964240
85 1 12.9125616039635283 9.4587926828550604 20.0890832177840757 -0.9132006303354652 2.5701274206952407 1.9598259530094224
88 1 16.4294484062452071 10.7817482829438482 20.0262603653574871 0.2408090479277502 -2.4474849201938182 1.8812671894098578
86 1 14.3421474934864950 9.4561079786711808 20.2103843339428622 -0.8058872701167248 1.2143512330868775 -0.8454248752383337
79 1 14.9958848142422561 8.2170519176176970 20.1204936341825800 1.4216461181173097 -0.4469231214841893 -0.1083641210009371
80 1 16.4139068941054020 8.2589991194350247 20.0271680449066594 -0.8255443610686148 -0.0615673654464409 1.2516235572472247
87 1 15.0307228274046807 10.7067969648986363 20.1994355467857503 -0.8075765872881271 1.8296647520490275 0.1939387467928582
92 1 12.2366630726619352 13.2563929421023836 20.1225418500476607 -0.9827112542308556 -0.1152659052840015 0.9373027645006253
91 1 10.8259931562936593 13.2152661859467031 20.1281759308323842 -2.3876165075511855 0.4022148333125541 0.8570387834401946
49 1 8.6194083670991262 14.4089582078879115 20.0449306689111459 1.5670513866499429 4.4649328082581548 1.0162920059823359
50 1 10.0716359295286910 14.4751123698801187 20.0870249210361358 -1.3025387552884844 -2.9453568322044261 0.7973568814966676
54 1 14.3460929330663003 14.4115699022410695 20.0602215646663069 -0.8735339596069852 0.6152310461001873 -0.6907507594420886
93 1 12.9077941871279194 11.9985861565112852 20.1897464365856720 1.0317177115780736 -1.9732205194157260 0.0676559516747905
53 1 12.9531373027137082 14.4729641582590460 20.1237251866947702 -1.1232521690425821 -0.5009435212571869 -0.8610422315939481
94 1 14.3326992718415767 11.9994459655744716 20.1254456989005739 0.3021161542334604 -4.0276510382240254 0.5440756174519407
95 1 15.0401338661103470 13.1769031866638109 20.0717406178379001 2.1164482538925942 2.0317972403343538 0.4941648285522174
