ITEM: TIMESTEP
2040
ITEM: NUMBER OF ATOMS
96
ITEM: BOX BOUNDS pp pp pp
0.0000000000000000e+00 1.7084949165859321e+01
0.0000000000000000e+00 1.4796000000000010e+01
0.0000000000000000e+00 1.9999999999999982e+01
ITEM: ATOMS id type x y z fx fy fz
10 1 1.7479528319524267 2.3756315887523094 19.2069115827692123 -0.9586345964661664 0.1005845147724447 1.0115579673332753
4 1 3.8478683374305596 1.1168747844795848 19.1290529485667236 -0.7950497678943197 -1.0914372615752743 -0.0904731695360307
3 1 2.4327104804008566 1.1340201155670711 19.2543594617801226 -1.0428664692312992 -0.2473284914687086 -1.8742034415230795
2 1 1.7355221308590192 -0.1313799666929765 19.2642625140295287 -2.0642255417206772 1.7898104322279491 -0.6019123158067534
5 1 4.5326104585031626 -0.1588045060781646 19.0583460762695154 -0.1942665459764336 2.2202364741354979 1.1591407944514787
13 1 4.5672842093503840 2.3301467299257448 19.0485315350157123 0.3017218638096266 0.8708954630790796 -0.3189187117738110
14 1 5.9629506926560358 2.3207135436552462 19.0097470409926430 2.9770764398047955 2.0834994887449385 -0.1094948727154814
8 1 8.1064080916244681 1.1033511447656363 18.8761794181061937 -0.4747800488611417 0.3135996525609016 -0.0397763865569378
7 1 6.6758012754479239 1.0904684079639246 18.9135967023140026 -1.1819246018934788 0.4292063805174403 1.3947398316235065
6 1 5.9210656472045198 -0.1308661033583398 19.0638912828200766 1.3590282875516055 -0.8785147550995556 -1.6365859918487407
57 1 8.8358815811089713 2.3720931201355486 19.0335412807693913 -1.0449039280975037 -1.5127107356616145 -1.0092071399923328
49 1 8.8677979701633856 -0.1242600186412234 18.9519450369490379 -2.4649820347121874 2.1607278737143609 0.5187432707713958
20 1 3.8323618035014135 6.0729081531799407 19.0315153242083781 0.0835738740601339 -0.6723432322853509 1.3508542123354632
19 1 2.4157749262208492 6.0531903691123956 19.1797101727865922 1.6978564481546874 -0.2109365599693782 -0.2591082748609961
18 1 1.6860253077155378 4.8332289867311911 19.1551188018130070 2.0591857161858975 -0.7483572302308398 -0.1336385503884536
12 1 3.8674548169773830 3.5954800401360649 19.0147244314821258 0.3953308797721509 -1.7310319365196547 -0.8083215071997574
11 1 2.4283272358530366 3.5741465560836456 19.1032538096587210 0.2780678367447875 0.9094798586434278 0.4924257629567418
21 1 4.5787232901352226 4.8100736514527753 18.9703876310954556 -1.4515729509384780 0.0037493810792020 -0.0982707081374589
16 1 8.1149811697658034 3.6075177325170973 19.1570218152111664 -1.1764135798389537 -0.2903095373017817 -0.0415370217986604
24 1 8.0918224638753102 6.0779523333593950 19.0540635871811510 0.0679163032755772 -0.2474473619157615 -0.1367681076412275
15 1 6.6861110453171504 3.6100495954790168 19.0576493940359306 0.9508590488896507 -2.1042227756418175 -0.6705506098099595
23 1 6.7015513768829420 6.0885068813442107 19.0378655595301147 -1.5473235308006748 -0.9831742161542352 0.4075763036115444
22 1 6.0299097828462349 4.8243031214670866 18.9318860752753793 -2.7214878077547184 1.7530045954832660 0.0657642962252158
65 1 8.7893272380299461 4.8584176514709521 19.0894923292257026 3.1882147193899915 0.0118401589766123 -0.7386000642560964
26 1 1.7767414423615131 7.2983866208972357 19.2404882471075354 -1.3800156969561357 1.3948095766495670 1.6274238152576834
34 1 1.7513333735776211 9.7960659540087534 19.3610033714263849 -2.0968244653135351 -3.2140233028908960 0.4297135203392228
28 1 3.8629272954437095 8.5292497456215806 19.2884741739788197 2.6343432359410857 1.4238917512927391 0.8713784255043580
27 1 2.4766560490239709 8.5542443764091445 19.3367099087104783 -2.2724267465547481 -0.0312075646777938 0.4700460847159005
37 1 4.5882855396475719 9.7835966030408095 19.4390755935428992 -0.3350582194109457 -2.4052509467074961 -0.9407902622022046
29 1 4.5933891136441778 7.2649396566102116 19.1837160126187207 -2.7327543662811205 1.0320528908735422 0.2893198358551204
38 1 5.9883169002238148 9.7421000970083806 19.2939968169415863 -0.2413619936814183 1.8151688284264009 1.4715890574414967
32 1 8.1290898744621760 8.5241344738018334 19.1265577262895263 -1.5931965561518591 0.6604173810269707 0.6740369827289522
31 1 6.6918197754434541 8.5082771096649878 19.2446610539870022 -0.8711874513796969 0.4407854754773651 -1.4042571701721838
30 1 5.9953760428877141 7.2536399273783774 19.2105763761919164 0.3657059278392099 1.3365900497008933 -0.4135397802320138
81 1 8.8103573605477745 9.7506672924510021 19.1583430288070069 0.5480859563209222 1.5648781505621421 -0.8080422251409445
73 1 8.7858882163275656 7.2915419548810769 19.1156727116620750 2.4698628506138167 1.7193609985353875 -0.4360303102808632
44 1 3.8579563583224550 13.4528269161645468 19.2401939097179486 -2.3944634014724846 -1.7404313586918170 0.0253124315649481
43 1 2.4345339780492119 13.4305049618940853 19.2515124743540902 0.3303531251289293 0.6182351533772590 1.3188348475529998
36 1 3.8133480116908784 10.9970534686766666 19.4215456205599288 2.2438865605827729 -1.1772548267940373 -0.8414506261480732
35 1 2.4161242774456606 10.9939127996629331 19.4559527009650886 1.7465890075772263 2.1482443247297756 -0.7267496672926206
42 1 1.7205464252091618 12.2411360522122763 19.4422047548569594 -1.7353173838712943 -1.8008658400825448 0.7831706438196184
45 1 4.5443494428322753 12.2011178641286655 19.2415049559372484 -1.2641313034659301 1.3891969580562196 2.0632144525653939
40 1 8.0781467988031217 11.0163163351111137 19.1720207939979268 0.7295526860771837 -1.2804047681241366 -1.2263271655467058
39 1 6.6788341648800520 10.9863812880048837 19.2751794255584024 1.1352170342644541 0.6017447812478713 0.3076218721214596
48 1 8.1216019320197042 13.4431087028395222 19.0306864150371169 0.0543490941133157 -0.5802689750941681 0.3502488387175530
47 1 6.6519751887076728 13.4473317859405395 19.1288592699668847 2.4055339532804605 -0.5931600416099533 0.6305816971005970
46 1 5.9347063925023793 12.2189962207671563 19.2391304533273697 2.5798627916648540 -1.7555784996949866 -1.5721793385117464
89 1 8.8320345541008098 12.2154191360880677 19.0698335677718731 0.1139163408178783 1.5334167362949112 -0.6097545270461270
50 1 10.2608626830539791 -0.0453476709222250 18.8606078355558253 0.8815631230552291 -2.3982512237437659 1.5703705540377972
58 1 10.2531042280740756 2.3979193556906191 19.0271916109029000 -0.6542765506501264 -0.8673641742106644 1.0168800546731624
52 1 12.3751161702159749 1.1789653235140765 19.0671883562093960 -0.5926444170837426 -1.2218628225815371 -0.7322550669978054
51 1 10.9729973916252028 1.1393274882239466 19.0160391504639854 -1.2295670831291357 0.8433775996982320 0.6658795644615562
53 1 13.1230445492304231 -0.0565162075990040 18.9605762752919773 -0.8960101366135302 -0.2780136839748753 1.6322572223393954
61 1 13.0826009349978705 2.3869491715532725 19.1552388882528639 -0.7247753574591013 1.8208111785435741 0.5888745944522882
62 1 14.4811511732683709 2.3606286078349195 19.1456559413392249 1.7749731010967000 -0.0139149659080133 -0.7163242258678842
56 1 16.6205712883986045 1.1334518245120000 19.2095923621945488 1.2374137011292736 0.7917602147005272 0.5178660935939575
55 1 15.2009092405048438 1.1540200606587967 19.0757319766166837 1.8917855718182599 -0.4113621144090520 -0.4850047218312437
54 1 14.5141983117943401 -0.0550954442885615 19.0815579769117214 -0.1978326838975139 -0.9550187782762837 -0.6372624626502568
1 1 17.3702436668492979 -0.1245329226234856 19.2283324548073260 -0.5080899377626054 1.9640608774403403 1.7154733214439937
9 1 17.3717584370742948 2.3799494595770327 19.2224154894914321 0.2444846848733193 -1.1262724821345702 0.7408499800914486
68 1 12.3980250467759596 6.0917910167156410 19.2545008683674119 -0.4316922014133412 -0.8086544029279950 -0.0994273998717831
67 1 10.9486182059425978 6.1060009613906665 19.2643774753486312 1.4993518024450516 -1.1650097624007578 0.4684467504733271
66 1 10.2503937515057277 4.8890514220198495 19.1789531897749299 -2.4913401991169062 -0.3235427616338726 -0.8551100644852274
60 1 12.3927747838007534 3.6471592601985590 19.2018323104354423 -0.7285660792740009 -1.4006834573179727 1.2963556754924366
59 1 10.9375458465140767 3.6521109970558907 19.1735475441143350 0.4153912823371411 -0.8212442158647481 -0.1896160643211367
69 1 13.1397976929823201 4.8837215046128017 19.2219148743361430 -3.0846657923552363 -1.7585941640138003 0.5917841915022257
63 1 15.1907076738249192 3.6142241543056466 19.2278802217257443 -0.1173474599890210 -2.2206116301060912 -1.0602880067044764
64 1 16.6221900143165477 3.5932862731897450 19.1824792438324785 0.8763480388809812 -0.3833103748029207 1.0494833453214898
70 1 14.5189190986720913 4.8326633458505937 19.2134290665916829 1.2870413434077923 0.5868884346464285 -0.5910785920666048
71 1 15.2534599191674118 6.0589485652896506 19.2319110223562966 1.4280846719971074 0.4844708976290373 -0.4255516671583727
72 1 16.7072195602975562 6.0821582727550974 19.1808007450100462 -2.8339749909649337 -0.6415192365837974 0.9536932606919140
17 1 17.3838538165018015 4.8460462455190108 19.1748135357176750 -2.2957477595881008 -0.5381749531926778 1.2758353915911573
74 1 10.2171330303795127 7.3391832355624720 19.1744750545445122 1.1878781216827792 -1.3857737977144717 0.1573612803325152
75 1 10.9654864632739955 8.5159372474257520 19.1968710505825833 0.6276082265224012 2.4362777171001806 -0.0803037532144322
76 1 12.3926533738101963 8.5502269197006324 19.2389265195046804 -0.5979596248643387 -1.6714659542202466 0.1310076661813380
82 1 10.2456538600358886 9.7745319764989862 19.1317869545095718 -0.2778592258945284 -1.3483188675928728 0.2821002273688962
77 1 13.0711269553392988 7.2954094057812258 19.2706656291121341 1.7108669941249797 0.2236603671181090 -0.1937579213378710
85 1 13.1077745945325788 9.7719504719122625 19.2672474646399827 -0.3362985876656420 -0.0275140137551668 -0.9994401925295262
86 1 14.5341939061853758 9.8225787765791388 19.3273912804458021 0.0644374141604144 -0.7353182578239046 -0.7872578402834254
79 1 15.2041674051662330 8.5662462567324784 19.3513162798885681 1.9325498667022118 0.2541266185677025 0.5611417320970116
80 1 16.6723602316957589 8.5377496525344441 19.3177159305842459 0.9907552463251504 0.9166161563803692 0.3269791921874359
78 1 14.5074347628422249 7.3199337988115101 19.3162798422800535 0.9752258267991956 -1.9637052060314200 -1.1289813635314820
25 1 17.4298514458295593 7.3019999401686402 19.2865635371415500 -0.2885581419026753 0.2001442881675061 0.7307439369409398
33 1 17.4346456504251854 9.7901655840246349 19.2860018858938069 -2.8835889896037661 -1.7449040023119213 1.6341626585978748
92 1 12.3838706973793489 13.4892705589992445 18.9698263096211051 2.5489904946921831 -0.3963623422004797 -0.6672041041688512
91 1 10.9916821956460300 13.4729969187948395 18.8820442891958216 -1.7744563110636877 1.4859361696287219 1.0733668180340570
90 1 10.2522675794353013 12.2518737985752217 18.9753401289295205 -0.6134792861721775 0.2623688177203024 0.8736798240070482
84 1 12.3660890328819448 11.0271720802261051 19.1664962399809085 2.6579659675815179 -1.9898148890692764 0.2674494020157325
83 1 10.9574546138215627 11.0090107309053042 19.0728898333640906 -0.7990064283849729 -0.4199158821209025 0.4604152450758383
93 1 13.1141807606558594 12.2228716626032732 19.0830010578578104 -1.1990837199865934 1.5357832376669007 -0.6957553893471471
95 1 15.2267045388800728 13.5242530025280185 19.2611459325958805 0.3080381318195629 -1.1406007181684854 -0.4328421108021256
94 1 14.4944864562661273 12.3068553738182960 19.1965925353646263 2.3179302109262561 -3.2895801140310272 0.0407364067594430
87 1 15.2350790700998555 11.0465188650962478 19.3602279489071449 -0.2234238704644360 1.6480167196989626 -0.5353198807505021
96 1 16.6376688126993741 13.4449110246048296 19.4255801538984052 1.8019776369889096 1.6056465897248167 -2.4409127540688305
88 1 16.6425262490915316 11.0148235828716121 19.3736173551717776 0.8140431308858544 -1.4607643152730625 -1.3416485120114061
41 1 17.3741285714660805 12.2212721305153984 19.4364478450306279 1.0610741378507615 1.4409108783296833 1.0206714045097796
