ITEM: TIMESTEP
3170
ITEM: NUMBER OF ATOMS
96
ITEM: BOX BOUNDS pp pp pp
0.0000000000000000e+00 1.7084949165859321e+01
0.0000000000000000e+00 1.4796000000000010e+01
0.0000000000000000e+00 1.9999999999999982e+01
ITEM: ATOMS id type x y z fx fy fz
10 1 1.3649212911357498 2.2608484871953016 19.1275773321729048 -1.0549843139609156 2.7441600710304304 0.5116228917896386
4 1 3.4575774351789645 1.0664133401614504 19.1556781848113502 2.5954289887008626 -0.8425220639474317 0.6754939607417778
3 1 2.0682289149622779 1.0956132574089192 19.0950184190610699 0.6284401985755259 -3.1934168773465705 -0.0436119025350850
2 1 1.3742599793881753 -0.1502782072033913 19.1139781894135155 -0.0694161313967458 -0.7476204231181053 1.0458494474063191
5 1 4.2459847293661230 -0.1360569247712916 19.1462296058673935 -1.1857584316182457 -0.7484746336190989 0.4423583061552312
13 1 4.2260148511945914 2.2506761614893303 19.1404880328889426 -1.9626706007895400 2.2887763644996948 0.5212875328700519
14 1 5.6504351382742088 2.2797770380193390 19.2713722696621872 -2.5429417388305491 0.1033705026264502 0.7599755349960217
8 1 7.7633339170684135 0.9755176947935419 19.3259800564128454 -0.2062636848456945 4.6794081734588424 -1.6307651229790929
7 1 6.3103659165363064 1.0649471563967234 19.2417335179366944 1.8660620533610541 -1.8481974369752661 0.9648345351361136
6 1 5.6141040159336022 -0.1750119061992691 19.2276698146441802 1.5348228640803425 -0.9902863554943440 -0.3159226183979044
57 1 8.4687846862969476 2.2722393308710847 19.3154857491827663 -1.3875878429484478 -3.0097675050965371 0.9436136469830408
49 1 8.5068721846018587 -0.1827806998391062 19.2621603099770411 -2.8636106144464604 -0.8067448007597369 -1.4241681424963057
20 1 3.4317439361387083 5.9553003554043462 19.3144138720111336 0.7654520894607392 -0.8899437157185532 0.6319723367331813
19 1 2.0177971505394492 5.9634611618551698 19.2077247012266668 -0.7294384590489162 2.5810198809141829 -0.3786638885525817
18 1 1.3345442736829161 4.7537079077788453 19.1966585901387141 1.4259354788425962 -2.7875780743378971 -0.2067643657055751
12 1 3.5088019628104670 3.5194328094311778 19.2244632758992218 -1.7933880882412492 -3.1700030181232082 -0.1920249232562485
11 1 2.0654840046035821 3.5077583198912308 19.1481034627451834 1.3451859286590038 0.5771648949243716 0.9746488947612952
21 1 4.1595286080920495 4.7233614766057599 19.3454365270519695 0.5793989927072294 1.2272977019101134 0.4992999896411722
16 1 7.7435077321171422 3.4474758271234625 19.4303701330199203 -0.3712732007324523 1.1675984816383040 1.1823676824519849
24 1 7.7507596767230549 5.9205227711173976 19.3337747240893023 1.2619263514591044 0.7153888326462825 0.8683893047857323
15 1 6.3370323975845455 3.4841720500538913 19.4063524028250569 -0.1688479414470644 0.1595862290810075 -1.0542519017206877
23 1 6.3473370809833627 5.9501360561005265 19.3790867078464650 -2.9304778987306959 -0.8382418427128195 0.1472454924577727
22 1 5.5749019042371879 4.7345289911097641 19.3375018805957879 2.3164943074411379 0.6666425046129520 0.9600341234644778
65 1 8.4689149964090902 4.6828079275352872 19.4533553460734829 -0.6606423470887941 -1.0944109462877138 -0.5183417363201976
26 1 1.2783422742179675 7.2199909539678364 19.2127839947823595 1.7506177520533497 -0.8451233875217442 0.8114513591572416
34 1 1.3394668812647312 9.6630198895982158 19.0522070707680946 0.4193468423015887 -1.2781083278176355 0.7855640282468348
28 1 3.4333147320039026 8.3773529845911021 19.2655640888890858 -0.9237648154267026 3.7017325944968213 0.9599754520562789
27 1 1.9942592988872478 8.4121733882425982 19.2228006820758814 1.3884920376231458 -0.5037590400164691 -0.7486254493646050
37 1 4.1947065816526274 9.6449580679716185 19.3005758341118216 -2.0743952981817508 1.5393753345404360 -1.7637046552715629
29 1 4.1416367211466332 7.1877749812408416 19.3104207789509488 0.3718356787996167 -0.3874127400482688 1.2246525510620772
38 1 5.5978496819373564 9.6310634237886514 19.3596542653957577 1.1504581675662986 1.4519281271411324 -1.0415318788142813
32 1 7.7652776805876185 8.3987148243579632 19.2672881165942371 -0.3722761207132417 0.7128155427086708 -0.6102358896870788
31 1 6.3222903076949839 8.4067543164999510 19.2206332088605834 1.3135441654574682 -1.2705081713708060 2.4139947588082808
30 1 5.5989729584266748 7.1922148547272924 19.2782832277517002 -0.4826191503887231 -1.1419285620092783 -0.9022233839876792
81 1 8.4738611594885160 9.6359403563614237 19.1601399365467806 -0.9128848472303824 -1.4670550033097536 2.0946504242058310
73 1 8.4754661250476033 7.1392844243603220 19.2127676371847436 0.3515995514448644 1.3738325592052418 1.1428444923468093
44 1 3.5368177628458937 13.4328379939074800 19.1555021297893369 0.3637552220280145 -0.5188575050946374 1.1590877703264990
43 1 2.1190174797559513 13.4047057278153776 19.1262021427834306 -0.6305451595211096 0.3048403979240110 0.3777028680251905
36 1 3.4924562357481168 10.9795560355538520 19.1559469015220145 0.6723386148841478 -4.3272649133541687 -0.0350976116861083
35 1 2.0471412562921496 10.9044916243588830 19.0719581731347105 0.5144697381754512 1.4209964923846452 -0.2912163950171162
42 1 1.3665954261643325 12.1559269420726164 19.1593934631205194 1.5944522811815069 1.6364653923967944 -0.8729230029373971
45 1 4.2493853824946033 12.1714291185526058 19.2427541074298887 -2.0446964646878034 1.0712971069936932 0.8856961177923381
40 1 7.7780312983213316 10.8576863000051329 19.2826998641547895 -1.9054647749623701 -0.2812222819512143 -0.3858089680167595
39 1 6.3268177335447238 10.8601984508999205 19.2977868296672774 1.4975346903559079 -0.3466542863619988 1.3144393325319583
48 1 7.7627423964760123 13.3698332236474631 19.2429712479499067 0.6305633564917807 -1.9883905752658895 1.0840759105204179
47 1 6.3743991348417994 13.3625711637670044 19.3398208978227331 -0.6725163957881550 2.2026888287562740 0.4444836114852555
46 1 5.6762238120590585 12.1478218825540694 19.3517403537752735 -2.3303536441697883 -0.5154013017689419 -1.6239980986856406
89 1 8.4612640713022955 12.0957200373834581 19.2345988533284817 0.6300247845955683 1.5286443285389999 -0.8814450219674457
50 1 9.8830020533858640 -0.1687204209701043 19.1781748775965966 1.4168586437778843 0.6354747463814516 -0.0803433232181233
58 1 9.8729153200345525 2.2687061735150795 19.3145961535137225 0.8237464845437678 -0.3527371714862121 -0.4029634975525744
52 1 12.0471659364386170 1.0484534641064556 19.0356538259725028 -1.3733793072927725 -1.8223287627445259 -1.3476200853979079
51 1 10.6172619110031317 1.0577925081012081 19.1461037006627777 0.9722058403921895 0.1685441888765129 0.5528201432232087
53 1 12.7778455833229678 -0.1984707467091324 18.9764381683347594 -2.2445345801418597 0.7883002375363999 1.7433622322352229
61 1 12.7325625366082971 2.2817341302376559 19.0262373080028482 -0.2929870507432264 -0.2323833954685486 1.6183164129540322
62 1 14.1752570016671804 2.2856955784141384 19.0365433340790275 -1.0570610362257733 -1.0557739444305920 1.0675296317671117
56 1 16.3164600098539587 1.0927557976862379 19.2311270594313442 0.3926421073999139 -2.5698281713770186 0.8623691859277105
55 1 14.8968300151896074 1.0951063076247400 19.1614850399754637 0.9090501294620539 -2.1115468315210788 -0.5493623058183272
54 1 14.1820777106026341 -0.1492992862638993 19.1720873834269980 0.0595176750484426 -2.9517692024052904 -1.2091887656575917
1 1 17.0399703311474155 -0.1680385538475248 19.2237546446451191 -0.5096025948313221 0.2522603230197081 0.6592599727942325
9 1 17.0451520623856041 2.2985509237412014 19.2088336783758145 -0.8674608076292900 0.5793892385949793 -0.6649493025192368
68 1 12.0156177158643818 5.9427770851299870 19.2038914262708715 2.1567917678299975 -0.7541421042916795 -0.4263002312124584
67 1 10.5705196810073421 5.9163932247346658 19.2008485480228366 1.8107387136819488 -0.3283095210391587 0.2532203018521519
66 1 9.8669811200905002 4.6678526706681982 19.4185675064465642 0.9014978679116346 2.7482081701767713 0.4417973663533803
60 1 12.0197410617450036 3.4858976035082461 19.2148556786873321 -0.9818995130121647 -1.3341776587535006 -0.6116067656177007
59 1 10.6191676031846161 3.4707715922494895 19.4261470967694159 -0.1328077841860256 -0.8552348273661836 -1.0084935346960044
69 1 12.7492681174597031 4.6771406611834969 19.1734368901384613 -0.6835261045154257 3.3742874973209522 0.7917798301500779
63 1 14.8947755418017103 3.4927691789275213 19.1263740656991317 -0.6109325204954985 -0.4263112691936984 -0.5287109835123426
64 1 16.3422094123160448 3.5108422435286912 19.1636561435735544 -1.9056010798657628 -0.1961851072672574 0.7885629168112569
70 1 14.1644917878229002 4.6831986880622791 19.1475856472771362 0.5877715245065915 2.4721348679288955 -1.2388961258949438
71 1 14.8913750534436851 5.9390695249981071 19.1504025515706005 0.3707899340879741 -0.4442010975857493 0.8945114347922967
72 1 16.2968160370161357 5.9677184967525170 19.2067233226418352 -1.3314705179731368 -1.0317218056286663 -1.3422182101773021
17 1 17.0048602055840661 4.7499203409880719 19.1658028089931491 0.1435170093586331 0.7901808721160506 0.4774900058227803
74 1 9.8889821892172449 7.1406248275380806 19.1798190828478816 1.1936286586606204 -0.1180194626205366 -0.4158776064110032
75 1 10.6478950453919090 8.3651318492329683 19.0981807991178023 -2.7675301906010352 0.2336725892964101 0.1924030460789943
76 1 12.0572259300328817 8.3955380824468513 19.0632788161487987 1.0450384048790466 1.4815615122543730 -0.1839229199175121
82 1 9.9035884025230541 9.6269377032258365 19.1380182310486759 1.7798672227267764 -1.8583438375119523 -0.8641763835684715
77 1 12.8132593105803512 7.1663891381303442 19.2721697157443117 -3.1939397892062273 0.9844922698915818 -2.2546602556322015
85 1 12.7608712210568420 9.6811456915147467 19.0242165823539366 -2.0526956048130698 -1.7793957573434152 0.4864924770487045
86 1 14.1732027057982020 9.6442705967288784 19.0772764713539260 -0.3195106967865381 0.6420261451740298 -0.7382778728410371
79 1 14.8664531017655577 8.4227220253397181 19.0397133982949178 -1.1419740469167476 -1.3452163255231062 1.3011228114509523
80 1 16.2443008467231529 8.4529386804370628 19.0823898581251115 1.6037708314947716 -0.9930443566570357 -0.3600648672569094
78 1 14.1764334253238662 7.1522792545428633 19.0474614972386682 1.5580650698492700 -0.3160796008304804 0.3972156177620036
25 1 16.9517250744821446 7.2151939635795017 19.1143592334359944 1.8298372046741909 -0.7344760858462607 0.7443086377709650
33 1 17.0473656864829763 9.6497452990194503 19.0134298009778817 -3.1065201086298120 1.7631092203668248 -0.3845557196295561
92 1 12.0331138168410661 13.3536844228463281 18.9648652801199802 -0.5058052083369932 2.1364358138184554 -0.3081341881679286
91 1 10.5954319292399983 13.3841570013556179 19.1041962278687123 0.0637049259564681 0.3944024950039628 0.7316985918172988
90 1 9.8933231487844484 12.1603425694569527 19.1348167381027778 -1.1608455364630255 -3.3112685720123940 -0.7109591663042336
84 1 12.0260469745591028 10.9187044159247559 18.9928972835880856 1.0742366920722155 -1.6840738057340288 -1.6414611289027279
83 1 10.5907493156346373 10.8655043317429723 19.0316495122763953 -0.4411972804113926 1.6035766075031355 0.3830495868177012
93 1 12.7549888977353749 12.1561658130654155 18.9320330355248601 -1.5532614441752750 -0.9185659289558125 0.5988176196104630
95 1 14.8901118133538475 13.3649347555060913 19.1213227656931615 -0.3655757709028899 1.5465064434315734 0.7520457757146031
94 1 14.1629349169967842 12.0984543467123071 19.0520047599527373 -0.3297018067377485 2.8451917054661604 -1.4969318591138512
87 1 14.8570572029415189 10.8913547856432391 18.9658340799289036 1.5611326829327983 -0.2688999126066148 1.4436821633521646
96 1 16.3274848693049854 13.3867599080923636 19.2002779386014382 -1.1414716774674298 0.3122073871204953 0.0568889094275408
88 1 16.2994852383002531 10.9677839503712793 18.9776340684111453 1.3603014449966457 -2.5267873227240205 1.4122214921535652
41 1 17.0482142447919252 12.1570519797515768 19.1326279702318978 -1.8994852086021996 0.0994099698704850 0.0204810965620108
