32
Lattice="9.86 0 0 4.93 8.53901048131456 0 0 0 30 " PBC="1 1 1" Properties=species:S:1:pos:R:3:force:R:3 Energy="-248.64870062"
C     4.946780438200000e+00   8.022220002058663e+00   2.814006000000000e-01  7.33126210e+00  -1.60030300e-02  -5.62256800e-01
C     1.470845434900000e+00   2.087474680675384e-01   1.523967000000000e-01 -6.21716002e+00   2.01496692e+00  -2.04865850e-01
C     7.417672478400000e+00   7.947704668665362e+00   3.937707000000000e-01  6.18806168e+00   2.34778392e+00   7.61208980e-01
C     3.918853401100000e+00   2.307388356577304e-01   6.180405000000000e-01 -4.77832240e-01  -1.30781288e+00  -5.24765316e+00
C     1.013420058540000e+01   8.018915575783112e+00   1.855383000000000e-01 -1.89620038e+00   1.64055278e+00   3.44301791e+00
C     6.459501983300000e+00   1.044036632655016e-01   2.415258000000000e-01 -2.63577003e+00   4.11899121e+00  -2.37951840e-01
C     1.256649570490000e+01   7.934129947534990e+00   9.358560000000000e-02 -2.16528053e+00   3.00230545e+00  -1.89532230e-01
C     8.759967226599999e+00   1.963383218676880e-01   1.169001000000000e-01  1.38784999e+00  -3.12966600e-02   4.08341400e-01
C     1.503950187700000e+00   1.663893735600897e+00  -2.134296000000013e-01 -2.22444365e+00  -5.58795520e-01   3.32164489e+00
C     2.683185136600000e+00   2.409771092232504e+00  -2.798475000000025e-01  1.46511559e+00  -1.97381359e+00   1.29905100e-02
C     3.998041427500000e+00   1.566554481095604e+00   5.170440000000000e-02 -1.67274179e+00   1.75237549e+00   9.81671900e-01
C     5.292710107900000e+00   2.317723547911772e+00   3.635790000000000e-02 -4.65028810e+00  -1.36059416e+00  -6.26595630e-01
C     6.441014483299999e+00   1.629641544422892e+00   2.802021000000000e-01  3.60876852e+00  -2.40545781e+00  -3.79360480e-01
C     7.793171942999999e+00   2.325196462933344e+00   2.338821000000000e-01 -8.38600594e+00  -4.79729840e-01   3.80978300e-02
C     8.862669726099998e+00   1.591246225359991e+00   1.004616000000000e-01  4.78361121e+00   9.76575050e-01   6.17685870e-01
C     1.008859054250000e+01   2.438768803311641e+00   8.495490000000000e-02  1.41119548e+00  -2.32389699e+00  -4.31504269e+00
C     2.562012934400000e+00   3.825048890614952e+00  -5.517530999999991e-01  4.64342544e+00  -9.98637390e-01   9.13575800e-02
C     3.894522914400000e+00   4.459591127614023e+00  -5.297613000000005e-01 -1.46429270e-01   3.31649080e-01   1.90730360e+00
C     5.100414619800000e+00   3.689725555791475e+00  -2.467727999999987e-01  1.53379575e+00   2.43460192e+00   5.02814130e-01
C     6.301210282800000e+00   4.457685220474886e+00  -1.410750000000149e-02  2.04098279e+00  -3.12017760e+00   9.20571230e-01
C     7.644949274500000e+00   3.661701633467477e+00   1.765131000000000e-01 -6.04685320e-01   6.62093838e+00  -1.92537512e+00
C     8.819556925399999e+00   4.540119973747759e+00  -8.772330000000039e-02 -3.87473590e-01  -2.35856770e-01   1.43036385e+00
C     1.005863956000000e+01   3.866194454173251e+00  -3.425624999999997e-01 -1.74713493e+00  -2.26170347e+00   2.53402145e+00
C     1.124998554690000e+01   4.574686144341113e+00  -5.358017999999980e-01 -1.75618930e-01  -1.66019468e+00   4.21847840e-01
C     3.959019442200000e+00   5.890534594623078e+00  -2.065409999999979e-01 -3.17410359e+00  -7.00067060e-01  -1.68368340e-01
C     5.035088323699999e+00   6.606208104945249e+00   3.336912000000000e-01  1.80484386e+00  -1.65560612e+00  -2.55703162e+00
C     6.359412531699999e+00   5.835204283025718e+00   2.078772000000000e-01 -6.28139023e+00  -5.41297580e-01  -1.11856030e-01
C     7.435284903399999e+00   6.561863401110617e+00   2.641515000000000e-01  7.66224487e+00   1.59957960e+00   1.22540314e+00
C     8.822320535499999e+00   5.977985931162846e+00   1.634937000000000e-01 -1.65564169e+00  -2.11314287e+00  -1.06680863e+00
C     1.010207271210000e+01   6.638761886938782e+00   1.249671000000000e-01 -1.61047845e+00  -1.29945793e+00  -1.57802322e+00
C     1.128064329420000e+01   5.930638398902818e+00  -2.908451999999997e-01 -2.58331400e-01   1.84375915e+00   3.29491880e-01
C     1.250748858420000e+01   6.630167799841185e+00  -2.370422999999988e-01  2.50585279e+00  -3.64053703e+00   2.22887630e-01
