64
Lattice="9.86 0 0 4.93 8.53901048131456 0 0 0 30 " PBC="1 1 1" Properties=species:S:1:pos:R:3:force:R:3 Energy="-512.97496567"
C     9.864854669600000e+00   4.222504818515984e-01   1.332234000000000e-01  3.47411420e-01   1.21276830e-01  -1.08469020e+00
C     1.235501285400000e+00   1.125904395632016e+00  -6.920819999999850e-02  3.47787050e-01   2.15311300e-01   1.51972174e+00
C     1.217492981400000e+00   3.020044778326576e-01   3.563469600000000e+00 -5.36436970e-01  -1.72714639e+00   2.97426480e-01
C     2.442938743000000e+00   9.537755347168049e-01   3.521060400000000e+00 -2.04018290e-01   3.17434700e+00  -5.28804530e-01
C     2.510141446400000e+00   4.528360219294912e-01   7.470059999999999e-02 -1.21947449e+00  -1.06655834e+00  -7.64348670e-01
C     3.743516225600000e+00   1.145021361514430e+00  -8.343569999999900e-02 -5.59216060e-01  -4.59295960e-01   9.97706650e-01
C     3.642219269099999e+00   2.779503414808120e-01   3.519972300000000e+00  1.20655305e+00  -7.78458040e-01  -8.00118130e-01
C     4.872176128600000e+00   1.001202735944611e+00   3.488991900000000e+00  1.17421422e+00  -1.49002622e+00  -2.06656190e-01
C     4.968343124300000e+00   4.460255633409576e-01   5.505510000000000e-02  8.62469660e-01   6.29197040e-01   2.61592040e-01
C     6.242454444200000e+00   1.198442435758568e+00   1.728624000000000e-01 -2.52515695e+00  -6.13829100e-01  -1.51016068e+00
C     6.094534921399999e+00   2.792078815542016e-01   3.427550100000000e+00  2.55633214e+00  -1.49608111e+00   1.86169700e-02
C     7.400270761600000e+00   9.337607772725233e-01   3.448004100000000e+00 -1.46068190e+00   2.48006550e+00   1.00547410e+00
C     7.451676364600000e+00   4.774819970977056e-01   8.196000000000001e-02 -3.00674315e+00  -2.93848233e+00  -8.70599600e-02
C     8.621606086400000e+00   1.140824267083301e+00   2.738040000000000e-02  2.67305237e+00   7.37467440e-01   8.66288420e-01
C     8.645754606799999e+00   2.605289669094112e-01   3.598477500000000e+00 -5.50661610e-01   6.91244740e-01  -1.48547791e+00
C     9.877527234599999e+00   1.025538745032402e+00   3.536423400000000e+00 -1.57135803e+00  -1.95438610e-01   6.04515610e-01
C     1.105103391790000e+01   2.556763241047215e+00  -1.440917999999982e-01  2.30379030e+00  -3.36332100e-01  -1.12476711e+00
C     2.485648614800000e+00   3.243007393310485e+00  -3.325748999999973e-01 -1.66313355e+00   1.38106315e+00   8.40961750e-01
C     2.452649413300000e+00   2.431351989588922e+00   3.339323100000000e+00  3.78549930e-01  -1.82991106e+00   1.91612570e-01
C     3.689973911300000e+00   3.127297738609044e+00   3.174431700000000e+00  2.32166840e-01   4.13983470e-01   2.06962588e+00
C     3.703899337200000e+00   2.547030391512006e+00  -2.009126999999999e-01  3.35467080e-01   6.57036570e-01  -2.98523300e-02
C     4.903222409200000e+00   3.287640630309235e+00  -7.873230000000220e-02  1.97276896e+00   7.37161850e-01   2.07749890e-01
C     4.977728020200000e+00   2.385247737254783e+00   3.434826600000000e+00 -4.80191306e+00   1.05956838e+00  -7.77519530e-01
C     6.138559722800000e+00   3.080538373390878e+00   3.526435200000000e+00  2.05496453e+00   1.23489833e+00  -1.22608800e+00
C     6.171716437800000e+00   2.631051863712272e+00   8.033970000000000e-02  1.51255960e-01  -1.82665403e+00   2.87243250e-01
C     7.438039047899998e+00   3.297160687703282e+00   1.084380000000000e-01 -3.13533469e+00  -2.43373230e-01  -1.92697400e-02
C     7.376421640100000e+00   2.404786103304385e+00   3.503458200000000e+00  1.44738316e+00  -9.68025300e-01   4.22192100e-02
C     8.625766168300000e+00   3.164890049126406e+00   3.459191700000000e+00 -1.37552853e+00  -5.97592790e-01  -4.86639860e-01
C     8.600930504499999e+00   2.550729063901418e+00   4.298430000000000e-02  2.37219293e+00   1.26078937e+00  -3.03929050e-01
C     9.855460012300000e+00   3.278331486474044e+00  -9.616709999999884e-02  4.70467300e-02  -2.22082620e-01   2.19815860e-01
C     9.848312350399999e+00   2.466285508413126e+00   3.474971700000000e+00 -5.79562950e-01  -1.78927969e+00   1.02982970e-01
C     1.106730548150000e+01   3.121697513975841e+00   3.380777100000000e+00  2.05560437e+00   1.68521461e+00  -1.35852921e+00
C     1.236015001260000e+01   4.699318552653525e+00  -3.613212000000026e-01 -1.31827000e-02   2.65333050e-01   1.25607330e-01
C     3.771249743400000e+00   5.455768655891154e+00  -2.325869999999988e-01 -2.37881430e+00  -1.87418359e+00   9.52500100e-02
C     3.658191483100000e+00   4.590585611074663e+00   3.241817100000000e+00  2.93463327e+00  -2.02230781e+00  -5.28056180e-01
C     4.972419741300000e+00   5.218130128985374e+00   3.430303500000000e+00 -4.26039160e+00   1.11346815e+00  -4.25028740e-01
C     4.978818881300000e+00   4.723214546531281e+00  -5.665439999999933e-02 -1.78401227e+00  -2.10607040e-01  -4.07085550e-01
C     6.173486110600000e+00   5.443208796156331e+00   1.191156000000000e-01  4.64407350e-01  -1.70679970e+00  -2.50715200e-01
C     6.128292258299999e+00   4.512010148978332e+00   3.410266500000000e+00  1.71218520e+00  -9.10397210e-01   1.62586885e+00
C     7.334733067100000e+00   5.240506093607585e+00   3.542811300000000e+00  1.80308578e+00  -6.63404870e-01  -1.51259469e+00
C     7.367116758099999e+00   4.695915671587140e+00   1.606671000000000e-01  2.46458802e+00  -3.35034200e-02  -5.69210300e-01
C     8.630952824100000e+00   5.326351840006797e+00   7.075740000000000e-02  6.88887840e-01   3.35134235e+00   1.67453170e-01
C     8.596175864599999e+00   4.585789675838571e+00   3.321900900000000e+00  3.88482010e-01  -1.08750033e+00   1.64821381e+00
C     9.855479535099999e+00   5.269250793806199e+00   3.287655300000000e+00  1.95240880e-01  -5.53044280e-01  -5.39458010e-01
C     9.932529666999999e+00   4.711434042282968e+00  -1.253084999999992e-01 -4.01932881e+00  -1.71192057e+00   2.03079430e-01
C     1.107610296790000e+01   5.428908259135160e+00  -3.198614999999982e-01  3.46058519e+00   6.61536180e-01   5.62936740e-01
C     1.111746951330000e+01   4.533732537738405e+00   3.147408000000000e+00 -1.15613040e+00   1.68038517e+00   1.01996001e+00
C     1.235384681040000e+01   5.337324895424121e+00   3.104440500000000e+00 -1.84175289e+00  -4.15013647e+00   6.60918110e-01
C     1.353775554720000e+01   6.846995818916053e+00  -7.919580000000082e-02  1.81914837e+00   2.68245870e-01   4.89123060e-01
C     4.925555062700000e+00   7.544250512852654e+00   1.709364000000000e-01  1.35488900e-01  -2.24669750e-01  -1.33941823e+00
C     4.906292714600000e+00   6.623712649478725e+00   3.571393500000000e+00  1.64854700e-02   2.30704147e+00  -5.74784370e-01
C     6.112040759799999e+00   7.390793479203534e+00   3.625087200000000e+00  1.30759653e+00  -8.36676000e-01  -1.62276650e-01
C     6.197564772900000e+00   6.826723610305799e+00   1.102731000000000e-01 -2.30839612e+00   1.71328615e+00   1.26800924e+00
C     7.390944828499999e+00   7.542469616826945e+00   2.221368000000000e-01  1.66701570e+00   4.30770840e-01  -9.32307060e-01
C     7.388379749499999e+00   6.624022017828415e+00   3.568162200000000e+00 -1.72982388e+00   3.33166920e+00  -4.59550360e-01
C     8.593532793000000e+00   7.399953275745431e+00   3.387284400000000e+00  7.85013410e-01  -1.32772523e+00   1.66884196e+00
C     8.607246771200000e+00   6.778089761507064e+00   1.507500000000000e-01  1.61796756e+00   1.31886824e+00  -6.20467920e-01
C     9.866785750599998e+00   7.572594818849860e+00   2.784900000000000e-02 -3.97042950e-01  -1.62719890e+00  -6.56614700e-02
C     9.859798362999999e+00   6.683410067205872e+00   3.362640600000000e+00 -4.05076280e-01   1.44654110e-01  -8.32834260e-01
C     1.111243149700000e+01   7.357481603859587e+00   3.317448000000000e+00 -2.82633248e+00   2.58381254e+00   4.19826290e-01
C     1.111483344230000e+01   6.876919500291641e+00  -1.765130999999975e-01 -2.41042079e+00  -1.55689572e+00   3.48814970e-01
C     1.231017539140000e+01   7.531569826119539e+00  -8.068920000000190e-02  1.68026813e+00   2.80200808e+00   2.97355270e-01
C     1.232129766860000e+01   6.691268518550616e+00   3.250214100000000e+00  2.73344650e-01   1.79197818e+00   3.02498420e-01
C     1.351067436700000e+01   7.399369548989018e+00   3.461628300000000e+00  2.83178533e+00  -1.29370503e+00   5.42756240e-01
