64
Lattice="9.86 0 0 4.93 8.53901048131456 0 0 0 30 " PBC="1 1 1" Properties=species:S:1:pos:R:3:force:R:3 Energy="-515.05580512"
C     4.950730206300000e+00   8.507732853122704e+00  -8.258640000000028e-02 -1.49921448e+00  -1.31298581e+00  -2.01980900e-01
C     1.241676702000000e+00   6.378546899444720e-01  -3.076469999999887e-02 -2.40437450e-01   2.21391713e+00  -5.52626020e-01
C     1.231459671400000e+00   8.204604043780144e-01   3.553900500000000e+00  8.76559840e-01  -2.16503752e+00   9.40456400e-02
C     2.497440632500000e+00   1.443211890316196e+00   3.482736300000000e+00 -2.36123960e-01   1.52030932e+00   3.22296040e-01
C     7.406517318100000e+00   8.474578266351799e+00  -6.067709999999948e-02 -6.84805950e-01   1.70185848e+00  -3.45831510e-01
C     3.689577736500000e+00   6.735012161437560e-01  -2.189082000000013e-01 -4.57527980e-01  -8.28569750e-01   1.70395179e+00
C     3.732620580500000e+00   7.424470653415817e-01   3.605822700000000e+00 -4.87840040e-01   1.06323519e+00  -6.63908060e-01
C     4.945724826599999e+00   1.479545123738282e+00   3.530277300000000e+00  4.96793880e-01  -4.30234610e-01   7.19049530e-01
C     9.809366780100000e+00   8.475804639036935e+00  -8.019330000000124e-02  1.46735515e+00  -1.06193158e+00  -7.14064220e-01
C     6.131852063400000e+00   6.059138381231937e-01  -3.301649999999867e-02 -1.60390430e-01   2.29680202e+00  -1.02110174e+00
C     6.174774023800000e+00   7.726407502285473e-01   3.611468100000000e+00  7.11315740e-01  -4.39486320e-01  -2.60173350e-01
C     7.421019553999999e+00   1.476658767415832e+00   3.609477300000000e+00  3.34899700e-02  -4.48872750e-01   7.32629460e-01
C     1.230643470460000e+01   8.477716779653722e+00  -1.686854999999987e-01 -1.80455610e-01   5.40431070e-01   1.00936727e+00
C     8.620388474999999e+00   6.825577760489488e-01  -1.279161000000002e-01 -8.12263500e-02  -1.61803458e+00   3.31254490e-01
C     8.682592848600001e+00   7.284177272932559e-01   3.620079900000000e+00 -2.56282970e+00   8.57491560e-01  -2.83997190e-01
C     9.842630919799999e+00   1.486423467460131e+00   3.559341300000000e+00  1.87194467e+00  -2.05020930e-01  -3.78537170e-01
C     1.106456888780000e+01   2.114446340737931e+00  -1.224170999999998e-01  4.73518700e-02  -1.48629131e+00  -5.53153840e-01
C     2.433302466400000e+00   2.800389151321362e+00  -2.302478999999984e-01  6.62972300e-02   6.92713580e-01   1.98155900e-02
C     2.491443977700000e+00   2.874852652921049e+00   3.373598100000000e+00  4.95559440e-01   2.72748470e-01  -1.60838960e-01
C     3.726110268999999e+00   3.614155654603894e+00   3.347201400000000e+00 -2.06479800e-01  -1.99209370e-01   3.52570340e-01
C     3.677866570800000e+00   2.086511821853659e+00  -2.034314999999971e-01 -1.74213562e+00   2.20417600e-02  -4.06692340e-01
C     4.851958642300000e+00   2.806320945731503e+00  -1.982307000000034e-01  3.06966378e+00  -4.34466790e-01   3.50014920e-01
C     4.974105160400000e+00   2.888574415811885e+00   3.521431200000000e+00 -1.26171367e+00   9.76028650e-01  -2.35115590e-01
C     6.185431402000000e+00   3.599960062021523e+00   3.685283700000000e+00  1.45087590e-01   7.54725080e-01  -8.04908920e-01
C     6.109957686900000e+00   2.067062090732839e+00  -7.988789999999923e-02 -8.33522500e-02  -8.52016200e-02   7.77028000e-03
C     7.345568023899999e+00   2.779820980607871e+00  -6.697889999999873e-02 -2.23695970e-01   9.95637830e-01  -1.83123220e-01
C     7.400778157200000e+00   2.906574820683934e+00   3.715472100000000e+00  2.07990768e+00  -1.04813040e+00  -9.08964210e-01
C     8.691031036600000e+00   3.592149770695886e+00   3.585068100000000e+00 -3.10229871e+00   9.58091830e-01  -1.67177600e-01
C     8.577420468400000e+00   2.075786653910570e+00  -7.873259999999860e-02  1.00262133e+00   1.60532736e+00  -6.64329270e-01
C     9.830944058999998e+00   2.834927911691075e+00  -2.179251000000022e-01 -8.98059300e-02  -2.23041330e+00   1.26851404e+00
C     9.875510519500001e+00   2.892324493044386e+00   3.447346800000000e+00  4.78773100e-01   3.97592000e-02   6.34378910e-01
C     1.111415916620000e+01   3.592858850126146e+00   3.381978600000000e+00  5.87012470e-01  -3.79426300e-02  -2.46290180e-01
C     1.228777573920000e+01   4.243316265638049e+00  -3.239961000000022e-01  1.51828897e+00  -1.53615989e+00   1.37631620e-01
C     3.689008025700000e+00   4.934363098955690e+00  -2.885510999999994e-01 -7.45639570e-01   6.21640280e-01   2.54741830e-01
C     3.691483428000000e+00   5.047748776564895e+00   3.318510000000000e+00  1.49693718e+00  -3.68839590e-01   8.68382870e-01
C     4.985627014100000e+00   5.720688125819066e+00   3.543387000000000e+00 -2.09288361e+00   7.48367120e-01  -3.96205550e-01
C     4.903579686300000e+00   4.214920384017543e+00  -2.325321000000002e-01  1.06951907e+00   1.22508498e+00   7.42384860e-01
C     6.183416313800000e+00   4.972041055748167e+00  -6.434700000000149e-02 -2.57148787e+00  -2.06194279e+00  -1.07199672e+00
C     6.202467362100000e+00   5.039478830305120e+00   3.627456600000000e+00 -7.55359200e-01  -1.02963250e+00   5.22756690e-01
C     7.398059656599999e+00   5.765520748712524e+00   3.714796200000000e+00  1.47981134e+00  -1.24893419e+00  -8.43365250e-01
C     7.381898278500000e+00   4.256497850725920e+00  -9.020789999999934e-02 -3.88969500e-02  -2.32186073e+00   3.82933590e-01
C     8.602536205500000e+00   4.926832887173798e+00  -1.200866999999981e-01  1.26441577e+00   8.02234080e-01  -2.43607900e-02
C     8.631695380699998e+00   5.014278331796334e+00   3.528648900000000e+00  3.95327290e-01   6.07285190e-01   1.34578178e+00
C     9.863998821599999e+00   5.720647223958867e+00   3.520521300000000e+00  5.53869190e-01   2.04987500e-01  -3.31362290e-01
C     9.874725614199999e+00   4.223461529250163e+00  -2.208206999999973e-01 -2.37955929e+00   6.92414010e-01  -2.35379860e-01
C     1.107486090370000e+01   4.927531207450852e+00  -3.341433000000009e-01  3.07542000e-01   2.20269300e-01   2.74860550e-01
C     1.113098259400000e+01   5.020821348576633e+00   3.400152300000000e+00 -2.04584637e+00  -2.05314700e-01  -2.52743170e-01
C     1.230590053910000e+01   5.759747267556683e+00   3.328613100000000e+00  1.89462322e+00   3.08923350e-01   1.09121686e+00
C     1.353215556020000e+01   6.366820788693165e+00  -1.821798000000001e-01 -5.61613530e-01  -4.31521480e-01  -6.81893180e-01
C     4.914992981399999e+00   7.044724462470095e+00  -1.420020000000015e-01 -8.89163580e-01   1.95575342e+00   3.50230950e-01
C     4.966763749500000e+00   7.141303488872353e+00   3.639489000000000e+00  4.69876550e-01   1.04267251e+00  -8.38053150e-01
C     6.207590815300000e+00   7.926530740548420e+00   3.624240000000000e+00 -1.25429739e+00  -1.54722864e+00   7.66475270e-01
C     6.129371139500000e+00   6.358447349626372e+00  -1.014245999999979e-01  1.22519423e+00   8.52161590e-01   7.60249650e-01
C     7.364927147900000e+00   7.095818741748537e+00  -8.091300000000246e-03  6.26045070e-01  -1.90717878e+00  -4.75303470e-01
C     7.429380439600000e+00   7.167036565464776e+00   3.731121900000000e+00 -3.28784670e-01   1.73286806e+00  -5.63428860e-01
C     8.671627838399999e+00   7.890826149077872e+00   3.695697900000000e+00 -3.94991940e-01  -1.70477695e+00  -3.56376260e-01
C     8.600907974399998e+00   6.363245675785398e+00  -5.912190000000095e-02 -4.07694210e-01  -1.04767183e+00  -4.26676670e-01
C     9.834273781000000e+00   7.023377619390933e+00  -1.508366999999993e-01 -2.34483600e-02   1.52253816e+00   2.29785700e-02
C     9.873942039999999e+00   7.142071060524399e+00   3.595983900000000e+00  1.00038591e+00   6.74410270e-01   1.41407990e-01
C     1.113038187350000e+01   7.875174911378975e+00   3.586800900000000e+00 -1.90341060e+00   5.84847820e-01   1.81814930e-01
C     1.107995906600000e+01   6.331084175933317e+00  -3.142275000000012e-01 -1.68050539e+00   9.75231400e-01   1.03250755e+00
C     1.225223389020000e+01   7.071143136213957e+00  -2.012546999999998e-01  3.06170762e+00  -6.44583200e-01  -4.94487600e-01
C     1.233105872350000e+01   7.188888491013830e+00   3.563513700000000e+00  6.40843030e-01  -1.62656764e+00  -1.09963635e+00
C     1.357745392850000e+01   7.847112307337503e+00   3.585006600000000e+00  9.98528400e-01   4.69025570e-01   4.07235670e-01
