64
Lattice="9.86 0 0 4.93 8.53901048131456 0 0 0 30 " PBC="1 1 1" Properties=species:S:1:pos:R:3:force:R:3 Energy="-515.65197423"
C     9.842045679500000e+00   5.585914105539768e-01  -1.534215000000003e-01  7.51867700e-02  -1.32599440e-01   3.40208900e-02
C     1.207879481400000e+00   1.295537474564133e+00  -2.012183999999984e-01  1.77086380e-01  -6.68819500e-01   1.24009740e+00
C     1.266391383600000e+00   1.345326224530288e-01   3.388593300000000e+00 -3.60590050e-01   1.81630898e+00   2.39650720e-01
C     2.490151085200000e+00   8.742156954923392e-01   3.412442700000000e+00  4.14874570e-01  -2.74527648e+00  -1.41812190e-01
C     2.428828195600000e+00   5.461392277413072e-01  -9.923489999999902e-02  1.13020571e+00   1.30240065e+00  -9.30195100e-02
C     3.691465532100000e+00   1.274244341860890e+00  -2.180639999999912e-02 -1.84070316e+00  -9.82391900e-02  -2.43071020e-01
C     3.730064917800000e+00   1.421415639115472e-01   3.347754300000000e+00 -2.63997630e-01   8.07815900e-02   3.06853830e-01
C     4.941436712600000e+00   8.470969936693264e-01   3.409710600000000e+00  7.74457620e-01   8.16966270e-01   3.58298860e-01
C     4.909416855600000e+00   5.576021661898688e-01  -5.705729999999676e-02 -1.60452486e+00  -7.18737650e-01   2.39627390e-01
C     6.099701955800000e+00   1.293495967938574e+00  -1.030866000000010e-01  1.29802347e+00  -4.04213090e-01   5.95934230e-01
C     6.174975808699999e+00   1.200541324534552e-01   3.437355900000000e+00  1.69529050e-01   2.34050676e+00  -6.51333750e-01
C     7.421920758000000e+00   8.450339687373584e-01   3.396228600000000e+00  4.93734580e-01  -5.21943120e-01   1.24430480e-01
C     7.339265018900000e+00   5.459996149199592e-01  -5.744999999999933e-02  9.58567550e-01   1.55711299e+00  -3.03497930e-01
C     8.628781109800000e+00   1.258085033038434e+00  -1.374180000000003e-01 -2.16111717e+00   1.08922444e+00   6.00798140e-01
C     8.662179345500000e+00   1.548714353450264e-01   3.408456900000000e+00  6.21034200e-02  -2.23405160e-01   3.60679500e-02
C     9.893457937999999e+00   8.847265342723808e-01   3.432843300000000e+00 -2.51286260e-01  -8.50764650e-01  -1.83553310e-01
C     1.106144430310000e+01   2.723083696253721e+00  -5.318790000000106e-02 -1.95878350e-01  -1.21046720e+00  -7.83794760e-01
C     2.420491368400000e+00   3.417620593934747e+00  -1.659989999999922e-02  8.65400500e-02  -4.77214600e-02   6.01984880e-01
C     2.506580458100000e+00   2.236952023100194e+00   3.532917600000000e+00  4.37793130e-01   2.83775805e+00  -4.41361010e-01
C     3.745424382100000e+00   2.988425761810289e+00   3.533614500000000e+00 -5.07706960e-01   7.59216640e-01   1.30796860e-01
C     3.613632072500000e+00   2.694137646187988e+00   2.697990000000000e-02  2.50808714e+00   2.18237020e-01  -4.99756650e-01
C     4.876478293100000e+00   3.445173846001087e+00   4.695000000000000e-04 -1.21636626e+00  -1.80793248e+00  -1.81633400e-01
C     4.959001513800000e+00   2.294908934321203e+00   3.499863000000000e+00  1.35738573e+00  -1.08320978e+00  -4.02276410e-01
C     6.246761785200000e+00   2.970760513099579e+00   3.468665400000000e+00 -1.50029474e+00   1.34893600e-01  -5.28672600e-01
C     6.077185610500000e+00   2.729903291583468e+00  -6.653279999999739e-02  1.57454623e+00  -7.12598850e-01   1.83517600e-01
C     7.338259446800000e+00   3.435999789311690e+00  -3.308129999999920e-02  5.30350030e-01  -2.16388693e+00  -1.78949350e-01
C     7.482714313500001e+00   2.254110652319126e+00   3.378729900000000e+00 -2.07360729e+00   1.17552668e+00   1.02821913e+00
C     8.641066719099999e+00   3.044557630321407e+00   3.504394800000000e+00  1.80517638e+00  -1.97394618e+00  -1.11542581e+00
C     8.604241393899999e+00   2.723993613210470e+00  -6.375390000000181e-02 -8.94875000e-01  -1.51286598e+00  -3.94643160e-01
C     9.836219799899999e+00   3.417557149086881e+00  -5.089079999999768e-02 -3.74984000e-01  -1.65730140e-01   3.33520300e-01
C     9.879262939699998e+00   2.304230032771066e+00   3.471084000000000e+00  1.00364131e+00   3.03109560e-01   2.85123190e-01
C     1.115750244440000e+01   2.975211045361755e+00   3.506343000000000e+00 -1.60689621e+00   5.05155550e-01  -9.71119000e-03
C     1.233905508490000e+01   4.831748785336273e+00   4.075500000000000e-02 -2.18515880e+00   7.88111300e-02  -8.70707470e-01
C     3.673437705300000e+00   5.513763309538484e+00  -7.876770000000022e-02  4.66826700e-01   2.31728680e+00   6.43955110e-01
C     3.752759482600000e+00   4.445402707800454e+00   3.541348800000000e+00 -1.79375367e+00  -1.14774588e+00  -1.43297260e-01
C     4.957565109000000e+00   5.135172190540392e+00   3.452856600000000e+00  1.52512156e+00   8.63810000e-03   1.67105810e-01
C     4.886660764400000e+00   4.833334735752723e+00  -5.094150000000042e-02  1.47361260e+00   5.76873830e-01  -4.05951500e-02
C     6.143973898100000e+00   5.536730515246330e+00  -6.208529999999968e-02 -7.37057650e-01   3.74786040e-01   1.57686060e-01
C     6.219203479599999e+00   4.389628794608657e+00   3.415756500000000e+00 -3.76684460e-01   8.67549530e-01   4.31829850e-01
C     7.445875529399999e+00   5.122391682774767e+00   3.407437200000000e+00 -1.39064775e+00   1.87356476e+00  -4.40313480e-01
C     7.368651713600000e+00   4.818188068183090e+00  -2.794500000000255e-03 -9.00008920e-01   5.62488400e-01  -2.30421100e-01
C     8.589509863699998e+00   5.496843943393202e+00   1.043580000000000e-02  1.04108729e+00   4.89590740e-01   2.10715910e-01
C     8.658692208600000e+00   4.447757937671049e+00   3.446542500000000e+00  8.14256040e-01  -1.30912700e-02   7.70186070e-01
C     9.909671376900000e+00   5.146402440953374e+00   3.543654900000000e+00 -4.99852940e-01  -6.90040810e-01  -9.44962850e-01
C     9.838960781299999e+00   4.818201815989962e+00   2.259000000000000e-02  8.61113160e-01   9.70476940e-01  -3.14972260e-01
C     1.110390520990000e+01   5.557862687602025e+00  -7.824000000020703e-04 -1.78159615e+00  -7.23152540e-01   5.29858020e-01
C     1.112355638710000e+01   4.409666351210920e+00   3.489982800000000e+00  6.99352600e-01   1.77834910e-01   9.90546580e-01
C     1.234272039200000e+01   5.150716092877555e+00   3.552019800000000e+00  8.40080370e-01   3.08821800e-02  -5.28838380e-01
C     1.353539023180000e+01   6.959207297194152e+00  -8.137229999999818e-02 -1.90671644e+00  -2.41189900e-01   6.53198160e-01
C     4.889269326000000e+00   7.659120270483282e+00  -7.019760000000019e-02  7.07297010e-01   7.47814340e-01  -7.58267230e-01
C     4.955881464700000e+00   6.569325556978985e+00   3.441118200000000e+00  7.80335700e-01  -9.85212430e-01  -2.59183750e-01
C     6.205410522799999e+00   7.271274828097280e+00   3.389105700000000e+00 -1.02184346e+00   1.26875690e-01  -3.02474080e-01
C     6.131100336999999e+00   6.961663970509249e+00  -8.622330000000034e-02  4.91680280e-01  -7.95953900e-02   1.07168900e-01
C     7.382439000900000e+00   7.683776236293758e+00  -7.440420000000003e-02 -1.23654651e+00  -1.64117548e+00   1.04022270e-01
C     7.419191066300000e+00   6.592842674961743e+00   3.331750800000000e+00  1.47110628e+00  -2.49987798e+00   5.24770600e-01
C     8.689848132400000e+00   7.252298926667995e+00   3.338234700000000e+00 -1.62081149e+00   8.83984900e-01   3.72820570e-01
C     8.589861323399999e+00   6.899406899000615e+00   6.489000000000000e-03 -1.55633459e+00   1.72933031e+00  -3.45581710e-01
C     9.754138356499999e+00   7.637207547179610e+00  -9.560099999998073e-03  2.81188033e+00   1.60204792e+00  -1.18735460e-01
C     9.908153676400000e+00   6.561164226932515e+00   3.480184200000000e+00 -7.79531490e-01  -7.57817490e-01  -5.01324470e-01
C     1.109935905970000e+01   7.277758242584430e+00   3.430227000000000e+00  1.36542719e+00  -5.82927170e-01   5.73141080e-01
C     1.100855891130000e+01   6.978903805717844e+00   4.500600000000000e-03  1.14934016e+00  -9.85835870e-01   9.68924700e-02
C     1.224706508100000e+01   7.679994906282899e+00   1.734960000000000e-02  1.38336327e+00  -3.06994970e-01  -9.02587590e-01
C     1.233798926820000e+01   6.587786983026850e+00   3.486066300000000e+00  6.63658950e-01  -1.35703400e+00  -1.30219950e-01
C     1.359791614000000e+01   7.263101628826242e+00   3.427014600000000e+00 -7.84798220e-01   7.78260500e-01   3.24670360e-01
