64
Lattice="9.86 0 0 4.93 8.53901048131456 0 0 0 30 " PBC="1 1 1" Properties=species:S:1:pos:R:3:force:R:3 Energy="-515.8022373"
C     9.882239427200000e+00   3.366057437590848e-01  -1.340274000000008e-01  7.67517660e-01  -4.44802820e-01  -4.31101120e-01
C     1.273380053000000e+00   1.048496216268301e+00  -1.324592999999972e-01 -6.93130150e-01  -9.29075930e-01   2.40334400e-02
C     1.193993643400000e+00   3.609952070524800e-01   3.653060700000000e+00 -5.52956210e-01   8.73130160e-01  -4.67057490e-01
C     2.399186324100000e+00   1.092925114746265e+00   3.664971900000000e+00  6.60744840e-01  -8.58617400e-01   2.62773760e-01
C     2.496583601300000e+00   3.338526813902280e-01  -1.481403000000014e-01  1.42111025e+00   6.19914840e-01  -8.71031150e-01
C     3.765557023100000e+00   1.045348651615268e+00  -3.128741999999995e-01 -1.07229574e+00  -1.12532076e+00   1.40025185e+00
C     3.631223890100000e+00   3.875217284987048e-01   3.703503600000000e+00  3.18866700e-02  -1.12034180e+00  -8.05331630e-01
C     4.848946757399999e+00   1.067732557517226e+00   3.583456800000000e+00  1.40486725e+00   7.84843030e-01   2.38606840e-01
C     5.017392236599999e+00   3.704784613113584e-01  -1.981557000000009e-01 -1.31977486e+00  -8.83341210e-01  -3.37092510e-01
C     6.242198774400000e+00   1.078604084099942e+00  -1.577709000000027e-01 -9.22241960e-01  -3.82081840e-01  -6.11624520e-01
C     6.094199286999999e+00   3.356119737194224e-01   3.569761800000000e+00  7.76111060e-01   2.62321327e+00   4.94321800e-02
C     7.350835087999999e+00   1.082195250347411e+00   3.597543300000000e+00  7.05812010e-01  -5.82023940e-01   3.38291860e-01
C     7.440211403099999e+00   3.340497617521064e-01  -2.033282999999990e-01  1.21649650e-01   7.83284300e-01   3.88262520e-01
C     8.669284510799999e+00   1.021636758803461e+00  -1.949387999999992e-01 -1.87469290e-01   1.90733806e+00   3.48270250e-01
C     8.628134688199999e+00   3.818223659538288e-01   3.634870200000000e+00 -1.62500372e+00   1.05365700e-02  -6.20177770e-01
C     9.842262944600000e+00   1.125702362644059e+00   3.610324500000000e+00 -6.33190730e-01  -1.61737646e+00   1.46883240e-01
C     1.110823636280000e+01   2.446093310331070e+00  -1.660211999999994e-01  7.21806490e-01   1.07573398e+00  -4.62359870e-01
C     2.492459705600000e+00   3.152479707465088e+00  -2.340153000000029e-01 -1.03574790e-01   6.78299520e-01   8.60151600e-02
C     2.423563892300000e+00   2.490385413861145e+00   3.633262800000000e+00  3.79835980e-01   1.75749720e+00  -4.70361140e-01
C     3.679190620900000e+00   3.226124317959743e+00   3.554047800000000e+00 -1.14988125e+00  -6.56900340e-01   4.99517520e-01
C     3.717314064400000e+00   2.426242160327586e+00  -2.969070000000009e-01  1.11860060e+00   2.27247092e+00   5.46219390e-01
C     4.976553694200000e+00   3.166703308001833e+00  -1.967901000000012e-01 -1.42336238e+00   7.95083710e-01  -4.69044930e-01
C     4.886346624800000e+00   2.515414534429597e+00   3.552282900000000e+00  6.10857550e-01  -1.10270366e+00   1.70837800e-01
C     6.139139490800000e+00   3.213421429799381e+00   3.588368700000000e+00 -5.20770550e-01  -1.93283322e+00  -2.29635250e-01
C     6.202004681600000e+00   2.496787536968525e+00  -1.883465999999991e-01  7.53774750e-01  -5.26163130e-01   4.20508630e-01
C     7.439750349500001e+00   3.206016656081439e+00  -1.584396000000012e-01 -2.81827520e-01  -1.47106228e+00  -3.39827000e-01
C     7.384126638499999e+00   2.514691707192465e+00   3.641290200000000e+00 -1.63122607e+00  -6.54031370e-01  -6.91037750e-01
C     8.565226211999999e+00   3.259201968246224e+00   3.566816400000000e+00  1.67168916e+00  -1.29338201e+00  -8.46254000e-02
C     8.667607028999999e+00   2.479368980270583e+00  -1.889900999999981e-01 -5.33811120e-01  -9.43307820e-01   5.78624300e-02
C     9.882894081899998e+00   3.171017813827063e+00  -2.140430999999978e-01  8.30921860e-01   7.15327440e-01   5.55819110e-01
C     9.805755801600000e+00   2.522825370844979e+00   3.564414600000000e+00  1.00605367e+00   1.49929165e+00   2.95422270e-01
C     1.107041315630000e+01   3.237691773896580e+00   3.593049300000000e+00 -8.05456850e-01  -9.52126990e-01  -1.82440310e-01
C     1.236734899580000e+01   4.602626555142616e+00  -2.146404000000004e-01  2.26176600e-02  -4.32324220e-01  -9.83133400e-02
C     3.726443044000000e+00   5.334498824515661e+00  -1.841046000000013e-01  1.44736840e-01  -4.89260720e-01  -1.46139940e-01
C     3.689773654700000e+00   4.648851549084942e+00   3.588916800000000e+00 -1.82919406e+00  -9.08477150e-01  -2.48687380e-01
C     4.887966721400000e+00   5.311026280167608e+00   3.593990400000000e+00  1.31659595e+00   1.72063174e+00  -1.69295710e-01
C     4.957396650900000e+00   4.609159837450969e+00  -1.775681999999996e-01  3.52233510e-01   2.26730220e-01   1.04486380e-01
C     6.193202955399999e+00   5.344848959118469e+00  -1.681097999999999e-01  4.08888190e-01  -8.80882680e-01  -5.43323720e-01
C     6.124161312700000e+00   4.583816225126538e+00   3.562847400000000e+00 -7.62145980e-01   1.84261146e+00   5.92471810e-01
C     7.321084953699999e+00   5.297719342405890e+00   3.641650800000000e+00  1.07885210e+00   2.89497020e+00  -7.40752770e-01
C     7.432688913300000e+00   4.582317628787298e+00  -1.967346000000028e-01 -1.22279290e-01   2.30919339e+00   8.82125900e-02
C     8.681459688099999e+00   5.283424355741531e+00  -2.509425000000007e-01 -5.30455990e-01   1.32261828e+00   3.30630900e-01
C     8.570534096499999e+00   4.665401859197279e+00   3.513316800000000e+00  1.27721116e+00  -1.07674900e-02   1.00491865e+00
C     9.855588882499999e+00   5.367334820805558e+00   3.553051800000000e+00 -1.51692359e+00   1.16089440e-01  -1.54060160e-01
C     9.913739711500000e+00   4.617020508938437e+00  -2.032503000000005e-01  2.60178570e-01  -1.09569694e+00  -6.30642200e-01
C     1.115147630820000e+01   5.329553371206064e+00  -2.444039999999994e-01 -6.95851980e-01   2.54273940e-01   3.11791450e-01
C     1.108229386470000e+01   4.649576511074695e+00   3.572420700000000e+00 -2.30630510e-01   3.47611220e-01  -1.70023910e-01
C     1.231166992090000e+01   5.363939881018919e+00   3.580892400000000e+00 -1.24879290e-01   4.53198620e-01   4.05145240e-01
C     1.357983265350000e+01   6.767413692874234e+00  -1.805430000000001e-01 -6.00808090e-01  -1.30305458e+00  -1.49673690e-01
C     4.926952964200000e+00   7.449413273808106e+00  -1.911887999999990e-01  2.12171396e+00   9.24224330e-01   1.62213470e-01
C     4.865551934099999e+00   6.757849830356425e+00   3.606053700000000e+00  1.60691637e+00  -7.88631700e-01  -3.66199250e-01
C     6.102991005300000e+00   7.481802850630108e+00   3.585869100000000e+00  2.83903800e-02  -2.12012120e-01   1.01257217e+00
C     6.203626355799999e+00   6.775059779028341e+00  -2.371011000000003e-01 -9.13655220e-01  -1.02534184e+00   9.77922640e-01
C     7.436824000100000e+00   7.471671314695588e+00  -1.734069000000034e-01  3.66209320e-01  -1.25194391e+00  -5.20368510e-01
C     7.321046795499999e+00   6.765912364051641e+00   3.683385300000000e+00  1.06603169e+00  -7.42681060e-01  -5.72994580e-01
C     8.585843964999999e+00   7.486492560575829e+00   3.672589200000000e+00 -9.20511700e-01  -5.84388700e-02   1.24858000e-02
C     8.683274618300000e+00   6.716000481554364e+00  -2.486403000000017e-01 -9.47781470e-01   1.17508014e+00   5.10078060e-01
C     9.889960694599999e+00   7.471916128126050e+00  -1.983746999999987e-01  8.93938130e-01  -2.89519080e-01  -4.63216410e-01
C     9.837623568100000e+00   6.800959024764705e+00   3.587813100000000e+00 -1.07865449e+00  -1.38402968e+00   4.53900600e-02
C     1.105203406700000e+01   7.489914312855374e+00   3.560414100000000e+00  5.70946360e-01  -2.34083260e-01   5.29640880e-01
C     1.113306675150000e+01   6.774188373008857e+00  -2.508395999999991e-01 -4.65495830e-01  -1.17845064e+00   6.16849760e-01
C     1.234839181470000e+01   7.475565957375515e+00  -1.953347999999977e-01  3.46066740e-01  -4.85935730e-01  -2.17666950e-01
C     1.229136965990000e+01   6.797437707622962e+00   3.632944200000000e+00  2.58012310e-01  -1.00649366e+00  -8.81758900e-01
C     1.353856727170000e+01   7.476881477330065e+00   3.593251200000000e+00 -9.55831530e-01   1.23001430e+00   5.40914370e-01
