64
Lattice="9.86 0 0 4.93 8.53901048131456 0 0 0 30 " PBC="1 1 1" Properties=species:S:1:pos:R:3:force:R:3 Energy="-514.94088885"
C     9.837228083499999e+00   8.748053995560880e-02  -2.130027000000005e-01 -1.41794321e+00  -4.49502990e-01   4.37441910e-01
C     1.182857266400000e+00   8.065614570197184e-01  -1.096415999999998e-01  9.56384160e-01  -1.16369099e+00  -1.27909114e+00
C     1.296812589500000e+00   6.062812717441480e-01   3.387876300000000e+00 -1.27089730e+00   1.59495502e+00   4.50820050e-01
C     2.488417253500000e+00   1.387427901092033e+00   3.544635300000000e+00  5.92834030e-01  -2.71142938e+00   6.71892600e-02
C     2.399160786700000e+00   6.914540587274320e-02  -3.114966000000017e-01  2.05059446e+00   6.81660130e-01   9.98475110e-01
C     3.676925285900000e+00   7.796428242122520e-01  -2.211335999999982e-01 -1.50802606e+00   7.66066850e-01   5.28571860e-01
C     3.716908226800000e+00   6.327931060923472e-01   3.513382800000000e+00  7.65830160e-01   3.63945850e-01  -2.36220100e-02
C     4.963065608600000e+00   1.356032435870112e+00   3.490398900000000e+00 -1.27810060e-01  -1.64582070e+00   4.05485600e-02
C     4.904580624200000e+00   6.211856875864640e-02  -1.969536000000005e-01 -8.84233880e-01   1.12577134e+00  -4.84914630e-01
C     6.109455517100000e+00   8.005488835704360e-01  -1.962474000000007e-01  8.85030880e-01  -2.37838820e-01   7.45942000e-02
C     6.211226246600000e+00   6.227027281883407e-01   3.398582400000000e+00 -1.75204990e+00  -1.25584440e-01   5.34936800e-01
C     7.409429321199999e+00   1.328829368623557e+00   3.318726300000000e+00  1.70246789e+00  -2.45891410e-01   1.10193060e-01
C     7.338804261100000e+00   6.451896999467920e-02  -2.140293000000000e-01  8.28282870e-01   2.95575600e-01   8.67008860e-01
C     8.578224551400000e+00   7.765449566002128e-01  -1.889307000000002e-01  3.63306550e-01   4.15275800e-01  -1.86251880e-01
C     8.665333806000000e+00   6.666108324171296e-01   3.322820700000000e+00  8.61019700e-02  -1.78184485e+00   8.99975700e-01
C     9.911645841900000e+00   1.337975075798161e+00   3.430926600000000e+00 -1.09278930e-01   8.36836770e-01  -3.86289240e-01
C     1.106908836670000e+01   2.208143621883399e+00   1.561620000000000e-02 -7.24775930e-01   4.76443220e-01   3.94943270e-01
C     2.418865158600000e+00   2.908155220743573e+00   1.693995000000000e-01  1.22297984e+00   9.28063340e-01  -9.42372290e-01
C     2.498474108400000e+00   2.757559865676616e+00   3.806628300000000e+00 -2.89474290e-01   1.02946457e+00  -1.28306440e-01
C     3.750452439800000e+00   3.465459546247899e+00   3.820890300000000e+00 -1.90577940e-01   3.79751130e-01  -1.06607549e+00
C     3.660384593600000e+00   2.231033891106821e+00  -2.062349999999924e-02  2.24119600e-02  -1.46318537e+00   8.09806600e-02
C     4.882952073300000e+00   2.956624778980673e+00  -5.500560000000121e-02  2.36783130e-01  -1.08417146e+00  -1.97018690e-01
C     4.950075354399999e+00   2.750224001773248e+00   3.564558000000000e+00  1.65781097e+00   9.48406530e-01  -3.40808800e-02
C     6.237425745600000e+00   3.438386613521059e+00   3.392198700000000e+00 -2.12031489e+00   1.66551749e+00   4.11603800e-01
C     6.135990453299999e+00   2.238044674881215e+00  -1.603776000000003e-01 -1.81792650e+00  -9.77775050e-01  -2.92519780e-01
C     7.336261071299999e+00   2.926790159484391e+00  -2.233601999999983e-01  1.72394465e+00  -2.54986890e-01   2.39570660e-01
C     7.453415865800000e+00   2.719073349981789e+00   3.325399500000000e+00 -6.20815420e-01   2.61633105e+00  -3.65235360e-01
C     8.662393208899999e+00   3.511769930295026e+00   3.363488700000000e+00  6.95763390e-01  -1.65518360e+00   9.64368980e-01
C     8.591568385200000e+00   2.198453979741219e+00  -1.747164000000012e-01 -5.59567100e-02   6.98656790e-01   1.50006330e-01
C     9.840465466600000e+00   2.926749428404402e+00  -3.010049999999964e-02 -1.26884953e+00  -7.76963530e-01  -7.28111100e-02
C     9.887799629100000e+00   2.795723692165404e+00   3.559844700000000e+00  3.19393360e-01  -1.33259373e+00  -2.34422170e-01
C     1.110561074340000e+01   3.457698098062208e+00   3.842357100000000e+00  2.49393360e-01   1.43661158e+00  -3.38877870e-01
C     1.231271123550000e+01   4.353775795135967e+00   2.078274000000000e-01 -8.67414850e-01  -1.89606650e-01   1.46252220e-01
C     3.677270287300000e+00   5.084610916296112e+00   1.445529000000000e-01 -6.84635710e-01  -1.15938620e+00  -1.12701890e-01
C     3.757057358000000e+00   4.900059075984072e+00   3.729453900000000e+00 -1.14222715e+00  -4.57341420e-01   6.36700500e-01
C     4.948449884100000e+00   5.629359480790646e+00   3.521504700000000e+00  1.07683197e+00  -2.94049860e-01  -2.68126000e-01
C     4.855595552600001e+00   4.356137770824840e+00  -5.658629999999931e-02  2.42306162e+00   9.67163320e-01  -1.66171400e-02
C     6.130732213899999e+00   5.065460819053034e+00  -2.506878000000015e-01 -1.50461467e+00   2.08676950e-01   3.93710180e-01
C     6.189174060799999e+00   4.915413753848997e+00   3.373635900000000e+00  8.89219370e-01  -1.36204187e+00  -2.94993940e-01
C     7.446672217400000e+00   5.621119079507131e+00   3.242952600000000e+00 -8.24296400e-01  -4.20311820e-01   1.13920061e+00
C     7.334643439699999e+00   4.340182373572646e+00  -2.642328000000020e-01  7.19304260e-01   3.19268780e-01   4.07633150e-01
C     8.576207737699999e+00   5.042865231081278e+00  -1.614627000000013e-01  3.45343900e-01   1.41311250e-01  -3.21657320e-01
C     8.689236713800000e+00   4.917529208305313e+00   3.430179600000000e+00 -1.28084239e+00   2.67128230e-01  -5.74094740e-01
C     9.889790264500000e+00   5.639682119779708e+00   3.627779700000000e+00  7.74006410e-01  -1.39029165e+00   3.80637560e-01
C     9.798061205500000e+00   4.336641416706800e+00   1.565490000000000e-02  1.45961732e+00   5.78760160e-01  -8.40712000e-03
C     1.107661864590000e+01   5.064219076149032e+00   1.364877000000000e-01 -1.68010108e+00  -3.87776360e-01  -6.81263370e-01
C     1.110826840780000e+01   4.916576937856584e+00   3.912973500000000e+00  7.12085800e-02  -8.64415780e-01  -1.40369766e+00
C     1.236021987070000e+01   5.582914607328458e+00   3.811425900000000e+00  3.58349710e-01   2.08576547e+00  -3.49411400e-02
C     1.354624372540000e+01   6.481567328402566e+00   1.086903000000000e-01  2.60753900e-01   1.25668178e+00  -1.65363490e+00
C     4.894607480700000e+00   7.193847777520403e+00  -2.127192000000022e-01  7.82959490e-01   2.45870230e-01   9.13940040e-01
C     4.957178695600000e+00   7.057792734888896e+00   3.434705100000000e+00 -3.21368000e-01  -8.44256560e-01  -1.28198680e-01
C     6.194290759899999e+00   7.723633092390415e+00   3.281421300000000e+00 -3.77023500e-02   1.19659492e+00   6.06937030e-01
C     6.146304506300000e+00   6.505206810405503e+00  -3.046812000000010e-01 -6.41228540e-01  -1.42838481e+00   1.46160890e-01
C     7.394700946199999e+00   7.173186873153100e+00  -3.668084999999977e-01 -1.71152163e+00   1.32439341e+00   2.15362150e-01
C     7.408262833899999e+00   7.030687610092547e+00   3.297339300000000e+00  2.04233925e+00  -3.22429700e-02   2.50836930e-01
C     8.674787228899998e+00   7.740155052987957e+00   3.477515400000000e+00 -1.62514674e+00   5.73729420e-01  -1.07730386e+00
C     8.599268847999999e+00   6.467432875135232e+00  -2.597022000000031e-01  4.10254400e-02  -2.20081370e-01  -3.03958800e-02
C     9.806671302600002e+00   7.198950092452518e+00  -2.055047999999999e-01  1.18933964e+00  -1.24108502e+00   2.86601610e-01
C     9.900491371800001e+00   7.033910147257593e+00   3.522625200000000e+00 -3.94313460e-01   5.60757200e-01   5.71151300e-01
C     1.111936263330000e+01   7.737382607065311e+00   3.561201600000000e+00  9.15735460e-01   8.75468310e-01  -4.20942080e-01
C     1.102931997940000e+01   6.470844551382411e+00  -5.650020000000211e-02  2.11636017e+00   6.70083640e-01   8.55072110e-01
C     1.233084313460000e+01   7.193151250435551e+00  -5.772300000000286e-03 -2.76352538e+00  -2.36498780e-01  -4.66314430e-01
C     1.236632981690000e+01   7.062059080695018e+00   3.649309500000000e+00 -2.59701820e-01  -1.87192523e+00   1.00429600e-02
C     1.358932950970000e+01   7.766180078348692e+00   3.505310700000000e+00  9.20827500e-02   6.58264860e-01  -6.78213080e-01
