64
Lattice="9.86 0 0 4.93 8.53901048131456 0 0 0 30 " PBC="1 1 1" Properties=species:S:1:pos:R:3:force:R:3 Energy="-513.09277708"
C     4.942261008599999e+00   8.506441669348023e+00  -6.953010000000148e-02 -1.58098434e+00  -8.89124400e-02  -5.74624170e-01
C     1.219869093500000e+00   6.451974704463288e-01  -1.176594000000009e-01  1.29155459e+00   2.48181528e+00  -2.70428950e-01
C     1.198927981800000e+00   7.656134861639264e-01   3.657775800000000e+00  1.46210158e+00  -2.14771636e+00  -2.30503540e-01
C     2.468731615600000e+00   1.401073496009387e+00   3.468156600000000e+00  1.41503470e-01   1.37894455e+00   3.31115030e-01
C     7.438194441499999e+00   8.505656165773967e+00  -1.555470000000270e-02 -2.82135900e+00   2.21344066e+00  -6.22850900e-01
C     3.676468767900000e+00   7.294083378990408e-01  -1.088765999999985e-01  9.84002720e-01  -8.90803070e-01   9.03880410e-01
C     3.708506372900000e+00   6.658622173683481e-01   3.596974200000000e+00 -5.39346770e-01   1.87179691e+00  -2.47935270e-01
C     4.949815001099999e+00   1.391164059737452e+00   3.622250100000000e+00 -1.16195417e+00   3.00294310e-01  -3.94217050e-01
C     9.824230039899998e+00   8.530831901152361e+00  -1.334759999999946e-02  1.24198559e+00  -5.49186320e-01  -1.07328141e+00
C     6.142647037900000e+00   6.888512829430232e-01  -6.607380000000163e-02 -8.04895300e-01   1.62652114e+00  -5.73872260e-01
C     6.186991106100000e+00   7.607543622502825e-01   3.686294100000000e+00  6.96075030e-01  -2.87091937e+00  -5.37241860e-01
C     7.446846443599998e+00   1.399193035121481e+00   3.727852500000000e+00 -8.48356760e-01   1.07307462e+00   3.10212270e-01
C     7.376219904499998e+00   1.959967614484880e-02  -1.960068000000028e-01  2.13451560e-01   4.68568430e-01   1.18057683e+00
C     8.633519480700000e+00   7.455467261458216e-01  -1.057352999999992e-01 -1.96489790e-01  -2.65990675e+00  -7.00065800e-02
C     8.681134505299999e+00   7.078147174170072e-01   3.754165800000000e+00 -2.63394809e+00  -1.44621851e+00  -3.78615340e-01
C     9.806241455900000e+00   1.443905599527591e+00   3.719514300000000e+00  4.52321377e+00   2.02873847e+00  -1.22911619e+00
C     1.104021498360000e+01   2.130025765358691e+00  -3.342543000000013e-01  1.09400188e+00  -1.25579871e+00   1.22964540e-01
C     2.408293513100000e+00   2.855040953145982e+00  -4.535535000000017e-01  4.72221430e-01  -9.82914470e-01   1.01222526e+00
C     2.512698390900000e+00   2.855309419635473e+00   3.270090000000000e+00 -1.23962583e+00  -1.57706842e+00   8.16439800e-01
C     3.735487572700000e+00   3.555011137805327e+00   3.337758300000000e+00 -2.71716360e-01  -1.13895756e+00  -3.16300830e-01
C     3.658576910500000e+00   2.144376511761484e+00  -2.096801999999975e-01 -2.31595006e+00   6.76315300e-02  -1.09565861e+00
C     4.813373800100000e+00   2.871958099148539e+00  -2.124032999999983e-01  4.87997572e+00  -8.21511580e-01   2.92400970e-01
C     4.945612718400000e+00   2.775232884886862e+00   3.511944300000000e+00  6.02215040e-01   2.72873572e+00   5.17524690e-01
C     6.205349735900000e+00   3.485992023897583e+00   3.681257400000000e+00 -1.11888970e+00   1.45925075e+00  -5.24886300e-01
C     6.130165411799999e+00   2.133571845630826e+00  -1.148823000000014e-01 -1.56606373e+00   1.54281520e-01   2.64987830e-01
C     7.353692269499999e+00   2.828358936318916e+00  -9.483209999999787e-02  3.76153780e-01   2.21001689e+00   2.73905170e-01
C     7.424313040500000e+00   2.822049119914825e+00   3.757752299999999e+00  1.95373798e+00  -4.89561700e-02  -1.52171190e-01
C     8.687092903300000e+00   3.575201457305077e+00   3.690914700000000e+00 -2.05630231e+00   1.04771569e+00  -6.66061790e-01
C     8.609517972899999e+00   2.126381913416561e+00  -6.871350000000120e-02 -2.69367180e-01   1.71990559e+00  -1.22594614e+00
C     9.831167930299999e+00   2.865158485103314e+00  -3.192561000000005e-01 -3.84148220e-01  -1.39042269e+00   1.48878945e+00
C     9.887108689599998e+00   2.893730953460547e+00   3.502853400000000e+00 -1.82622020e-01  -1.45310111e+00   1.09449283e+00
C     1.112351689780000e+01   3.576237666226826e+00   3.311839200000000e+00  8.04728130e-01  -6.39050940e-01  -3.34953300e-02
C     1.230673666710000e+01   4.284291475937272e+00  -5.138877000000015e-01  2.05284032e+00  -1.54764753e+00   3.57236110e-01
C     3.705929905600000e+00   4.967596500793326e+00  -3.973008000000000e-01 -1.65512999e+00   1.77432308e+00   4.36557410e-01
C     3.659019525899999e+00   4.953095126245666e+00   3.306441600000000e+00  2.99789505e+00   2.00879965e+00   8.11077740e-01
C     4.962022568500000e+00   5.651455536649323e+00   3.613448700000000e+00 -1.02424629e+00  -3.57724840e-01  -8.49819860e-01
C     4.911239870999999e+00   4.276191114425631e+00  -2.774687999999976e-01  3.54861800e-02   4.32094400e-01   7.07493060e-01
C     6.133191544399999e+00   5.013218555205660e+00  -2.980769999999922e-02  1.90694520e-01  -1.18268630e+00  -1.09006838e+00
C     6.209613150599999e+00   4.937866569565529e+00   3.682581600000000e+00 -8.48714960e-01   9.18338970e-01   6.39465330e-01
C     7.409228472999999e+00   5.769989212896709e+00   3.815928600000000e+00  6.70097570e-01  -5.57177142e+00  -1.33014826e+00
C     7.374260574599999e+00   4.355803895515072e+00  -5.592090000000027e-02 -2.80080700e-02  -4.29287469e+00   1.91136760e-01
C     8.620952023300001e+00   4.991432038476884e+00  -5.944530000000015e-02  4.81167770e-01   1.91308870e-01  -1.09386580e-01
C     8.660330496899999e+00   5.022275798231692e+00   3.621975000000000e+00 -7.74716590e-01  -1.03443431e+00   1.06254553e+00
C     9.893493483299999e+00   5.679419942070274e+00   3.490521000000000e+00  6.21962000e-03   7.06300880e-01  -6.14748520e-01
C     9.867428721200000e+00   4.254513128520054e+00  -2.311715999999997e-01  3.62876500e-02   1.62209873e+00  -6.47842030e-01
C     1.114315116510000e+01   4.975415928860176e+00  -3.927849000000023e-01 -4.38216557e+00   2.28058530e-01   2.80540570e-01
C     1.115279429440000e+01   4.996583708889572e+00   3.297039600000000e+00 -3.18150862e+00  -5.98609370e-01  -6.19666300e-02
C     1.230324785400000e+01   5.715548239240841e+00   3.198401700000000e+00  3.08773368e+00   1.47663298e+00   1.24320864e+00
C     1.349928631350000e+01   6.408040897812954e+00  -2.092779000000000e-01  2.74407950e-01  -3.93575890e-01  -9.06619200e-01
C     4.913711082800000e+00   7.059323437907541e+00  -1.371986999999990e-01 -1.28212983e+00   2.19657854e+00   7.98037860e-01
C     4.980615422600000e+00   7.082821257726614e+00   3.717245700000000e+00 -2.76048000e-02   2.18978690e-01  -7.69523030e-01
C     6.209465940799999e+00   7.832684709840390e+00   3.729157800000000e+00 -1.91693936e+00   9.43455660e-01   5.09471100e-01
C     6.144544200500000e+00   6.403870786654942e+00  -3.216420000000042e-02  1.78223990e-01   5.87935210e-01   2.42636400e-01
C     7.393069609199999e+00   7.132105010612983e+00   5.502000000000000e-02 -4.10080100e-01  -1.75472226e+00  -1.25156750e-01
C     7.421410946700000e+00   7.114152168029307e+00   3.770784900000000e+00 -8.71674380e-01   2.70508832e+00  -6.68106100e-02
C     8.623044857600000e+00   7.828971094182639e+00   3.691983000000000e+00  1.62707053e+00  -1.60527680e+00  -7.35695060e-01
C     8.598444946400001e+00   6.413043989443291e+00   1.298640000000000e-02  1.16693158e+00  -9.39561100e-01  -5.36066470e-01
C     9.852173920799999e+00   7.066551197938232e+00  -1.334172000000002e-01 -2.56614537e+00   2.43138110e+00   8.70811240e-01
C     9.840838125299999e+00   7.088632822869197e+00   3.486857700000000e+00  2.02497647e+00   2.02862844e+00   1.03970435e+00
C     1.111664216070000e+01   7.864552894682483e+00   3.510759000000000e+00 -8.69021590e-01  -4.13077690e-01   8.25341100e-02
C     1.102112922810000e+01   6.380544942506935e+00  -3.275357999999997e-01  2.94476705e+00   9.61617580e-01   6.55533820e-01
C     1.223354164730000e+01   7.166376756124986e+00  -2.354544000000018e-01  2.24468464e+00  -2.59565400e+00  -5.61951970e-01
C     1.236165021160000e+01   7.188096839352229e+00   3.420112800000000e+00 -4.35368170e-01  -2.19174325e+00  -2.76119440e-01
C     1.362100382300000e+01   7.819654862968749e+00   3.614558400000000e+00 -4.92700290e-01   1.57116700e-01   3.61191760e-01
