64
Lattice="9.86 0 0 4.93 8.53901048131456 0 0 0 30 " PBC="1 1 1" Properties=species:S:1:pos:R:3:force:R:3 Energy="-515.49913594"
C     4.918651780899999e+00   8.346109878361455e+00   2.363940000000000e-02  8.99262500e-01   1.33430256e+00  -1.59543770e-01
C     1.244641308200000e+00   5.143116031989936e-01   2.258910000000000e-02 -2.08613640e-01   9.62558340e-01  -2.81679590e-01
C     1.233945180200000e+00   8.715009732805377e-01   3.419389800000000e+00 -1.92559220e-01  -5.82928980e-01  -1.26619260e-01
C     2.454560626400000e+00   1.580124591160315e+00   3.455407200000000e+00 -4.45375110e-01   1.82408381e+00  -2.41555060e-01
C     7.415334721700001e+00   8.333285309301752e+00   3.700530000000000e-02 -1.87784077e+00  -9.19750000e-03  -5.34511170e-01
C     3.670135394100000e+00   5.004634629530536e-01  -5.792429999999982e-02  1.76972668e+00   1.24749346e+00   9.16559520e-01
C     3.679653843700000e+00   8.881765506766152e-01   3.415302000000000e+00  6.83388800e-02   6.73681030e-01  -1.69355650e-01
C     4.922661349900000e+00   1.612078336887418e+00   3.401391900000000e+00 -1.62780170e-01  -1.56121290e+00   1.76373420e-01
C     9.846734947600000e+00   8.371468604734435e+00  -2.903669999999892e-02  1.09594054e+00   2.35236640e-01  -3.08240640e-01
C     6.167465249499999e+00   5.592651384808488e-01  -2.957609999999988e-02 -5.08213070e-01  -4.64456000e-01  -1.46416660e-01
C     6.139679276499999e+00   8.832107745220760e-01   3.428818200000000e+00  1.46635175e+00  -9.69508500e-01  -3.53192890e-01
C     7.396945723099999e+00   1.571238982244932e+00   3.376268400000000e+00 -1.04097483e+00   2.07830778e+00   3.05353770e-01
C     1.231778174050000e+01   8.346717514347212e+00  -2.891370000000038e-02 -3.16289880e-01   1.83682400e-01   2.91772320e-01
C     8.600594475699999e+00   5.207099691417624e-01   2.890770000000000e-02  1.31042016e+00   7.12774500e-02  -5.97770000e-02
C     8.642089299700000e+00   9.326634290357383e-01   3.347428500000000e+00 -1.01376528e+00  -1.70981000e+00   4.91803110e-01
C     9.869450464900000e+00   1.596167598660035e+00   3.444177600000000e+00  4.58886830e-01   8.91090500e-01  -9.57944030e-01
C     1.268794413500000e+00   1.970474269149786e+00  -7.203600000000066e-02 -1.66728610e-01  -1.00611629e+00   1.24408051e+00
C     2.514507207900000e+00   2.685664556868894e+00   2.325060000000000e-02 -1.90646656e+00  -1.58314849e+00  -6.83213980e-01
C     2.424249260900000e+00   3.051956853682537e+00   3.457890000000000e+00  3.11266930e-01  -1.77365199e+00  -7.55193900e-02
C     3.674776890500000e+00   3.720828303734141e+00   3.479241900000000e+00  5.70045750e-01  -2.46345740e-01  -3.77153550e-01
C     3.722725133800000e+00   1.928092342264088e+00   2.859960000000000e-02 -1.25806790e+00   9.34283090e-01  -6.10984920e-01
C     4.895788215700000e+00   2.686178946860209e+00   3.036000000000000e-04  2.56952403e+00  -2.21873200e-02  -1.08943700e-02
C     4.940009083200000e+00   2.999953511348393e+00   3.396254100000000e+00 -1.25769952e+00   1.05174288e+00   1.33121910e-01
C     6.165443505800001e+00   3.702008239246117e+00   3.341667900000000e+00 -5.37158110e-01   9.01909790e-01   6.37035190e-01
C     6.167764747000000e+00   1.987381253729872e+00  -5.181389999999908e-02  2.69557170e-01  -1.03536900e-02   6.97331650e-01
C     7.433777703800000e+00   2.684936093884845e+00   8.810999999999999e-04 -1.10999512e+00   3.53356830e-01  -6.65065600e-02
C     7.382771973100001e+00   3.014625495325444e+00   3.401447100000000e+00  1.24097112e+00  -5.17126410e-01  -4.54528680e-01
C     8.642910637699998e+00   3.736624106880465e+00   3.405981300000000e+00 -1.39333123e+00   2.45392500e-02  -2.16696380e-01
C     8.658803626599999e+00   1.944732653546883e+00   6.930539999999999e-02 -4.77070560e-01   9.50698530e-01  -1.02542946e+00
C     9.893041895299998e+00   2.683266119605272e+00  -2.714609999999951e-02  1.30398530e-01  -2.85694170e-01   5.33963930e-01
C     9.859889715900000e+00   3.037081726646167e+00   3.384022500000000e+00 -8.85876820e-01  -1.20656267e+00   4.83051830e-01
C     1.103594215260000e+01   3.760702152461654e+00   3.395648100000000e+00  2.53786217e+00  -9.99574600e-02   8.00099070e-01
C     2.415046380600000e+00   4.078082826465648e+00  -3.961890000000068e-02  2.60727838e+00   1.24286047e+00   1.41777590e-01
C     3.668126912100000e+00   4.793951538567391e+00  -1.045608000000016e-01  4.50554420e-01   8.68002650e-01   1.02842075e+00
C     3.675215364700000e+00   5.127006420208473e+00   3.493242300000000e+00  1.89514224e+00   9.09790350e-01  -8.54686100e-02
C     4.953281086900000e+00   5.878603633010108e+00   3.453959400000000e+00 -2.38620211e+00  -9.25830380e-01  -6.37796930e-01
C     4.917828076499999e+00   4.129952789456094e+00   1.762920000000000e-02 -5.67102340e-01  -1.33751105e+00  -4.67050710e-01
C     6.154330201200000e+00   4.832887120823361e+00   4.899870000000000e-02  7.75244150e-01  -8.24966390e-01  -1.04931688e+00
C     6.153867372800000e+00   5.133103529861507e+00   3.364192800000000e+00  1.54636510e-01   4.76335810e-01   6.05639040e-01
C     7.380044154799998e+00   5.852442410432217e+00   3.422116800000000e+00  6.36380860e-01  -1.37612177e+00  -5.90865030e-01
C     7.404249074399999e+00   4.133450795099225e+00  -3.723869999999962e-02  5.54233870e-01  -1.31177041e+00   4.46183730e-01
C     8.672507202500000e+00   4.810413384531154e+00  -7.765410000000017e-02 -1.53563460e+00   5.47365730e-01   6.88866300e-01
C     8.632050044899998e+00   5.165259479356776e+00   3.398564100000000e+00 -2.21625930e-01  -3.86943010e-01   3.86636180e-01
C     9.839504313799999e+00   5.908817128401387e+00   3.457042200000000e+00  5.95433920e-01  -1.00074920e+00  -4.30614660e-01
C     9.901657218200000e+00   4.129136033103681e+00   2.129130000000000e-02 -1.76458763e+00  -1.84614654e+00  -7.89326930e-01
C     1.108440380610000e+01   4.829407901003285e+00   6.845100000000000e-03  1.05293312e+00  -7.69793200e-02  -4.33825970e-01
C     1.109368576360000e+01   5.169446070805016e+00   3.492431100000000e+00 -1.91186434e+00   3.01605790e-01  -4.27965990e-01
C     1.232144842800000e+01   5.831322875812034e+00   3.512643900000000e+00  4.66124530e-01   1.01740227e+00  -2.46158500e-02
C     3.708695537000000e+00   6.224000031888038e+00  -6.913950000000213e-02  9.63101750e-01  -2.74700100e-01   3.83331000e-03
C     4.982228370700000e+00   6.959915266553049e+00  -3.502890000000036e-02 -2.11860956e+00  -1.65669213e+00   9.70670300e-02
C     4.891822375800000e+00   7.308099140012071e+00   3.365989500000000e+00  4.72434850e-01  -2.73884290e-01   1.81612020e-01
C     6.150809293799999e+00   7.967174808021229e+00   3.346291200000000e+00 -2.96639100e-02   7.53190330e-01   6.16073330e-01
C     6.202155391700000e+00   6.236831346766020e+00  -2.521559999999923e-02 -1.71291747e+00  -2.69078850e-01   4.93652820e-01
C     7.402709336799999e+00   6.908730302983309e+00   1.690920000000000e-02  1.59838798e+00   1.16241280e+00  -4.32380850e-01
C     7.388292981499999e+00   7.230462542118015e+00   3.404642100000000e+00 -6.16892720e-01   3.06736291e+00  -5.10788120e-01
C     8.593083768600000e+00   8.030545366496453e+00   3.348197400000000e+00  4.71730550e-01  -1.77055390e+00   7.03155270e-01
C     8.638828449800000e+00   6.226910126659623e+00  -6.171240000000111e-02  1.46303800e+00   3.44621050e-01   3.96979960e-01
C     9.898894396899999e+00   6.967526940494920e+00  -3.289559999999980e-02 -1.24915493e+00  -9.93962160e-01  -1.63093770e-01
C     9.829208008800000e+00   7.320110112153237e+00   3.389077500000000e+00  7.60689110e-01  -2.76316030e-01   6.18431060e-01
C     1.110576909500000e+01   7.970432440519349e+00   3.470428200000000e+00 -1.56825856e+00   1.28243979e+00  -4.29724570e-01
C     1.112995049850000e+01   6.247033927267733e+00  -4.149029999999954e-02 -1.86345960e+00  -9.18120390e-01   2.74587760e-01
C     1.233613928570000e+01   6.895912308961676e+00  -3.138449999999793e-02  1.11557511e+00   2.71565200e+00  -3.10569390e-01
C     1.232737310480000e+01   7.257988640131029e+00   3.485793600000000e+00 -2.97007290e-01   1.36390409e+00  -4.51774580e-01
C     1.350527276320000e+01   8.056726143408342e+00   3.351283200000000e+00  1.85476886e+00  -2.31848112e+00   6.94168950e-01
