64
Lattice="9.86 0 0 4.93 8.53901048131456 0 0 0 30 " PBC="1 1 1" Properties=species:S:1:pos:R:3:force:R:3 Energy="-516.28756247"
C     9.821656234799999e+00   1.347186021012832e-01  -4.805130000000091e-02 -1.12865731e+00  -1.16507790e-01   2.82821460e-01
C     1.171032760000000e+00   8.402145512224464e-01   3.802140000000000e-02  8.41260470e-01  -2.88802040e-01  -1.01195878e+00
C     1.305379894200000e+00   5.756488524987200e-01   3.381280500000000e+00 -1.49222764e+00  -1.32510380e-01  -1.42610380e-01
C     2.494310476900000e+00   1.313403560801332e+00   3.400515900000000e+00  9.11515750e-01  -1.62909078e+00   2.86977480e-01
C     2.396770081800000e+00   1.264461795284688e-01  -8.473949999999775e-02  1.08167570e+00  -5.33572590e-01   4.65804950e-01
C     3.650405041100000e+00   8.232896347203528e-01  -5.807760000000073e-02 -2.10888600e-02   1.41162988e+00   2.01103990e-01
C     3.718531577200000e+00   5.880584256490944e-01   3.457533000000000e+00  1.06876976e+00   1.12318060e-01  -1.64275700e-01
C     4.967939702399999e+00   1.303255373796376e+00   3.442592400000000e+00  8.40882000e-03  -1.14212678e+00   1.41267390e-01
C     4.902430996300000e+00   1.599149164949336e-01  -5.970900000000157e-02 -9.59713040e-01  -1.31494594e+00  -5.28289880e-01
C     6.121608016399999e+00   8.615345818087008e-01  -8.448209999999889e-02  4.73990610e-01  -1.65032390e-01   4.50702730e-01
C     6.216343438699999e+00   5.595616129247144e-01   3.461059800000000e+00 -9.82709140e-01   1.14760160e+00  -1.20110730e-01
C     7.410976108699999e+00   1.306152062321506e+00   3.397452300000000e+00  1.87195909e+00  -7.74717340e-01  -1.82616020e-01
C     7.335368346899999e+00   1.140370333286184e-01  -5.594250000000045e-02  1.14895014e+00   1.10758306e+00   1.26949730e-01
C     8.572855879999999e+00   8.477842132327568e-01  -2.965800000001906e-03  1.05319340e-01  -5.95278910e-01  -4.54596260e-01
C     8.685068645299999e+00   5.953923255800520e-01   3.324807000000000e+00 -6.21079800e-01  -5.27147840e-01   9.97680720e-01
C     9.939493735699999e+00   1.288243366422012e+00   3.380187000000000e+00 -1.32661861e+00   4.91954160e-01  -5.83243730e-01
C     1.106684171640000e+01   2.253465359297152e+00   4.240740000000000e-02 -1.13649980e+00   2.04647650e-01   7.00222720e-01
C     2.415413912100000e+00   2.945277458734010e+00   1.290060000000000e-01  1.48674980e+00   1.57785638e+00  -8.63705350e-01
C     2.491192054700000e+00   2.696656654279588e+00   3.432595200000000e+00  1.52188480e-01   2.13332331e+00   5.20213900e-02
C     3.729015665900000e+00   3.422471520398330e+00   3.480258900000000e+00  4.10359840e-01  -7.83182100e-02  -4.67950870e-01
C     3.681433376500000e+00   2.275926287073639e+00   2.415870000000000e-02 -1.42694507e+00  -1.36014583e+00   1.89142020e-01
C     4.889897900999999e+00   2.994367119912168e+00   1.298700000000000e-03  5.15449230e-01  -7.08181240e-01  -1.08289670e-01
C     4.962530161300000e+00   2.715547507164492e+00   3.421742100000000e+00  6.70073570e-01   6.74460200e-02   6.37127800e-02
C     6.222163845999999e+00   3.422020233694462e+00   3.372467400000000e+00 -1.73239058e+00   6.45180570e-01   7.91331080e-01
C     6.152449554099999e+00   2.289328947142837e+00  -5.361360000000204e-02 -2.18539786e+00  -9.02618720e-01  -1.25616550e-01
C     7.339190033600000e+00   2.979473719393371e+00  -7.998450000000190e-02  1.78860903e+00   2.46420900e-02   2.97180640e-01
C     7.430176092300000e+00   2.723364800478722e+00   3.397596900000000e+00  5.29567660e-01  -1.77866030e-01  -5.64561810e-01
C     8.676143816999998e+00   3.428473334694408e+00   3.355295100000000e+00 -2.78187360e-01   1.12573500e-01   9.20015820e-01
C     8.576349623100000e+00   2.258871321441935e+00  -9.371099999999188e-03  6.06915940e-01   5.53963680e-01  -1.65851080e-01
C     9.833990749700000e+00   2.980483457382631e+00   3.075540000000000e-02 -1.02311190e+00  -1.14949002e+00  -3.44016100e-02
C     9.900069314500000e+00   2.734849769574323e+00   3.370707900000000e+00  4.88342220e-01  -1.25694283e+00   6.05736000e-03
C     1.112373894500000e+01   3.428973379148117e+00   3.407355600000000e+00  2.90279720e-01   1.35395593e+00   6.92300470e-01
C     1.227632270830000e+01   4.398104360240791e+00   9.677519999999999e-02 -5.92951940e-01  -3.65558630e-01   9.48430900e-02
C     3.634505347400000e+00   5.122849715296914e+00   2.094900000000000e-02  7.12885630e-01  -1.04169726e+00   4.27653270e-01
C     3.776591151900000e+00   4.846025498518205e+00   3.465204600000000e+00 -1.80083990e+00  -2.67392710e-01   2.51601710e-01
C     4.978039300400000e+00   5.572248614727995e+00   3.439783200000000e+00  1.35863630e-01  -6.17468920e-01  -1.20556580e-01
C     4.861763623500000e+00   4.392982661754887e+00   2.343000000000000e-04  1.43690060e+00   1.05090734e+00  -2.75516820e-01
C     6.148255849600000e+00   5.094505323909601e+00  -8.164770000000132e-02 -2.87169303e+00   7.62328270e-01   1.49952360e-01
C     6.194780653999999e+00   4.852552974299430e+00   3.434558400000000e+00  5.61249100e-01  -6.56744240e-01  -6.35263510e-01
C     7.426239881699999e+00   5.538172070995564e+00   3.400701300000000e+00  6.51821770e-01   5.77520280e-01   7.20976010e-01
C     7.347017493199999e+00   4.390630591318171e+00  -1.115562000000025e-01  3.67540180e-01   2.16145390e-01   1.13040180e-01
C     8.568205805399998e+00   5.096319351295973e+00  -1.060674000000006e-01  7.39728620e-01   4.35684800e-01   2.63205140e-01
C     8.686359516500000e+00   4.840843514618311e+00   3.483082500000000e+00 -1.04995927e+00   6.83334410e-01  -1.12021461e+00
C     9.884664740700000e+00   5.604994780627642e+00   3.484005900000000e+00  1.13103526e+00  -1.60615319e+00   3.24618110e-01
C     9.784671374800000e+00   4.378846586075562e+00   2.764170000000000e-02  1.44431511e+00   1.31177776e+00  -2.62056730e-01
C     1.104095325110000e+01   5.118775497226592e+00   7.524599999999999e-02 -3.75816260e-01  -5.41624690e-01  -4.21084290e-01
C     1.113243955690000e+01   4.892076552817054e+00   3.527955600000000e+00  9.76487700e-02  -1.70750625e+00  -8.49377540e-01
C     1.238944762220000e+01   5.550583437338140e+00   3.504886800000000e+00 -3.24673440e-01   8.42673950e-01   8.62223800e-02
C     1.353265856810000e+01   6.527311746835079e+00   1.486920000000000e-02 -1.92667150e-01   5.65920420e-01  -7.34794690e-01
C     4.882580893599999e+00   7.249419230773720e+00  -1.142558999999999e-01  3.03552770e-01  -7.77889000e-03   9.49979970e-01
C     4.952886834800000e+00   6.977128460048948e+00   3.386406300000000e+00  4.26845050e-01   6.39058720e-01   1.09730080e-01
C     6.186017381799999e+00   7.689805546203581e+00   3.355332900000000e+00  7.50022580e-01  -1.59316430e-01   3.88117630e-01
C     6.094114885400000e+00   6.532466149731121e+00  -9.023909999999802e-02  1.82424574e+00  -6.46725380e-01  -4.67547480e-01
C     7.355902289900000e+00   7.224139404857576e+00  -1.300017000000011e-01 -7.75238030e-01   9.34789850e-01   5.60645300e-02
C     7.412467433700000e+00   6.961454337801964e+00   3.415128900000000e+00  1.31554656e+00   7.39506890e-01  -9.13657300e-02
C     8.686141314699999e+00   7.703526796753788e+00   3.473732400000000e+00 -1.57985210e+00  -2.10081340e-01  -3.90625940e-01
C     8.597761747000000e+00   6.530495858452966e+00  -1.420808999999998e-01 -4.03000550e-01  -1.79358420e-01   2.61986060e-01
C     9.821332629600001e+00   7.258576124052053e+00  -9.467070000000177e-02  7.43300900e-01  -7.81451000e-03   1.76926460e-01
C     9.922926717199999e+00   7.002166717358612e+00   3.471506100000000e+00 -1.09381657e+00   2.95744530e-01   4.62508000e-01
C     1.115550899890000e+01   7.682139820325371e+00   3.510793800000000e+00 -5.12509780e-01   8.31018180e-01  -3.69499960e-01
C     1.106252170530000e+01   6.539094215055803e+00  -2.402490000000057e-02  9.48632000e-02   8.07219600e-02   2.11644900e-01
C     1.233057730900000e+01   7.245444492175490e+00  -1.215330000000137e-02 -2.38631351e+00  -3.02545000e-01  -3.75034200e-02
C     1.236840500180000e+01   6.992295108903104e+00   3.493257900000000e+00  5.68617200e-01  -1.28488715e+00  -4.47540300e-02
C     1.358717021900000e+01   7.684458588621214e+00   3.412488900000000e+00  4.95220100e-01   1.48139297e+00  -3.39465430e-01
