64
Lattice="9.86 0 0 4.93 8.53901048131456 0 0 0 30 " PBC="1 1 1" Properties=species:S:1:pos:R:3:force:R:3 Energy="-516.11062672"
C     4.931429453499999e+00   8.387323412443175e+00  -7.066229999999862e-02 -8.57740770e-01  -1.14672978e+00   1.42794520e-01
C     1.227174466100000e+00   5.484077866555288e-01  -1.152374999999992e-01 -5.22049290e-01   6.71476020e-01   1.02533138e+00
C     1.255836993100000e+00   8.943681871756632e-01   3.452844900000000e+00 -9.10753770e-01  -2.08472086e+00  -8.54954950e-01
C     2.477327612900000e+00   1.535487511606849e+00   3.406548900000000e+00  1.01881637e+00   2.15170743e+00   4.86950940e-01
C     7.381623431000000e+00   8.374153098849138e+00  -6.639270000000153e-02  1.45789360e-01   2.26839453e+00   1.85254790e-01
C     3.692812260200000e+00   5.888754381718209e-01   5.535600000000000e-02 -1.20891030e+00  -2.34725459e+00  -9.60650730e-01
C     3.719598823599999e+00   8.614674651863280e-01   3.361001100000000e+00 -4.10651030e-01  -1.22283644e+00  -2.22356370e-01
C     4.934010259199999e+00   1.549286808712843e+00   3.362775300000000e+00  6.65474670e-01   2.13842769e+00   3.94740810e-01
C     9.812545594800000e+00   8.382699623658359e+00  -2.424000000001314e-03  1.89471618e+00   3.62976290e-01   4.07324090e-01
C     6.150593261200000e+00   5.344112384074464e-01  -1.685879999999784e-02 -8.91037520e-01   1.56097166e+00   5.12919200e-02
C     6.163891098100000e+00   8.616378184454040e-01   3.376005600000000e+00  9.44269350e-01   2.18097000e-01  -7.93015250e-01
C     7.411983455600000e+00   1.574722130009829e+00   3.340551600000000e+00 -9.39300000e-03   5.46627900e-02   2.49278770e-01
C     1.230585562680000e+01   8.379164814880060e+00   6.758700000000000e-03  4.58117260e-01   1.71828520e-01   1.31213980e-01
C     8.629343179099999e+00   5.626279715880824e-01  -2.223809999999915e-02 -6.88972240e-01  -1.15606860e-01  -3.71595910e-01
C     8.654482728100000e+00   8.284881843005768e-01   3.388338600000000e+00 -4.81741690e-01   1.41502483e+00  -5.51724310e-01
C     9.876899300499998e+00   1.572572946462117e+00   3.395866800000000e+00 -2.55640870e-01   4.01560400e-02   6.66880790e-01
C     1.199172214000000e+00   1.985453657504117e+00   3.953790000000000e-02  1.05224964e+00  -3.59647630e-01  -1.04510840e+00
C     2.443083537100000e+00   2.685014738171366e+00   3.186690000000000e-02 -5.84485850e-01   1.03350648e+00   9.82829390e-01
C     2.473873901400000e+00   2.969297097483516e+00   3.483285600000000e+00  1.10799084e+00   2.07010410e-01  -3.26901900e-02
C     3.713590238200000e+00   3.710408917756341e+00   3.484649700000000e+00 -2.77699780e-01  -2.03673510e-01  -7.16887500e-02
C     3.664473782100000e+00   1.969614220014241e+00   5.896469999999999e-02  5.06146100e-01   1.84399605e+00  -2.51023690e-01
C     4.887039388400000e+00   2.714129262913869e+00   2.462370000000000e-02  1.20253140e+00  -1.12719216e+00  -2.20212580e-01
C     4.965811273500000e+00   3.015034343147226e+00   3.415328400000000e+00 -1.29324043e+00  -1.28227193e+00  -4.17546500e-02
C     6.180531869400000e+00   3.717429692172997e+00   3.372180000000000e+00  5.79154010e-01  -4.85097130e-01  -3.04458890e-01
C     6.141961866499999e+00   1.991727183113668e+00  -3.998159999999729e-02 -2.82133960e-01  -4.26419760e-01   1.64531550e-01
C     7.386333503700000e+00   2.701223146304083e+00  -6.055740000000043e-02 -9.11492620e-01   7.82347050e-01   7.79928100e-02
C     7.409001101399999e+00   3.017421765087329e+00   3.304943400000000e+00  1.04076388e+00  -1.37861853e+00   9.39592640e-01
C     8.676517510999998e+00   3.702057936287110e+00   3.414702600000000e+00 -1.79782594e+00  -8.02122300e-02  -6.95920770e-01
C     8.593788167000000e+00   1.989476556121454e+00  -5.500649999999752e-02  1.77048251e+00   2.99474200e-01   2.02864290e-01
C     9.866109453200000e+00   2.726927702601503e+00   5.316000000000000e-03 -1.62915197e+00  -7.82473130e-01   2.19770100e-02
C     9.879840686400000e+00   2.993129817293616e+00   3.446927400000000e+00  3.22542080e-01  -5.90717920e-01   2.46617700e-02
C     1.111974298280000e+01   3.687343684208184e+00   3.505527300000000e+00 -2.08777750e-01  -4.74893300e-02  -3.62341410e-01
C     2.438917637800000e+00   4.138799289703479e+00   1.485414000000000e-01  8.49273180e-01  -1.45110922e+00  -3.68612770e-01
C     3.685766304200000e+00   4.830419517574851e+00   1.410669000000000e-01 -3.36880700e-01   4.19060900e-02  -8.17624310e-01
C     3.698559457000000e+00   5.141374756972855e+00   3.493400100000000e+00  3.02311370e-01   2.54564520e-01  -7.01239440e-01
C     4.961185651700000e+00   5.827070875543518e+00   3.374325000000000e+00 -5.32345750e-01  -6.37868200e-02   4.61698490e-01
C     4.912785425999999e+00   4.121309176097713e+00   1.331040000000000e-02  5.83221000e-03   5.58932080e-01   7.12955030e-01
C     6.154676385799999e+00   4.857385371110272e+00   1.323840000000000e-02 -2.41893490e-01  -1.93259764e+00  -4.78854700e-01
C     6.203984816099999e+00   5.120801462853075e+00   3.342786900000000e+00 -1.44664653e+00   5.07348680e-01   2.04152840e-01
C     7.405016774000000e+00   5.822901703676657e+00   3.314750400000000e+00  1.27795455e+00   1.11099895e+00  -2.30217140e-01
C     7.393901448099999e+00   4.158414336067191e+00  -3.956549999999837e-02 -7.22053990e-01  -1.58590310e+00   2.15810940e-01
C     8.602325694499999e+00   4.849382866658731e+00   1.038210000000000e-02  1.43824476e+00   5.61332040e-01  -2.68192410e-01
C     8.647236367599998e+00   5.108777938366502e+00   3.366149400000000e+00 -1.69876360e-01   8.42454460e-01   1.43637930e-01
C     9.868128781199999e+00   5.823167437682796e+00   3.388002000000000e+00  7.00621160e-01   1.05593490e-01  -1.77113780e-01
C     9.870133565699998e+00   4.147448709588985e+00   4.528830000000000e-02 -1.29570046e+00  -4.26499430e-01   1.58849680e-01
C     1.108331457190000e+01   4.847252041983552e+00   1.472544000000000e-01 -1.45825140e-01   4.40916600e-02  -1.86578380e-01
C     1.110603861810000e+01   5.096931342177074e+00   3.440720400000000e+00  1.19430700e-01   1.69150395e+00   3.03164550e-01
C     1.231714848200000e+01   5.885921991941992e+00   3.441553500000000e+00  3.98508030e-01  -2.41040111e+00   1.87890860e-01
C     3.675553957100000e+00   6.250361408871580e+00   4.592790000000000e-02 -1.72154081e+00  -5.46233230e-01   8.78591100e-01
C     4.876649709200001e+00   6.917124662625778e+00  -4.845299999999497e-03  1.87348145e+00   2.58747319e+00  -3.96565790e-01
C     4.948715167400000e+00   7.239618837665614e+00   3.376912800000000e+00  6.62046150e-01   1.23585739e+00  -1.92877680e-01
C     6.188929039800000e+00   8.007781901578660e+00   3.372574200000000e+00 -1.38593670e-01  -1.45431428e+00  -2.33444290e-01
C     6.129379569799999e+00   6.234103730648394e+00  -1.238790000000023e-02  8.03576500e-02   1.95077486e+00  -2.79237160e-01
C     7.350962774999999e+00   7.001453539203323e+00  -7.581629999999961e-02  1.13576339e+00  -2.54211510e+00   3.26747410e-01
C     7.435394842399999e+00   7.275529817019464e+00   3.264241200000000e+00 -1.22134307e+00  -6.08116070e-01   8.23987080e-01
C     8.665882120599999e+00   7.963949282202513e+00   3.292254900000000e+00  4.14200000e-05   4.76342500e-01   1.79667850e-01
C     8.619033513799998e+00   6.280705721903413e+00  -2.516609999999986e-02 -1.49901951e+00  -6.25859450e-01   1.87723250e-01
C     9.841706396900001e+00   6.960252899027428e+00   3.035670000000000e-02 -4.30142150e-01   7.16383370e-01   6.53998000e-02
C     9.893898581399998e+00   7.253497803739386e+00   3.323652900000000e+00  1.39580900e-02  -3.00364100e-02  -7.46398200e-02
C     1.112736328380000e+01   7.989738118533371e+00   3.310280700000000e+00 -1.73396138e+00  -1.88670740e-01   6.91675810e-01
C     1.106705129070000e+01   6.262386897330565e+00   1.431024000000000e-01 -1.63045010e-01  -3.43265900e-02  -4.17576990e-01
C     1.227273115400000e+01   6.964128499713985e+00   1.036038000000000e-01  1.80547684e+00   8.93525000e-02  -4.18271620e-01
C     1.231815311740000e+01   7.286751443031861e+00   3.379464900000000e+00  1.36282900e+00  -4.43132880e-01  -2.85751820e-01
C     1.357319652840000e+01   7.957554758814461e+00   3.350097000000000e+00  2.42408740e-01  -2.81298800e-02   6.31583880e-01
