64
Lattice="9.86 0 0 4.93 8.53901048131456 0 0 0 30 " PBC="1 1 1" Properties=species:S:1:pos:R:3:force:R:3 Energy="-516.32212275"
C     4.998316045299999e+00   8.413649864873854e+00  -2.433797999999996e-01 -2.41114546e+00  -9.83822580e-01   1.31649530e-01
C     1.265367915600000e+00   5.863576255416879e-01  -2.365080000000006e-01  5.79206630e-01   1.36204660e-01  -3.79185070e-01
C     1.220257676100000e+00   8.339686920068504e-01   3.580992900000000e+00 -1.56683950e+00   1.00039150e+00   1.42201430e-01
C     2.416257435100000e+00   1.562041443276714e+00   3.593600100000000e+00  1.17031075e+00  -1.42551991e+00  -1.27559500e-01
C     7.415559233900000e+00   8.415103716798178e+00  -2.584695000000004e-01  1.14240954e+00  -3.79751450e-01   2.88647590e-01
C     3.733144491600000e+00   5.714655912645680e-01  -2.048331000000019e-01 -4.19301320e-01   9.65268280e-01   2.59478460e-01
C     3.649204043800000e+00   8.288899447436607e-01   3.548961300000000e+00  1.32588555e+00   1.17029135e+00   1.04821110e-01
C     4.901579881100000e+00   1.570370906439535e+00   3.551577300000000e+00 -4.05172490e-01  -1.09752973e+00  -1.55236200e-01
C     9.897069458799999e+00   8.408817382672908e+00  -1.455870000000026e-01 -9.66140130e-01  -4.46324940e-01  -1.89168270e-01
C     6.178630565600000e+00   5.643450812055056e-01  -1.681100999999998e-01  1.20051015e+00   9.96628850e-01   5.71383800e-02
C     6.140486859800000e+00   8.245418806072448e-01   3.513607500000000e+00 -9.93664330e-01   1.31486580e+00   2.88223240e-01
C     7.357511293999999e+00   1.554794299692233e+00   3.543489000000000e+00  5.34296910e-01  -3.10363360e-01   1.67381000e-03
C     1.234205109520000e+01   8.384367463185313e+00  -1.540418999999993e-01  1.01349887e+00   1.03157413e+00  -1.23860570e-01
C     8.665268729999999e+00   5.700305251632992e-01  -2.407004999999991e-01 -4.16601600e-02   3.26576270e-01   3.20366470e-01
C     8.593820557100001e+00   8.522476394007577e-01   3.547991100000000e+00  3.19566310e-01  -1.04023794e+00   4.21213600e-01
C     9.831934841099999e+00   1.541976476450810e+00   3.615902100000000e+00 -1.75804430e-01   9.31055880e-01  -5.24528690e-01
C     1.291841473300000e+00   2.009193387490089e+00  -2.071952999999986e-01 -2.18901454e+00   1.16667000e-03   6.67737710e-01
C     2.470982998700000e+00   2.699267029783324e+00  -7.249049999999713e-02  2.35158026e+00   1.96048197e+00  -1.00893670e-01
C     2.413665191800000e+00   2.951556790870688e+00   3.614624700000000e+00  1.24185293e+00   1.32082550e+00   4.77853400e-02
C     3.662892188800000e+00   3.688847062393293e+00   3.614678100000000e+00 -4.37772710e-01   8.19183300e-02  -2.89628620e-01
C     3.726723708900000e+00   2.020266605500343e+00  -1.272315000000006e-01 -6.03751030e-01  -1.62759036e+00  -1.92482100e-01
C     4.944272941600000e+00   2.704213422384074e+00  -1.528842000000026e-01  8.44606560e-01   1.19174053e+00   3.11487900e-01
C     4.894679557300000e+00   2.992151332082713e+00   3.570020100000000e+00  5.64644600e-01  -4.93999500e-01   2.74890000e-02
C     6.153218732699999e+00   3.688489021683866e+00   3.542950200000000e+00 -1.07594971e+00  -2.35690420e-01   2.50926140e-01
C     6.205283969700000e+00   2.011562621337870e+00  -2.016546000000012e-01 -1.49380526e+00  -8.42371470e-01  -1.56441360e-01
C     7.404117492699999e+00   2.724948957702972e+00  -2.722076999999992e-01  1.62210413e+00  -1.04491500e-01   6.19791720e-01
C     7.374458711300000e+00   2.971204968595063e+00   3.576134100000000e+00 -2.86035000e-01   3.17628800e-01  -4.28601110e-01
C     8.598142836000001e+00   3.698186690495898e+00   3.561978600000000e+00 -8.64077000e-03  -1.11977177e+00   2.33585090e-01
C     8.653748010199999e+00   2.001295058966403e+00  -2.401671000000007e-01  7.69017270e-01   7.83752130e-01  -1.33593070e-01
C     9.923715122800001e+00   2.756751050603950e+00  -1.731948000000010e-01 -1.40638162e+00  -1.69258361e+00  -3.42645710e-01
C     9.819401893699998e+00   2.997873835345990e+00   3.593219700000000e+00  3.03025650e-01  -2.01552905e+00   1.03632740e-01
C     1.105880004830000e+01   3.655543469889512e+00   3.604806600000000e+00 -2.70848360e-01   1.62475524e+00  -1.49773600e-02
C     2.500196256000000e+00   4.153195719812339e+00   3.023730000000000e-02 -5.58508540e-01  -8.00961060e-01  -4.13540880e-01
C     3.726925395200000e+00   4.871838158688301e+00  -4.756019999999950e-02 -2.48018360e-01  -1.52421528e+00   6.91046070e-01
C     3.673039361300000e+00   5.122700880344247e+00   3.579482400000000e+00 -1.03647144e+00  -7.91722870e-01   1.12989790e-01
C     4.896800443300000e+00   5.815575488855132e+00   3.557778900000000e+00  3.86248310e-01   3.87752790e-01  -2.17675370e-01
C     4.932923440700000e+00   4.142153669190336e+00  -1.033878000000001e-01  2.02776466e+00   8.79643700e-02  -5.36523030e-01
C     6.214216833900000e+00   4.867499914413936e+00  -1.968740999999987e-01 -1.61101580e+00  -5.19593830e-01   1.39791700e-01
C     6.122670086299999e+00   5.099831531696502e+00   3.536160900000000e+00  1.00695610e+00   2.65664680e-01  -4.41085400e-02
C     7.376685888100000e+00   5.797569619016375e+00   3.509760300000000e+00 -1.03293391e+00   1.13820594e+00   2.75055970e-01
C     7.441643420199998e+00   4.154846481318333e+00  -2.304621000000004e-01 -6.71454840e-01  -3.76032510e-01  -1.81241130e-01
C     8.664522968900000e+00   4.855294765174453e+00  -1.985175000000012e-01  2.11128390e-01   7.20389400e-01   4.88752100e-01
C     8.607309382200000e+00   5.089689151218672e+00   3.547941600000000e+00 -8.13668240e-01   1.27111607e+00  -4.69530170e-01
C     9.808373976700000e+00   5.820426842269239e+00   3.502611300000000e+00  1.63310082e+00  -7.24588450e-01   4.19116080e-01
C     9.901562660800000e+00   4.170750217557123e+00  -1.046765999999977e-01 -4.06970200e-02  -7.53842970e-01   3.59941000e-02
C     1.112849407790000e+01   4.864822080727409e+00   3.471059999999999e-02  7.92207000e-03  -4.96552400e-02  -3.50511380e-01
C     1.105692354240000e+01   5.095134136641349e+00   3.576212700000000e+00 -2.32901070e-01   1.03934560e-01  -3.20938090e-01
C     1.227982286040000e+01   5.815800321001070e+00   3.558889500000000e+00  3.30565270e-01   5.79924490e-01  -1.64288980e-01
C     3.734955675000000e+00   6.265121856997204e+00  -2.334240000000065e-02 -4.84055740e-01   9.16745850e-01  -8.18714740e-01
C     4.939177145700000e+00   6.957089195644587e+00  -2.032730999999970e-01  1.29097981e+00   2.00138938e+00   3.15345530e-01
C     4.896604623699999e+00   7.237861253138516e+00   3.535194000000000e+00  2.06649780e-01   4.55635280e-01   2.87996500e-01
C     6.131533684000000e+00   7.981801449852631e+00   3.542128800000000e+00  1.72305500e-02  -1.98559762e+00  -3.67363200e-02
C     6.178335505100000e+00   6.292856819206557e+00  -2.404466999999997e-01  1.07622188e+00  -1.08198510e+00   1.41239990e-01
C     7.438986544600000e+00   6.986627767647528e+00  -2.559281999999996e-01 -1.24631513e+00   6.80831390e-01   1.74600610e-01
C     7.350169587299999e+00   7.243211113984446e+00   3.524678400000000e+00  1.53281155e+00  -2.57610220e-01  -1.40046990e-01
C     8.634024657800000e+00   7.956309771086477e+00   3.519723600000000e+00 -2.26368974e+00  -4.63157670e-01  -9.23553700e-02
C     8.660596470400000e+00   6.292489897926233e+00  -1.574649000000008e-01 -5.15933610e-01  -1.13931211e+00  -4.20279640e-01
C     9.876356063799999e+00   6.980287381585919e+00  -1.048517999999987e-01  9.44850870e-01   6.47093210e-01   2.33394400e-01
C     9.844711034699998e+00   7.232090077515504e+00   3.485098500000000e+00 -5.16857840e-01   3.02971330e-01   2.56059310e-01
C     1.105837518090000e+01   7.953474392656593e+00   3.522388800000000e+00  2.01601020e-01   5.60079900e-02  -5.17911600e-01
C     1.110337967190000e+01   6.274740113011770e+00   6.374400000000000e-03  1.27423672e+00   6.18328230e-01  -2.16363100e-01
C     1.237508712380000e+01   6.986926462234119e+00  -4.198859999999982e-02 -1.61817385e+00  -7.04920310e-01   2.27531690e-01
C     1.227954939330000e+01   7.262834101627904e+00   3.498712200000000e+00  6.33474150e-01  -1.53253972e+00   6.73157120e-01
C     1.352364253480000e+01   7.938512253103432e+00   3.564812100000000e+00 -8.45815600e-02   1.17240178e+00  -6.53071760e-01
