64
Lattice="9.86 0 0 4.93 8.53901048131456 0 0 0 30 " PBC="1 1 1" Properties=species:S:1:pos:R:3:force:R:3 Energy="-516.23660001"
C     4.899059714400000e+00   8.426570327021246e+00   3.024570000000000e-02  4.41076790e-01  -1.22201306e+00  -6.97936800e-02
C     1.198069175800000e+00   6.014052405897536e-01   4.887390000000000e-02  3.10198690e-01  -1.58366648e+00  -6.89762720e-01
C     1.282258835100000e+00   8.345937475739864e-01   3.332405100000000e+00 -1.32604049e+00   7.25014030e-01   1.04033090e+00
C     2.473891304299999e+00   1.589800741665937e+00   3.380047800000000e+00  1.18812422e+00   1.14968080e-01  -4.01705850e-01
C     7.345515963100000e+00   8.386857694811596e+00   3.286620000000001e-02  1.28490606e+00   1.03448262e+00  -2.90630200e-02
C     3.680115883300000e+00   5.697030541113912e-01  -1.751940000000118e-02 -4.96283180e-01  -1.46489169e+00   6.43673270e-01
C     3.726383933300000e+00   8.998329831026537e-01   3.365086800000000e+00 -3.65442830e-01  -1.45702476e+00   3.56407670e-01
C     4.976452382700000e+00   1.557805923298425e+00   3.364037700000000e+00 -1.31038402e+00   2.12411155e+00  -2.50645280e-01
C     9.846980954599999e+00   8.392276977812728e+00   6.500820000000000e-02 -4.96880900e-01  -3.34764780e-01  -3.36402390e-01
C     6.149845823900000e+00   5.631090594385256e-01   4.874850000000000e-02 -5.03502620e-01  -7.34164370e-01   7.00753300e-02
C     6.184809827600000e+00   8.475015719858688e-01   3.305709300000000e+00  2.12169050e-01   5.32797040e-01   1.10120277e+00
C     7.397550929900000e+00   1.579903857739407e+00   3.423726300000000e+00  4.20192730e-01   1.11314740e-01  -3.03951630e-01
C     1.229509885980000e+01   8.384393080216753e+00   3.702000000000000e-02  8.77253260e-01  -2.34368380e-01  -3.92400280e-01
C     8.601161721499999e+00   5.573242213987448e-01  -2.947619999999773e-02 -4.89866780e-01   6.17443330e-01   5.95033550e-01
C     8.627353973399998e+00   8.751840192807713e-01   3.417435000000000e+00  9.05419690e-01  -3.17134280e-01   3.10921010e-01
C     9.897837552799999e+00   1.551139773987003e+00   3.417261000000000e+00 -7.50604560e-01   6.54651740e-01  -3.83958800e-01
C     1.213582702600000e+00   1.998806620532322e+00  -3.496349999999993e-02  8.29369610e-01  -7.96060900e-02   7.22591790e-01
C     2.458578477800000e+00   2.690153770848544e+00   2.518560000000000e-02 -1.06971690e-01   6.14516430e-01  -7.46151080e-01
C     2.483467434900000e+00   3.016893968849561e+00   3.349441800000000e+00 -6.70806270e-01  -4.61179650e-01  -4.66820400e-02
C     3.716528222400000e+00   3.715724793340560e+00   3.326861700000000e+00  7.25929700e-02  -2.15667980e-01   6.50788000e-02
C     3.676451907300000e+00   1.959499249760052e+00  -1.590180000000174e-02  1.26316983e+00   1.79188523e+00   3.71363180e-01
C     4.960373976500000e+00   2.692259576223017e+00   3.150630000000000e-02 -2.36875207e+00  -9.58150090e-01   1.41985110e-01
C     4.931020657900000e+00   3.036388529775401e+00   3.372230700000000e+00  1.49488558e+00  -2.30170231e+00  -7.16204400e-02
C     6.175791378600000e+00   3.738914525661515e+00   3.395118900000000e+00 -5.63083190e-01  -7.19083710e-01   2.83041280e-01
C     6.163010649400000e+00   1.971109998480022e+00   6.645330000000001e-02 -6.60709800e-02   1.44506080e-01  -4.50403610e-01
C     7.387610817400000e+00   2.668773967188930e+00   3.890940000000000e-02 -2.57824540e-01   1.10070901e+00  -1.19593500e-02
C     7.400610044200000e+00   3.007062749913622e+00   3.465902700000000e+00 -5.57881400e-01  -2.85211560e-01  -7.36157850e-01
C     8.615687720000000e+00   3.701971692281262e+00   3.388374000000000e+00  1.54720274e+00   2.00995930e-01   5.01662400e-01
C     8.602896194100000e+00   1.988554428379719e+00  -1.776270000000224e-02  7.98296070e-01  -1.27132817e+00   2.03644630e-01
C     9.849956554700000e+00   2.666053182279687e+00  -1.308299999998042e-03 -1.25174696e+00   1.64216107e+00  -2.84125170e-01
C     9.869874050499998e+00   2.989584505532425e+00   3.403441800000000e+00  1.90512100e-02  -4.18144540e-01  -2.75223590e-01
C     1.109983850220000e+01   3.711073935892523e+00   3.339060300000000e+00 -2.38074910e-01  -1.48995140e-01   9.19779900e-02
C     2.455626886800000e+00   4.131046380528267e+00   7.670100000000000e-03 -5.88233040e-01  -7.82867290e-01   3.77691400e-02
C     3.678456987600000e+00   4.827547677570218e+00   2.194470000000000e-02  9.15366320e-01   2.66674380e-01   4.37150850e-01
C     3.759458120100000e+00   5.120575862196194e+00   3.287898000000000e+00 -2.36553481e+00   8.82673720e-01   5.68464830e-01
C     4.912887526300000e+00   5.883603906766986e+00   3.379438800000000e+00  2.39078363e+00  -1.21625041e+00  -1.94475590e-01
C     4.911074173699999e+00   4.097540242695900e+00   6.074340000000000e-02 -2.82468860e-01   5.03465870e-01  -7.91187280e-01
C     6.122497782800000e+00   4.811144921558976e+00  -2.085360000000236e-02  1.05013466e+00   3.94225810e-01   9.33410410e-01
C     6.170531315100000e+00   5.138487461359252e+00   3.400050900000000e+00  2.37856550e-01   1.60023884e+00  -1.42262960e-01
C     7.428507040800000e+00   5.843804688991069e+00   3.389258100000000e+00 -6.12508660e-01  -2.79169700e-02   4.66768830e-01
C     7.366913444900000e+00   4.091244942609625e+00   4.721370000000000e-02 -9.20511310e-01   4.48990210e-01  -3.95934520e-01
C     8.568513338799999e+00   4.815069621555794e+00   5.706090000000000e-02  1.55306982e+00  -2.38713870e-01   7.88982900e-02
C     8.654479030600001e+00   5.131800306082050e+00   3.365037300000000e+00 -4.47906160e-01  -1.32506210e-01  -1.20604300e-01
C     9.885154881300000e+00   5.851256768827070e+00   3.304548600000000e+00 -6.79080320e-01  -2.21259960e-01   4.80787400e-01
C     9.802323930000000e+00   4.094406852800264e+00   2.385660000000000e-02  1.41610447e+00   4.06457440e-01  -6.02830500e-02
C     1.106529295690000e+01   4.817413323762239e+00   2.424600000000000e-03 -6.30915360e-01   3.84604840e-01   2.58044860e-01
C     1.108559011200000e+01   5.125489635776910e+00   3.297662100000000e+00  1.97430332e+00   4.02766590e-01  -3.60272100e-02
C     1.237119903000000e+01   5.819913733129496e+00   3.294789600000000e+00 -1.26655868e+00   3.25017910e-01  -1.47093550e-01
C     3.737555904900000e+00   6.262095717073196e+00   7.661730000000000e-02 -2.90173744e+00  -6.66925620e-01  -8.09423130e-01
C     4.912969117799999e+00   6.979102337711504e+00   4.642019999999999e-02  1.80285666e+00   5.50964760e-01  -9.99275400e-02
C     4.922196993200000e+00   7.297205753562525e+00   3.397630800000000e+00  1.07316698e+00  -7.64551160e-01   2.01901180e-01
C     6.182409410600000e+00   7.958774983412052e+00   3.404016000000000e+00  2.05756540e-01   5.61533880e-01  -4.66631200e-02
C     6.146019207200000e+00   6.239526514643822e+00   3.025200000000000e-03  4.66110930e-01   8.53574800e-01   2.89713730e-01
C     7.397550979200000e+00   6.983543306281942e+00   5.359350000000000e-02 -7.81781850e-01  -1.74652335e+00  -2.41170000e-03
C     7.424859481700000e+00   7.271019597074033e+00   3.446792100000000e+00 -7.48596370e-01  -6.15387300e-01  -5.74463430e-01
C     8.628710068499998e+00   7.988496973360103e+00   3.407914500000000e+00  1.12907057e+00   6.48335150e-01  -2.35548880e-01
C     8.643016386199999e+00   6.229932253248704e+00   1.083798000000000e-01 -2.26124739e+00   9.24003590e-01  -5.56445890e-01
C     9.837599608300000e+00   6.950010185176459e+00   9.490140000000000e-02  1.00628561e+00   8.94217190e-01  -2.73672770e-01
C     9.870454212900000e+00   7.268685885509848e+00   3.351126000000000e+00 -6.19578700e-02   4.76984180e-01  -5.39371600e-02
C     1.110405172950000e+01   7.980167339417073e+00   3.340486200000000e+00  5.13667100e-01  -1.10351084e+00  -4.50869130e-01
C     1.107044076430000e+01   6.257134893544736e+00   3.419970000000000e-02  1.00188963e+00  -7.18820170e-01   8.26966700e-02
C     1.233114672400000e+01   6.964039352444574e+00   2.465280000000000e-02 -5.53615640e-01  -3.09326430e-01   4.00075040e-01
C     1.235079336560000e+01   7.248083387974229e+00   3.311137500000000e+00 -2.75214360e-01   2.71193580e-01   6.53190210e-01
C     1.357405316520000e+01   7.985289977194130e+00   3.426336600000000e+00 -1.20191000e+00   5.21265820e-01  -8.63595130e-01
