64
Lattice="9.86 0 0 4.93 8.53901048131456 0 0 0 30 " PBC="1 1 1" Properties=species:S:1:pos:R:3:force:R:3 Energy="-515.37294681"
C     4.928982793100000e+00   8.436014728782441e+00  -1.537499999997749e-03  1.29307317e+00   1.18453905e+00  -2.27151550e-01
C     1.250419366800000e+00   6.098445154273472e-01  -1.853129999999936e-02  1.67926100e-01   4.87068500e-01  -7.79131300e-02
C     1.201749519400000e+00   8.285902254758128e-01   3.561612000000000e+00  9.80427040e-01  -1.70540936e+00  -1.73611470e-01
C     2.448157739600000e+00   1.506896769767189e+00   3.472768800000000e+00 -1.16129556e+00   1.50396813e+00  -2.09647200e-02
C     7.439834060900000e+00   8.465724507945504e+00   4.698030000000000e-02 -2.16185312e+00  -1.74878273e+00  -7.13125420e-01
C     3.697798462200000e+00   6.108493861806336e-01  -1.179240000000021e-01  1.96512399e+00   6.36165870e-01   5.60625870e-01
C     3.652676982300000e+00   8.288230842916023e-01   3.613149900000000e+00  4.91538050e-01  -1.14512764e+00  -4.94932600e-02
C     4.898122620000000e+00   1.495103542393261e+00   3.624480000000000e+00  3.65537000e-03   1.00827530e+00  -8.41538700e-02
C     9.881497905900000e+00   8.472015538526540e+00  -1.492410000000000e-01  8.13051470e-01  -1.05717818e+00  -1.79484240e-01
C     6.202652779399999e+00   6.490300345200672e-01  -1.120632000000015e-01 -6.99334060e-01  -9.46776030e-01  -8.73275990e-01
C     6.112065409800000e+00   7.889405257734000e-01   3.716990100000000e+00  1.78744795e+00   3.99651390e-01  -7.00523760e-01
C     7.362320410400000e+00   1.510992079193397e+00   3.642627000000000e+00  8.86212800e-02   4.17205620e-01   4.63557050e-01
C     1.236583795080000e+01   8.475780815197696e+00  -2.221893000000001e-01 -8.88435850e-01  -7.12082590e-01   8.31764470e-01
C     8.642768801599999e+00   6.379691126849040e-01  -3.753839999999897e-02  4.35167780e-01  -7.51657250e-01  -9.22302300e-02
C     8.627209869499998e+00   7.852177733744343e-01   3.629568900000000e+00 -1.42080274e+00   1.55409626e+00  -2.03133220e-01
C     9.855815908999999e+00   1.527556222502710e+00   3.564822600000000e+00 -1.06079104e+00  -6.64452710e-01  -3.95297100e-01
C     1.243253217400000e+00   2.025502128995946e+00  -2.441211000000010e-01  9.51467200e-01  -2.37338160e-01   7.84376490e-01
C     2.512810351200000e+00   2.741758256003167e+00  -3.562350000000016e-01 -1.16823965e+00  -4.40022490e-01  -4.40467000e-02
C     2.438497108800000e+00   2.940427044611056e+00   3.329619300000000e+00 -6.13894260e-01  -1.15609360e-01   3.58055350e-01
C     3.663016424800000e+00   3.639999311382033e+00   3.408921600000000e+00  8.67746780e-01   1.78979460e-01  -1.55136000e-02
C     3.746614484100000e+00   2.025895008868130e+00  -2.042751000000003e-01 -1.03538861e+00   7.63462690e-01  -5.45093380e-01
C     4.966610130699999e+00   2.745813859030642e+00  -1.993061999999988e-01  2.26802530e-01   3.33736160e-01  -1.22437120e-01
C     4.921923181000000e+00   2.918673573852836e+00   3.524017800000000e+00 -1.40992155e+00   4.12407730e-01   2.09353200e-02
C     6.120857571800000e+00   3.659260074200931e+00   3.586232400000000e+00  2.36446520e-01  -4.17196660e-01   2.12303630e-01
C     6.198970808900000e+00   2.053819451720036e+00  -1.171436999999997e-01  4.66386380e-01   1.17447810e-01   7.56152390e-01
C     7.444477184199999e+00   2.753082520921533e+00  -1.644089999999920e-02 -1.22775562e+00   1.15012980e-01  -1.00909540e-01
C     7.343686489400000e+00   2.971642251321744e+00   3.657690000000000e+00  1.18097017e+00  -2.15859039e+00  -3.35076340e-01
C     8.602834371899998e+00   3.635746627992679e+00   3.619805100000000e+00 -3.88021640e-01   1.40187723e+00  -3.38987060e-01
C     8.666725545000000e+00   2.055625708606871e+00   4.360080000000000e-02 -1.01108290e+00  -9.81887170e-01  -9.04989500e-01
C     9.862508531899998e+00   2.717100582390594e+00  -1.639908000000005e-01  1.88501151e+00   1.65752821e+00  -2.89668500e-02
C     9.832641260799999e+00   2.927906464324442e+00   3.452983500000000e+00 -2.37404080e-01   1.18382420e+00   5.00573870e-01
C     1.104707172620000e+01   3.671100607692919e+00   3.323121600000000e+00  8.14778670e-01  -4.55966780e-01   6.52968800e-01
C     2.479035364900000e+00   4.151431645637276e+00  -5.646662999999990e-01  9.57456020e-01   7.31176360e-01   7.98811890e-01
C     3.748894411900000e+00   4.880077535290558e+00  -5.071029000000031e-01 -4.89188950e-01   7.48606350e-01   1.09207115e+00
C     3.670916996300000e+00   5.069411477641712e+00   3.450629400000000e+00  7.29915840e-01   4.12048460e-01  -7.47564000e-02
C     4.931726831100000e+00   5.783130835415533e+00   3.602081400000000e+00 -2.04713284e+00  -2.05902280e-01  -4.56032420e-01
C     4.987640623299999e+00   4.178516020638160e+00  -2.555448000000027e-01 -2.33235558e+00  -8.35361300e-01  -1.84566600e-02
C     6.171236009299999e+00   4.850943285433845e+00   7.633200000000000e-03  7.65781820e-01   1.64817009e+00  -1.36287446e+00
C     6.133753071399999e+00   5.067228479612499e+00   3.619637400000000e+00 -2.62020720e-01   3.08982490e-01   5.41303970e-01
C     7.337496332099999e+00   5.778048416377837e+00   3.770044200000001e+00  1.55304420e+00  -1.92841870e-01  -6.78169170e-01
C     7.397127344299999e+00   4.162855133857420e+00  -3.710099999999983e-02  1.46267376e+00  -4.71344200e-02   3.79073440e-01
C     8.645808097300000e+00   4.862361308687282e+00  -1.450283999999975e-01 -7.19722500e-02   5.69627900e-01   3.51472810e-01
C     8.584239200700001e+00   5.091295595260274e+00   3.675345900000000e+00  9.17267520e-01  -1.13389205e+00   1.16350370e-01
C     9.839881015100000e+00   5.797414550586058e+00   3.630246900000000e+00 -7.87578990e-01   4.18437770e-01  -3.46069510e-01
C     9.879131062199999e+00   4.149863968703253e+00  -2.609315999999993e-01 -1.16400140e-01   3.99506360e-01  -3.85660230e-01
C     1.109592777970000e+01   4.879996585471208e+00  -4.883475000000033e-01  6.85489240e-01  -1.53821040e-01  -8.82758000e-03
C     1.106716877260000e+01   5.097501321126614e+00   3.445535700000000e+00 -4.54828500e-02  -2.28930600e-01  -3.12393910e-01
C     1.231293362780000e+01   5.817841656846420e+00   3.415453500000000e+00 -3.49354290e-01  -1.61830005e+00   6.39552430e-01
C     3.728117912900000e+00   6.337155156214282e+00  -3.499040999999998e-01  8.59669500e-01  -1.12542750e+00  -2.86770800e-02
C     4.980056409900000e+00   7.045071573246106e+00  -9.952649999999963e-02 -1.51885889e+00  -1.91363933e+00  -3.54175300e-01
C     4.890048611100000e+00   7.202483449599038e+00   3.644894400000000e+00  5.25044930e-01   2.93147970e-01  -4.77624880e-01
C     6.124994581300000e+00   7.917643338440836e+00   3.640648200000000e+00  3.18287420e-01   2.76428430e-01   5.86791510e-01
C     6.192986873500000e+00   6.283629393701660e+00  -3.698070000000087e-02 -2.06992540e-01   8.78116530e-01   7.55176780e-01
C     7.413133821799999e+00   7.010991955469902e+00   4.770750000000000e-02  1.17249431e+00   9.75029800e-02  -4.62240650e-01
C     7.371937805100000e+00   7.185140548533949e+00   3.762697500000000e+00 -1.16296961e+00   1.76683883e+00  -6.04286750e-01
C     8.575104650200000e+00   7.951355607986191e+00   3.709816200000000e+00  1.14773358e+00  -1.33498734e+00   7.76311600e-02
C     8.657534644599998e+00   6.290889175021651e+00  -1.109928000000018e-01  6.37486850e-01   8.18530150e-01  -1.40714510e-01
C     9.924507472399998e+00   7.033326420501181e+00  -2.645634000000001e-01 -1.69857752e+00  -6.17127900e-02   3.32196490e-01
C     9.838698505300000e+00   7.235443346931000e+00   3.670861800000000e+00 -5.48291520e-01  -5.43287820e-01   2.83255720e-01
C     1.108774664190000e+01   7.914168131955686e+00   3.668579100000000e+00 -1.24146412e+00   1.85382620e-01  -7.02737600e-02
C     1.114568868540000e+01   6.331149243193175e+00  -4.833956999999991e-01 -1.49922427e+00  -9.93348640e-01   8.74992990e-01
C     1.235066035420000e+01   7.034307382025123e+00  -3.728795999999974e-01  1.22677813e+00   9.50902470e-01  -2.11849450e-01
C     1.230488047280000e+01   7.209349753316110e+00   3.573608700000000e+00 -2.91084100e-01   3.97283590e-01  -2.53211400e-01
C     1.351057690090000e+01   7.920958011528962e+00   3.583090800000000e+00  1.53260531e+00  -2.97219530e-01   5.38294930e-01
