64
Lattice="9.86 0 0 4.93 8.53901048131456 0 0 0 30 " PBC="1 1 1" Properties=species:S:1:pos:R:3:force:R:3 Energy="-516.43025302"
C     9.810834588999999e+00   3.464327785798881e-02  -1.716522000000005e-01  1.75370882e+00   8.22263000e-02   3.68361800e-02
C     1.218314418000000e+00   7.361050568679808e-01  -2.000969999999995e-01 -9.43995000e-01   8.65049670e-01   4.59194080e-01
C     1.241576179300000e+00   6.787431438972183e-01   3.623448000000000e+00  1.71987394e+00   5.22942180e-01  -2.28398940e-01
C     2.511878334700000e+00   1.405105189807519e+00   3.553474500000000e+00 -1.35678765e+00  -1.73929580e-01   4.02486380e-01
C     2.446326096700000e+00   4.008612852804560e-02  -1.209150000000001e-01 -1.10230500e+00  -1.26832247e+00  -1.96823990e-01
C     3.648017491400000e+00   7.388081660255297e-01  -1.516047000000000e-01  1.18632435e+00   3.37796550e-01   1.21927170e-01
C     3.743578688700000e+00   6.782116758849432e-01   3.556595700000000e+00 -6.45759020e-01   1.13251684e+00  -3.24266120e-01
C     4.980507554200000e+00   1.389692361281224e+00   3.524631900000000e+00 -4.63049300e-01   2.59691350e-01   5.78831000e-01
C     4.877574133499999e+00   2.553172672530480e-02  -1.055070000000029e-01  9.58200510e-01  -7.33877000e-01  -8.14228800e-02
C     6.119598449799999e+00   7.191967914363232e-01  -1.290803999999994e-01  7.20727200e-02   2.08019060e-01   1.65157140e-01
C     6.209522438600000e+00   6.914526924857552e-01   3.568843200000000e+00 -4.94264640e-01  -5.03383200e-02  -4.32717870e-01
C     7.427475980600000e+00   1.416701934550302e+00   3.612677100000000e+00 -1.34496140e-01  -5.82192150e-01  -1.32425600e-02
C     7.367130266299999e+00   1.987394916146640e-02  -1.394225999999996e-01 -5.94240970e-01   3.57068990e-01  -1.68787420e-01
C     8.591858367799999e+00   7.462388129452256e-01  -1.881875999999991e-01  7.44868000e-03  -8.42965500e-01   1.61709860e-01
C     8.641402057699999e+00   6.716878718782232e-01   3.628985700000000e+00 -5.43710000e-02   1.41588680e+00  -2.01151550e-01
C     9.869161271099999e+00   1.392924120577590e+00   3.625387200000000e+00  8.25400890e-01  -1.29578451e+00   1.70818880e-01
C     1.108209612240000e+01   2.178384401849656e+00  -2.118609000000014e-01 -2.13527950e-01  -7.92949030e-01  -7.27801100e-01
C     2.461956365900000e+00   2.896077217370137e+00  -2.850491999999996e-01 -1.10477130e+00  -1.13302717e+00   5.67732790e-01
C     2.480879234200000e+00   2.838463574370424e+00   3.541035000000000e+00  5.17341330e-01  -7.03310480e-01  -2.22678420e-01
C     3.721134617200000e+00   3.521382038222048e+00   3.507005700000000e+00  4.32946500e-02   2.30259890e-01   1.09244190e-01
C     3.671033590800000e+00   2.155444179414927e+00  -2.276168999999975e-01  5.86394650e-01   7.28197070e-01   8.81997000e-02
C     4.919660656100000e+00   2.869016922378807e+00  -1.932054000000001e-01 -7.62844350e-01  -9.58441700e-02   5.22026600e-02
C     4.956295288900000e+00   2.816777305624683e+00   3.572990100000000e+00 -5.28049310e-01  -3.40316900e-02  -2.76004130e-01
C     6.150275029700000e+00   3.557963756849102e+00   3.635717400000000e+00  1.98876771e+00  -7.64339240e-01  -4.23532800e-01
C     6.124580214800000e+00   2.134514040047189e+00  -1.235973000000001e-01  1.30132705e+00   1.11287600e+00  -2.60137360e-01
C     7.392000785199999e+00   2.871300339171264e+00  -1.298642999999977e-01 -1.20481044e+00  -1.74657340e-01  -2.00054600e-01
C     7.412580182799999e+00   2.837866697537872e+00   3.621441000000000e+00 -3.23799190e-01  -3.77264850e-01   2.74374700e-01
C     8.659780456799998e+00   3.499427729937339e+00   3.624789600000000e+00  3.65768500e-02   8.72574960e-01  -4.34066140e-01
C     8.620365353300000e+00   2.151450569603535e+00  -2.053238999999998e-01 -1.26416799e+00   3.91703980e-01   3.29212060e-01
C     9.821743692999998e+00   2.856936186522018e+00  -2.388875999999982e-01  1.46496069e+00   8.10208760e-01   3.38184550e-01
C     9.908607482900001e+00   2.781440489335508e+00   3.615158700000000e+00 -1.04604017e+00   2.17539848e+00  -1.32152170e-01
C     1.111617765610000e+01   3.558999880380745e+00   3.554250600000000e+00 -1.03764800e-01  -2.15593900e+00  -1.95986260e-01
C     1.228012694280000e+01   4.294459644226752e+00  -2.702892000000006e-01  9.81963830e-01   9.82178040e-01  -2.45236620e-01
C     3.671264512000000e+00   5.002538644018116e+00  -2.229576000000009e-01 -4.39875870e-01   6.63842600e-01  -1.52172380e-01
C     3.720642800399999e+00   4.943541083589909e+00   3.477114300000000e+00  3.00112070e-01  -3.94774400e-02   3.67549660e-01
C     4.947589303299999e+00   5.658145339019773e+00   3.566122500000000e+00  4.76470980e-01   1.52900315e+00   1.39909990e-01
C     4.907701314200000e+00   4.307892532393049e+00  -2.033243999999996e-01 -8.15823610e-01  -1.17716762e+00   1.94279260e-01
C     6.107642953299999e+00   5.008085329055609e+00  -1.290402000000022e-01  1.57190451e+00  -1.01608330e-01   1.37541270e-01
C     6.202608458700000e+00   4.968094068933996e+00   3.614901900000000e+00 -8.40744940e-01   1.78021550e-01  -6.45736700e-02
C     7.452621544199999e+00   5.661157816527012e+00   3.596538600000000e+00 -1.26753629e+00   5.63429410e-01  -1.85303780e-01
C     7.359687839699999e+00   4.301539935546454e+00  -1.120890000000010e-01  4.57724840e-01   5.46101500e-02   5.84087700e-02
C     8.606286850899998e+00   5.040693589936003e+00  -1.004526000000006e-01 -5.37982610e-01  -1.91106837e+00  -2.85880520e-01
C     8.648722121700001e+00   4.938739000266271e+00   3.545227500000000e+00  1.00405918e+00  -7.79712780e-01   5.62807810e-01
C     9.885011270400000e+00   5.632120911389773e+00   3.519750600000000e+00 -6.19451100e-01   2.19442592e+00  -3.23417020e-01
C     9.826886274600000e+00   4.283805008510226e+00  -2.003325000000018e-01 -4.40303320e-01   8.58977900e-01  -1.56389030e-01
C     1.104958188500000e+01   5.014103025911179e+00  -2.786763000000008e-01  3.96830570e-01  -1.12543360e+00   7.01717290e-01
C     1.110867316080000e+01   4.949178196748385e+00   3.472122300000000e+00  3.22443600e-01   4.66775820e-01   3.30912630e-01
C     1.234790759010000e+01   5.646174158667443e+00   3.465498900000000e+00  2.46796950e-01   8.96547790e-01   1.38887480e-01
C     1.354270566160000e+01   6.435510809137010e+00  -1.954370999999995e-01 -7.70130100e-02   7.02094000e-02   3.09770760e-01
C     4.938862907500000e+00   7.155796751360057e+00  -1.206777000000017e-01 -2.05794620e+00  -4.49581830e-01  -3.93045630e-01
C     4.952912027100000e+00   7.122829168918663e+00   3.629901600000000e+00  5.07592980e-01  -1.97509612e+00  -4.51990900e-01
C     6.214311341999999e+00   7.799910792156683e+00   3.639373800000000e+00 -1.52440274e+00   2.71076280e-01  -1.54171650e-01
C     6.135036202500000e+00   6.417963398770924e+00  -9.040800000000004e-02  9.01344900e-01   1.00550771e+00  -4.70270900e-02
C     7.379535033699999e+00   7.142263956771143e+00  -7.280820000000077e-02 -4.62285060e-01   2.56692910e-01   1.31323800e-02
C     7.433343518700000e+00   7.099011136206589e+00   3.580618500000000e+00 -6.69874560e-01  -1.08107803e+00   2.85184570e-01
C     8.620468094499998e+00   7.813693523582346e+00   3.560757000000000e+00  1.96323017e+00  -4.22827720e-01  -2.43260700e-01
C     8.608830188599999e+00   6.444681364832110e+00  -7.270679999999885e-02  2.91730230e-01  -1.16061530e-01  -4.13865600e-02
C     9.858025091300000e+00   7.123233918015415e+00  -9.635370000000165e-02 -1.14022410e+00   1.24765914e+00  -1.54247850e-01
C     9.857132268299999e+00   7.099693403143942e+00   3.510852000000000e+00  8.38815970e-01  -9.41257140e-01  -3.91740200e-02
C     1.110287631890000e+01   7.814935437266558e+00   3.489733200000000e+00  9.09885720e-01  -1.18414957e+00   6.21426940e-01
C     1.107417129530000e+01   6.416194798920306e+00  -1.860473999999996e-01 -2.78118670e-01   6.49133000e-01   3.07824400e-02
C     1.228642334160000e+01   7.148128122218282e+00  -1.769990999999997e-01  1.37460759e+00  -6.38894110e-01  -2.42118300e-02
C     1.237096135470000e+01   7.074233147936354e+00   3.533720400000000e+00 -1.78195039e+00   2.52295370e-01  -5.42196350e-01
C     1.357752713900000e+01   7.808844304920859e+00   3.581806500000000e+00  2.74397600e-01  -5.17145570e-01   2.83279030e-01
