64
Lattice="9.86 0 0 4.93 8.53901048131456 0 0 0 30 " PBC="1 1 1" Properties=species:S:1:pos:R:3:force:R:3 Energy="-514.939649"
C     9.864606049700001e+00   1.096747944348056e-01  -9.079859999999940e-02 -2.47064644e+00   9.63137400e-02  -1.17116110e-01
C     1.185537510200000e+00   8.352086417186512e-01  -1.690512000000020e-01  1.19003010e+00   1.12033752e+00   2.03420109e+00
C     1.276368865500000e+00   6.198842569992071e-01   3.381994200000000e+00  8.27497900e-02  -1.15013146e+00  -2.85315300e-02
C     2.517807547100000e+00   1.316332782956391e+00   3.471124800000000e+00  2.32485370e-01  -1.04547641e+00  -4.97169720e-01
C     2.425382322800000e+00   1.338664088553792e-01  -1.119702000000018e-01 -6.98552200e-02  -4.78385270e-01  -8.29473210e-01
C     3.659417081100000e+00   7.996811493254584e-01  -3.832379999999702e-02 -3.17648600e-02   2.11227520e+00  -2.76870560e-01
C     3.753172665900000e+00   6.149852559066216e-01   3.421829100000000e+00  8.44557330e-01  -8.18094210e-01   4.87868690e-01
C     5.008754482200000e+00   1.316811906834424e+00   3.522261300000000e+00 -1.34198974e+00  -1.37691400e-02  -5.52905420e-01
C     4.873614258900000e+00   9.791008735588079e-02  -1.675332000000012e-01  1.73423670e-01  -5.32011250e-01   7.32049270e-01
C     6.115547074400000e+00   7.856745250450096e-01  -1.318161000000018e-01 -9.81844300e-02   9.08008220e-01   5.73341000e-02
C     6.237947290299999e+00   6.045213816842200e-01   3.480199800000000e+00 -1.88940753e+00  -1.88595660e-01  -2.69549980e-01
C     7.409137415900000e+00   1.337914448823753e+00   3.326862300000000e+00  1.97482108e+00  -1.84052658e+00   1.18481240e-01
C     7.332528519000000e+00   9.887217766666240e-02  -4.949549999999903e-02  1.98048542e+00   8.49458500e-01  -6.09366170e-01
C     8.617003191900000e+00   8.461530060607624e-01  -8.800049999999970e-02 -1.01944130e+00  -1.33806978e+00   3.90495960e-01
C     8.665152431300001e+00   5.728392618804855e-01   3.323562900000000e+00 -7.12794500e-01   6.81254550e-01  -4.61603100e-01
C     9.881604739000000e+00   1.287408165806963e+00   3.306784500000000e+00  4.53761430e-01   3.73864750e-01   8.62483380e-01
C     1.104276591350000e+01   2.278526074204380e+00   1.041606000000000e-01  3.21273300e-01  -1.47049360e+00  -1.14795975e+00
C     2.393337224200000e+00   2.978979652246998e+00   1.318146000000000e-01  2.14176294e+00  -2.09949380e-01   6.33214870e-01
C     2.539017935400000e+00   2.706526981883525e+00   3.547195200000000e+00 -1.71828840e+00   1.08494243e+00   5.61972500e-02
C     3.719801495900000e+00   3.460998681783042e+00   3.538151700000000e+00  1.49155195e+00  -7.49578080e-01   3.69067540e-01
C     3.660095794200000e+00   2.260403476092362e+00   8.525220000000000e-02 -1.37807009e+00  -1.52250190e+00  -6.31357430e-01
C     4.870851240400000e+00   2.938797459851053e+00  -2.206530000000129e-02  1.54054952e+00  -6.69062140e-01  -1.46930630e-01
C     4.968730277200000e+00   2.731995776101592e+00   3.502147800000000e+00  5.25700200e-01   8.72190450e-01  -2.32131250e-01
C     6.208654857200000e+00   3.441676352698584e+00   3.394632300000000e+00 -1.03651042e+00   1.94852647e+00  -4.54655210e-01
C     6.141231930700000e+00   2.202538444624117e+00  -1.614894000000007e-01 -1.18205228e+00   1.41151166e+00   8.21949440e-01
C     7.351574686599999e+00   2.946595625781808e+00  -1.087530000000001e-01  5.06502750e-01   1.11990848e+00  -3.13944830e-01
C     7.410486904800000e+00   2.738941407226024e+00   3.257892600000000e+00  9.36649220e-01   1.44175790e-01   1.31282962e+00
C     8.670511144099999e+00   3.412341692265906e+00   3.421902000000000e+00 -1.29196958e+00   1.56687673e+00  -1.17223571e+00
C     8.598033291400000e+00   2.260620196178344e+00  -5.667299999999997e-02  1.63190950e-01   2.19311200e-02   1.53182050e-01
C     9.842671493699999e+00   2.992214691540474e+00   9.298410000000000e-02 -1.89522694e+00  -1.09504217e+00  -5.89111260e-01
C     9.858076412599999e+00   2.708279869954859e+00   3.443916000000000e+00  2.54008772e+00  -5.17333800e-01   1.40877100e-02
C     1.114496229920000e+01   3.385251596128001e+00   3.576460200000000e+00 -1.07438895e+00   1.46264276e+00  -4.77033310e-01
C     1.231371025070000e+01   4.406022755439104e+00   2.064375000000000e-01 -1.59609818e+00  -8.78704730e-01  -6.74154130e-01
C     3.671799318400000e+00   5.077274454662009e+00   9.826799999999999e-02  2.06176520e-01   8.03374340e-01  -5.14153930e-01
C     3.715097437800000e+00   4.865504091494446e+00   3.598125300000000e+00  5.72566440e-01   1.23624880e+00  -5.46508760e-01
C     4.969276521200000e+00   5.618510582585701e+00   3.460811100000000e+00 -2.07698840e-01  -2.29632961e+00   8.61677600e-02
C     4.868967438099999e+00   4.334781278663836e+00  -5.819999999999936e-03  1.95565272e+00   1.93917504e+00  -2.53724840e-01
C     6.132610248099999e+00   5.091976666736159e+00  -1.511886000000011e-01 -1.74452660e+00   3.03327770e-01   1.90865280e-01
C     6.210775398099999e+00   4.927847150838612e+00   3.346106100000000e+00 -4.93521700e-01  -2.30114434e+00   9.65238930e-01
C     7.445100484099999e+00   5.610115454432289e+00   3.387416700000000e+00  7.63231630e-01  -1.30741372e+00  -8.54588600e-01
C     7.368829489399999e+00   4.438614877589693e+00  -1.575348000000005e-01 -1.09283886e+00  -2.83348170e+00   5.38802400e-02
C     8.561047839800001e+00   5.141132590635642e+00  -1.577642999999966e-01  2.22248279e+00  -1.52246557e+00   4.52667900e-01
C     8.692947672699999e+00   4.850138910646629e+00   3.399850500000000e+00 -1.85025507e+00  -3.15162830e-01   1.00863643e+00
C     9.882310714999999e+00   5.541662903869893e+00   3.602386200000000e+00  1.06603980e+00   1.23819490e-01  -8.34312740e-01
C     9.809106229599999e+00   4.374685184708238e+00   4.724850000000001e-02  6.87367990e-01   2.75952084e+00  -2.58550130e-01
C     1.108277389880000e+01   5.108110870867804e+00   1.067649000000000e-01 -1.85285273e+00  -1.74171680e-01   1.03883240e-01
C     1.113025645430000e+01   4.845418716433495e+00   3.590972100000000e+00 -4.43096670e-01  -1.36792765e+00   9.36794510e-01
C     1.232939001710000e+01   5.569239894385367e+00   3.659011200000000e+00  1.04995099e+00   1.05689170e+00  -8.07403260e-01
C     1.350478395370000e+01   6.501613594795519e+00  -5.763900000000177e-02 -4.36188520e-01   5.15727010e-01   1.49335862e+00
C     4.877411295600000e+00   7.215515602003509e+00  -1.864859999999879e-02  1.67467500e-01   6.18802480e-01  -1.42933058e+00
C     4.997429335500000e+00   6.996848877801983e+00   3.418430700000000e+00 -8.02998440e-01   1.41303242e+00  -2.02605430e-01
C     6.227792673499999e+00   7.713669604182141e+00   3.396462300000000e+00 -2.20901700e-01   8.09282470e-01  -6.65995410e-01
C     6.097290643499999e+00   6.527368275084457e+00  -1.741743000000007e-01  1.75049053e+00  -4.02754530e-01   1.96989700e-01
C     7.383269755200000e+00   7.261560166654394e+00  -2.546253000000007e-01 -2.51103377e+00  -6.26693020e-01   4.94942680e-01
C     7.458326145799999e+00   7.008763615295042e+00   3.329548200000000e+00  3.59180660e-01   9.62830110e-01   6.13453510e-01
C     8.708577103800000e+00   7.720284690210893e+00   3.363601800000000e+00 -9.39627320e-01  -3.92644500e-01   9.01060310e-01
C     8.591451642799999e+00   6.544020626372029e+00  -2.534621999999978e-01 -1.10276216e+00  -8.10853080e-01   5.21307650e-01
C     9.791619864699999e+00   7.203248886498465e+00  -1.440084000000006e-01  1.38444518e+00   1.82715726e+00  -4.30996700e-02
C     9.892644833100000e+00   6.950266526271068e+00   3.579732000000000e+00  3.15656310e-01   2.23922849e+00  -8.65813000e-01
C     1.111777122930000e+01   7.715113380074100e+00   3.540532500000000e+00  1.00452630e-01  -1.45183470e-01   2.25422050e-01
C     1.101948324900000e+01   6.533355231502299e+00   1.993770000000000e-02  6.12574400e-01  -1.08125634e+00  -3.93405730e-01
C     1.224197332770000e+01   7.235970545438034e+00  -1.156590000000079e-02  1.65027616e+00  -8.48337540e-01  -5.34872600e-02
C     1.233289066220000e+01   7.033496517589942e+00   3.538787400000000e+00  1.60271485e+00  -2.03827996e+00  -9.43797600e-02
C     1.360890047580000e+01   7.693081964524756e+00   3.360842700000000e+00 -1.06353755e+00   5.78956100e-01   1.02023463e+00
