64
Lattice="9.86 0 0 4.93 8.53901048131456 0 0 0 30 " PBC="1 1 1" Properties=species:S:1:pos:R:3:force:R:3 Energy="-516.02692082"
C     9.916674540499999e+00   3.550630710819192e-01  -1.945371000000016e-01 -9.96727740e-01  -4.73202150e-01   3.31281940e-01
C     1.288064255200000e+00   1.060826547401421e+00  -1.791641999999989e-01 -5.35225240e-01  -4.24467580e-01  -1.94607880e-01
C     1.196852451800000e+00   3.472318591806064e-01   3.573693900000000e+00 -1.74681780e-01   1.72598094e+00   5.74599040e-01
C     2.428190746600000e+00   1.090566383881374e+00   3.636066600000000e+00 -1.91368760e-01  -7.15462420e-01  -5.25350520e-01
C     2.473859555100000e+00   3.170190469101656e-01  -2.632916999999999e-01  2.18749971e+00   1.54109727e+00   6.22862800e-01
C     3.737595788600000e+00   1.076993114382786e+00  -1.811250000000015e-01 -1.11705865e+00  -1.03845356e+00  -8.63513820e-01
C     3.663154316900000e+00   3.651671114026936e-01   3.615778800000000e+00  1.83424750e-01  -2.99348520e-01   3.42603570e-01
C     4.916645813200001e+00   1.051296499365112e+00   3.615926700000000e+00 -8.98905040e-01   7.11915320e-01  -1.67266240e-01
C     4.952811898800000e+00   3.158550943916368e-01  -2.917860000000019e-01 -3.10805780e-01   2.26737305e+00   6.12763670e-01
C     6.159739742299999e+00   1.055782980861409e+00  -2.455202999999990e-01  1.37641742e+00  -1.40095150e-01   1.65769080e-01
C     6.153384232800000e+00   3.605083126749104e-01   3.587120100000000e+00 -1.30810647e+00  -1.65315170e-01   2.89897270e-01
C     7.360580317600000e+00   1.096987207421706e+00   3.547870800000000e+00 -4.13691010e-01  -1.49521754e+00  -9.74851300e-02
C     7.410292169800000e+00   3.662618979363344e-01  -2.000204999999973e-01  8.98336140e-01  -1.33537690e+00  -1.55245740e-01
C     8.672186604599998e+00   1.051491530364475e+00  -1.743096000000008e-01 -6.69893340e-01   1.14432889e+00  -1.10859370e-01
C     8.551420042799998e+00   3.700607329186768e-01   3.565340400000000e+00  2.07587477e+00  -2.67422830e-01   4.40142000e-02
C     9.809783463700001e+00   1.071396049183460e+00   3.550088100000000e+00  2.78455470e-01  -7.76697770e-01   2.09821910e-01
C     1.115719722810000e+01   2.470561588691196e+00  -1.222008000000017e-01 -1.85140700e-02   1.12093206e+00   4.33552600e-02
C     2.517685874700000e+00   3.238153563583338e+00  -1.079706000000016e-01 -1.24796580e-01  -2.45121888e+00  -4.01129800e-02
C     2.417836711300000e+00   2.516546209488511e+00   3.626695500000000e+00  1.79283690e-01  -4.76314160e-01   2.41868190e-01
C     3.644524241300000e+00   3.203538635240143e+00   3.636280200000000e+00  8.94312930e-01  -2.28555350e-01  -7.86091700e-02
C     3.745982606000000e+00   2.519281169155151e+00  -1.397748000000014e-01  4.23416100e-02  -1.46084682e+00  -1.77008020e-01
C     4.994616277500000e+00   3.187899949886652e+00  -2.064885000000025e-01 -1.61466644e+00   1.18267183e+00   5.23485790e-01
C     4.875474347899999e+00   2.482087374256890e+00   3.611101500000000e+00  7.29935640e-01   2.67760490e-01  -9.38269100e-02
C     6.104856566600000e+00   3.207686801141223e+00   3.564964200000000e+00  7.55756200e-01   5.27314240e-01  -1.38449650e-01
C     6.183144177799999e+00   2.475770128913681e+00  -2.106543000000016e-01  1.45158159e+00   3.03929070e-01  -4.47465170e-01
C     7.439323214300000e+00   3.217361926965586e+00  -2.415482999999981e-01 -2.36798790e-01  -1.66055963e+00   3.39092320e-01
C     7.371279058500001e+00   2.482675882859172e+00   3.504675600000000e+00 -1.97946195e+00   1.51486158e+00   4.06862690e-01
C     8.573586506000000e+00   3.183888920493882e+00   3.545684400000000e+00  1.61633841e+00   4.92851470e-01   1.69385330e-01
C     8.666036133799999e+00   2.508866308852904e+00  -1.843059000000018e-01  6.04264770e-01  -1.55939652e+00   9.53941400e-02
C     9.924350599800000e+00   3.180077447776029e+00  -1.317281999999977e-01 -1.05754493e+00   7.63427790e-01  -6.33086630e-01
C     9.820596975000001e+00   2.471056765908931e+00   3.587787900000000e+00  4.11446290e-01   1.49616334e+00  -2.01546460e-01
C     1.107215946090000e+01   3.237261236988179e+00   3.636643800000000e+00 -2.12459598e+00  -1.29520288e+00  -2.96223410e-01
C     1.236128534230000e+01   4.616389305283756e+00  -1.078979999999987e-01 -1.73825280e-01   9.71247000e-01   9.42995500e-02
C     3.733018678000000e+00   5.335334793641652e+00  -1.178436000000005e-01 -1.81164800e-02  -4.91796160e-01  -1.49046000e-01
C     3.663579135000000e+00   4.612279735710047e+00   3.631172400000000e+00 -4.49192310e-01   1.12325615e+00  -1.26575370e-01
C     4.873988002199999e+00   5.362538714789256e+00   3.576365400000000e+00  1.09975794e+00  -1.35993320e-01   2.37841090e-01
C     4.948214180800000e+00   4.624909615330805e+00  -1.780535999999984e-01  1.25890788e+00  -4.62599850e-01  -2.89487970e-01
C     6.187385851199999e+00   5.323233478769606e+00  -2.713722000000018e-01  9.50369100e-01  -1.16971840e-01   5.62539820e-01
C     6.124987482100000e+00   4.665583398560083e+00   3.574514400000000e+00  1.75558930e-01  -1.31272761e+00  -3.79310030e-01
C     7.395449911800000e+00   5.349087553140532e+00   3.540947100000000e+00 -1.80160630e+00   3.71731690e-01   6.64124380e-01
C     7.460640632900001e+00   4.607736725964372e+00  -2.594093999999991e-01 -1.94269389e+00   1.35772373e+00  -7.95129500e-02
C     8.659993975099999e+00   5.350161675268811e+00  -2.399084999999985e-01  5.90989490e-01  -6.67584560e-01  -1.50427550e-01
C     8.604383279299999e+00   4.608649375404474e+00   3.598781700000000e+00 -7.89710990e-01   6.54557580e-01  -5.56874460e-01
C     9.801025121500000e+00   5.358765582228458e+00   3.618008700000000e+00  5.04982140e-01  -6.71015770e-01   2.85756540e-01
C     9.885828516499998e+00   4.624944198323249e+00  -2.251928999999997e-01  1.90120070e-01  -1.26706607e+00   8.85253910e-01
C     1.111144115860000e+01   5.279012163636411e+00  -1.423695000000009e-01  8.61976630e-01   2.87458408e+00  -2.75992990e-01
C     1.101970716960000e+01   4.644188993192548e+00   3.630936300000000e+00  1.60612113e+00   2.52213050e-01   1.69607110e-01
C     1.228791545540000e+01   5.331662677574833e+00   3.649237800000000e+00 -6.54070860e-01   4.54254530e-01  -4.21104080e-01
C     1.362503641510000e+01   6.739379609127766e+00  -1.478733000000005e-01 -9.44370170e-01   7.06884900e-01  -1.45985600e-02
C     4.970607128200000e+00   7.460570174121064e+00  -1.763088000000010e-01  1.49922655e+00   1.89491900e-01  -3.06375860e-01
C     4.912348480100000e+00   6.793598568511155e+00   3.579482700000000e+00 -1.61094778e+00  -8.68343190e-01   4.37273100e-01
C     6.123849983200000e+00   7.491732951307404e+00   3.636418500000000e+00  5.13125000e-01  -2.82967980e-01  -8.15049420e-01
C     6.233182543899999e+00   6.742949598629243e+00  -2.425025999999981e-01 -2.15688956e+00  -4.15076610e-01  -1.44826790e-01
C     7.434759759799999e+00   7.440572665477951e+00  -3.069528000000012e-01  4.18265140e-01   1.00165990e+00   4.68999480e-01
C     7.350603624500000e+00   6.797795662942284e+00   3.599676600000000e+00  7.34081180e-01  -1.93113690e+00   2.26014800e-02
C     8.587237182999999e+00   7.460946061362394e+00   3.632311500000000e+00 -6.78893460e-01   2.02483341e+00  -7.86538000e-02
C     8.670103087999999e+00   6.764772320762455e+00  -2.551799999999993e-01  1.27754570e-01  -5.51175100e-01  -4.91527370e-01
C     9.900100915800000e+00   7.467333241201434e+00  -2.880018000000000e-01  5.47448950e-01  -1.34804568e+00   5.50325480e-01
C     9.800985089899999e+00   6.775583647321288e+00   3.662086200000000e+00  2.68495510e-01  -6.23428930e-01  -2.95126450e-01
C     1.102216413370000e+01   7.475405765538912e+00   3.651505800000000e+00  1.81099706e+00   1.97683460e-01  -5.28451210e-01
C     1.114765856550000e+01   6.745605401668733e+00  -1.772625000000012e-01 -6.94507190e-01  -8.55729150e-01  -4.91734750e-01
C     1.238248508180000e+01   7.442988351542744e+00  -1.911924000000020e-01 -6.00308180e-01   1.22614869e+00   3.41747750e-01
C     1.227099387130000e+01   6.761380028069066e+00   3.593410200000000e+00  6.51654000e-01  -7.02148600e-02   7.48892780e-01
C     1.352915407760000e+01   7.487327334240353e+00   3.621173700000000e+00 -1.24030385e+00  -9.46809400e-02  -6.90556640e-01
