64
Lattice="9.86 0 0 4.93 8.53901048131456 0 0 0 30 " PBC="1 1 1" Properties=species:S:1:pos:R:3:force:R:3 Energy="-516.22907221"
C     4.914522708700001e+00   8.343991008300948e+00   9.931500000000000e-02  1.58635354e+00   1.77085689e+00  -2.57942500e-02
C     1.241381296400000e+00   5.238141556215568e-01   1.026411000000000e-01 -1.91598880e-01   5.11629410e-01   3.02902900e-02
C     1.189341498200000e+00   9.085848711139199e-01   3.357758700000000e+00  1.43046765e+00  -9.88859820e-01   5.11657600e-02
C     2.465445770600000e+00   1.594663793524402e+00   3.339694500000000e+00 -5.92127790e-01   7.41631870e-01   1.09887270e-01
C     7.427866387300000e+00   8.385868706617803e+00   9.089790000000000e-02 -1.46419153e+00  -1.12860464e+00   1.41040620e-01
C     3.704821592300000e+00   5.549078522131143e-01   8.068650000000001e-02  9.17023940e-01  -4.21632500e-02  -8.81147700e-01
C     3.694436990999999e+00   8.744484689180241e-01   3.408766800000000e+00 -5.48299730e-01   2.46661500e-02   1.90854490e-01
C     4.925805506700000e+00   1.580437204333988e+00   3.417719400000000e+00 -5.35718940e-01   8.81043220e-01  -2.36431390e-01
C     9.877928881700001e+00   8.368361685771287e+00  -1.168919999999929e-02 -3.08375150e-01  -3.55211510e-01   3.18910220e-01
C     6.180493119599999e+00   5.483281176877505e-01   1.269720000000000e-02 -4.67025460e-01  -8.45063010e-01   2.03074870e-01
C     6.155799982100000e+00   9.192443740664185e-01   3.424852500000000e+00  7.28658380e-01  -1.75992424e+00   2.29948190e-01
C     7.413123419499999e+00   1.596995541116175e+00   3.423121500000000e+00 -1.59323130e+00   3.57494120e-01  -2.30763670e-01
C     1.235418052210000e+01   8.409477021232487e+00   1.811370000000000e-02 -1.16867540e+00  -1.74577314e+00  -5.00526250e-01
C     8.643194457800000e+00   5.479004840429119e-01   8.612460000000000e-02 -1.72691300e-01   1.90065760e-01  -2.03231290e-01
C     8.612745890399999e+00   8.677135805722384e-01   3.417396600000000e+00  4.05873830e-01   2.13578060e-01  -2.88499710e-01
C     9.815366491499999e+00   1.599205266248190e+00   3.317830200000000e+00  1.36244185e+00   9.89615300e-02   6.53787730e-01
C     1.213964136700000e+00   1.951088665997671e+00   5.752860000000000e-02  9.88808150e-01  -1.53956800e-02  -7.67424760e-01
C     2.466663086200000e+00   2.686593003478384e+00  -1.203962999999995e-01 -4.45060080e-01  -1.54342765e+00   8.78358030e-01
C     2.499684029000000e+00   3.048799554557557e+00   3.309183900000000e+00 -2.28269754e+00  -1.86256485e+00   1.52295430e-01
C     3.699923883799999e+00   3.729457742335125e+00   3.330430500000000e+00  3.73162100e-01   6.17544230e-01   2.07071260e-01
C     3.691564033500000e+00   1.974883814161658e+00  -4.447919999999783e-02  8.46138890e-01  -9.34763300e-02   3.96276820e-01
C     4.964024690800000e+00   2.666063002141740e+00  -9.027000000010332e-04 -1.79224478e+00   5.31888200e-02  -1.94066340e-01
C     4.909655664799999e+00   2.996724740705696e+00   3.371328600000000e+00  8.91103780e-01   8.98598410e-01   1.51787050e-01
C     6.144095422600000e+00   3.729175271868447e+00   3.408001800000000e+00  9.28636400e-02   7.03853100e-02  -1.31056730e-01
C     6.150502351999999e+00   1.938956696078002e+00   8.771250000000000e-02  1.52195711e+00   1.13095671e+00  -4.35520750e-01
C     7.401239062899999e+00   2.661280558542205e+00   9.071340000000000e-02 -7.87534050e-01   2.58680450e-01   1.13513000e-03
C     7.381407644899999e+00   3.029845256824787e+00   3.382607700000000e+00  2.97198120e-01  -7.83384940e-01   3.95249930e-01
C     8.610378208600000e+00   3.720305801682871e+00   3.386749500000000e+00  6.30253680e-01   1.26046439e+00   1.30126040e-01
C     8.634246409199999e+00   1.979877683660677e+00   6.720630000000000e-02 -1.36129310e+00  -1.93243188e+00   5.20908300e-01
C     9.829088949299999e+00   2.630548830604895e+00   5.336580000000000e-02  2.21392488e+00   2.49946001e+00  -6.67901450e-01
C     9.868329777299998e+00   3.013653585152611e+00   3.342879600000000e+00 -9.24110670e-01   8.52779100e-01  -6.00002700e-02
C     1.110017467890000e+01   3.745995329321846e+00   3.338345700000000e+00  3.29631640e-01  -3.32327480e-01  -2.46862840e-01
C     2.502067191000000e+00   4.084109318502013e+00  -1.748478000000020e-01 -1.14849091e+00   5.50880610e-01  -6.98045000e-03
C     3.716535469500000e+00   4.799152137510131e+00  -1.155378000000020e-01  4.67888030e-01   9.94808330e-01  -2.65625950e-01
C     3.666183407500000e+00   5.148932208198178e+00   3.370728600000000e+00  1.63245929e+00   6.97181190e-01  -1.85911490e-01
C     4.924602685300000e+00   5.862661642004367e+00   3.374384400000000e+00 -4.83068490e-01  -7.37453550e-01   4.76194540e-01
C     4.972578931000000e+00   4.084220154858043e+00  -4.690919999999821e-02 -2.16707685e+00  -9.67604600e-02   5.11210000e-03
C     6.154896165200000e+00   4.782426521512640e+00   1.944870000000000e-02  1.65951672e+00   1.50634402e+00   6.81500630e-01
C     6.153514532699999e+00   5.162862579115040e+00   3.429336000000000e+00  1.13018340e-01  -1.83643430e-01  -3.71526640e-01
C     7.383833500700000e+00   5.915002531422784e+00   3.439068300000000e+00 -2.43506000e-02  -2.55620468e+00   1.97905470e-01
C     7.386808410599999e+00   4.079540947895213e+00   9.892650000000000e-02  6.29511550e-01   2.11344100e-01  -4.37699040e-01
C     8.630519033399999e+00   4.804048833069887e+00   4.841760000000000e-02 -1.10783890e-01  -6.55522680e-01  -3.07085830e-01
C     8.604774031100000e+00   5.164433415482942e+00   3.449735700000000e+00  7.20106340e-01  -3.61248360e-01  -4.91373950e-01
C     9.869395248900000e+00   5.855635231840795e+00   3.411601800000000e+00 -1.20090337e+00   2.53752540e-01   3.84540010e-01
C     9.855642471600000e+00   4.072879495039555e+00  -7.889039999999881e-02  1.49878490e-01   1.11547000e-02   6.31747540e-01
C     1.110227387290000e+01   4.768360636499460e+00  -1.807611000000016e-01  1.60029270e-01   1.23085949e+00   3.43405660e-01
C     1.110215017920000e+01   5.174821890242804e+00   3.351705600000000e+00 -5.26827700e-01  -8.60812520e-01   2.87139100e-01
C     1.232031260530000e+01   5.888566779657962e+00   3.387087300000000e+00  7.61980000e-03  -9.41392380e-01  -2.85503750e-01
C     3.685913957700000e+00   6.259060098847556e+00  -1.037475000000008e-01  1.02509620e+00  -1.18727463e+00   3.89949910e-01
C     4.942780778500000e+00   6.964205094637991e+00   4.869450000000000e-02 -8.15203440e-01  -2.13211835e+00  -2.39578470e-01
C     4.954839607799999e+00   7.267883303914833e+00   3.409125000000000e+00 -1.25676376e+00   8.16865710e-01   6.95653400e-02
C     6.149564173000000e+00   8.001400528266746e+00   3.429918600000000e+00  3.86743980e-01   9.47183780e-01  -3.74286110e-01
C     6.175174290499999e+00   6.220509199013709e+00   9.901680000000000e-02 -5.83022030e-01   4.15883810e-01  -5.82915630e-01
C     7.397096679699999e+00   6.945357449146115e+00   9.489630000000000e-02  5.35021050e-01  -7.93352000e-02   1.38704860e-01
C     7.386928406799999e+00   7.303005961821170e+00   3.435642000000000e+00 -6.57088320e-01   7.56000950e-01   3.64143310e-01
C     8.597868235000000e+00   7.999589233363728e+00   3.489440400000000e+00  1.35471321e+00  -1.22999370e-01  -4.07149950e-01
C     8.627949270899999e+00   6.218529856384445e+00   4.914090000000000e-02  2.84482460e-01   5.08121990e-01  -3.51672750e-01
C     9.865945432100000e+00   6.928018646806057e+00  -5.943990000000099e-02  2.36843260e-01   4.19471400e-01   2.75821970e-01
C     9.837975865899999e+00   7.270160572619744e+00   3.485616600000000e+00  5.73124330e-01   1.22028065e+00  -4.41529260e-01
C     1.107411627650000e+01   8.018558901315362e+00   3.431397900000000e+00  3.64264280e-01  -5.37797430e-01   1.30692610e-01
C     1.111880362060000e+01   6.222948367357321e+00  -1.421472000000001e-01 -1.59960712e+00  -6.04091690e-01  -1.27005620e-01
C     1.231142061080000e+01   6.961736893658747e+00  -1.252653000000024e-01  1.32690030e+00   5.24909340e-01   4.70565440e-01
C     1.232518502290000e+01   7.288540621897735e+00   3.397748400000000e+00 -8.71541100e-02   1.29854293e+00   3.62520320e-01
C     1.358095348900000e+01   7.989332173975152e+00   3.430266000000000e+00 -9.80453060e-01  -2.61097560e-01  -2.74476500e-01
