64
Lattice="9.86 0 0 4.93 8.53901048131456 0 0 0 30 " PBC="1 1 1" Properties=species:S:1:pos:R:3:force:R:3 Energy="-514.57748344"
C     9.806096908299999e+00   5.723779845343561e-01   4.092900000000000e-02  1.33840033e+00   1.66014930e-01  -6.42393700e-01
C     1.204294927700000e+00   1.307005451028878e+00  -3.067680000000195e-02 -1.14510169e+00   2.69233420e-01   1.15814810e-01
C     1.265436689100000e+00   1.096420046345624e-01   3.591123000000000e+00  1.25528677e+00   2.68884090e-01   8.10110470e-01
C     2.527964234500000e+00   8.168754716081960e-01   3.609641700000000e+00 -1.60446909e+00   9.35519190e-01  -7.59530670e-01
C     2.441574020400000e+00   6.045241995576783e-01  -1.053900000000141e-02 -2.01792180e-01   4.55075100e-02  -6.16106130e-01
C     3.685220257400000e+00   1.303096889761867e+00  -1.681955999999971e-01 -8.63014570e-01  -9.80103640e-01   8.61004430e-01
C     3.754857197600000e+00   1.182784452241392e-01   3.633390000000000e+00 -4.67638480e-01  -5.32988360e-01  -8.04226440e-01
C     4.968296042800000e+00   8.292397026129217e-01   3.519389400000000e+00 -2.63809720e-01   3.77856300e-02   1.42965200e-02
C     4.890513904499999e+00   5.919816740141304e-01  -4.398690000000016e-02  1.46452135e+00  -1.63461230e-01  -6.61670400e-02
C     6.152520743299999e+00   1.340280608627761e+00   6.114810000000000e-02 -1.60153054e+00  -1.22066146e+00  -1.33768377e+00
C     6.193556929400001e+00   1.419178418369712e-01   3.499201800000000e+00  3.74025280e-01  -1.39592168e+00  -3.35941200e-02
C     7.431939158900000e+00   8.123134198691512e-01   3.547208400000000e+00  6.70108660e-01  -6.89270700e-01   3.56956790e-01
C     7.360427043900000e+00   5.851805229470201e-01  -4.214939999999956e-02 -3.14829880e-01   1.14289530e-01   2.59661960e-01
C     8.597247548000000e+00   1.313789780245342e+00  -3.094979999999836e-02 -1.27291680e-01  -8.88261470e-01   5.58685070e-01
C     8.679842795999999e+00   1.195664695649424e-01   3.631383300000000e+00 -8.43975010e-01   1.28637569e+00  -8.96641660e-01
C     9.884203144799999e+00   8.708193894640239e-01   3.586156800000000e+00  9.90732190e-01  -3.37034309e+00   7.74406200e-02
C     1.101986862710000e+01   2.756235379761063e+00  -1.599287999999994e-01  2.04755406e+00  -1.59101096e+00  -6.59692120e-01
C     2.430323957600000e+00   3.428552576711662e+00  -3.511032000000007e-01 -1.18458547e+00  -1.20053111e+00   1.16290247e+00
C     2.483909951700000e+00   2.250702050115719e+00   3.407853900000000e+00  1.44735930e+00   4.72757810e-01   5.89320600e-02
C     3.753660440100000e+00   2.981870021904374e+00   3.274614900000000e+00 -1.51510401e+00  -1.38999996e+00   1.51181972e+00
C     3.670251939300000e+00   2.686609825329029e+00  -2.704322999999995e-01 -7.66547440e-01   2.30643057e+00   1.55694800e-01
C     4.856686561600000e+00   3.453016158616024e+00  -1.373657999999978e-01  1.37921158e+00  -1.30350339e+00   4.17845680e-01
C     4.966678016800000e+00   2.243536539471427e+00   3.434079000000000e+00 -4.80657790e-01   3.05060740e-01   1.67389870e-01
C     6.186966258899999e+00   2.905467567194993e+00   3.576190500000000e+00  1.59658748e+00   2.18534460e+00  -1.14924331e+00
C     6.097343345200000e+00   2.768981816874874e+00   2.867400000000000e-03  1.53998218e+00  -8.29336980e-01   1.52815130e-01
C     7.374918335199999e+00   3.452430553277306e+00   2.325300000000000e-02 -1.22755422e+00   7.00366830e-01   1.26634780e-01
C     7.438997735700001e+00   2.185105713168779e+00   3.565914300000000e+00  2.14938510e-01   3.69804901e+00   1.21725950e-01
C     8.681297047399999e+00   2.984226020285910e+00   3.505258500000000e+00 -1.79159594e+00  -4.42969620e-01  -4.91740330e-01
C     8.610659415799999e+00   2.738988713344083e+00  -6.449999999986744e-04 -1.05870294e+00   2.61148230e-01  -3.51809430e-01
C     9.817864670399999e+00   3.472709849266258e+00  -1.436838000000016e-01  5.33912800e-02  -6.11207160e-01   4.60969390e-01
C     9.875278612300001e+00   2.228321303647639e+00   3.472843200000000e+00  1.33466036e+00   3.83409239e+00   2.74321480e-01
C     1.113243482410000e+01   3.002488316609382e+00   3.413123100000000e+00 -5.86828260e-01  -3.08331225e+00  -6.59464010e-01
C     1.225119711120000e+01   4.831299035654292e+00  -2.980248000000003e-01  2.43918597e+00  -8.35593600e-02  -4.01486130e-01
C     3.664197110500000e+00   5.493165508458628e+00  -1.885559999999984e-01 -1.69755440e+00   2.92075579e+00  -1.22108530e-01
C     3.705075142200000e+00   4.382959998203988e+00   3.366054600000000e+00  1.07627364e+00   1.09179016e+00  -6.62798330e-01
C     4.961584784499999e+00   5.114285856296417e+00   3.472154100000000e+00  8.59593600e-02  -2.15401730e-01   1.22527000e-01
C     4.874629099400000e+00   4.848728863846067e+00  -5.015369999999919e-02  2.32708020e-01  -1.71629100e-02  -7.20144310e-01
C     6.080651400499999e+00   5.594282250420063e+00   4.051799999999999e-03  1.87454865e+00  -1.07375345e+00   1.51349970e-01
C     6.230645368699999e+00   4.385193888735660e+00   3.519447300000000e+00 -1.92373829e+00  -4.98488100e-01   8.18510840e-01
C     7.430082027899999e+00   5.133031887563580e+00   3.632960400000000e+00  8.85751960e-01  -1.47951992e+00  -1.24521634e+00
C     7.336015310799999e+00   4.901908796434249e+00   3.661170000000000e-02  2.08431560e-01  -1.58574940e+00  -4.95376480e-01
C     8.567449444799999e+00   5.585786874283616e+00  -5.861249999999885e-02  1.34422296e+00  -5.67654510e-01  -8.96880700e-02
C     8.659613724200000e+00   4.454288402105942e+00   3.399358200000000e+00  1.21610650e-01  -3.01352029e+00   1.47968514e+00
C     9.912756768100000e+00   5.090703841834011e+00   3.353534100000000e+00 -1.40694857e+00   1.76273658e+00  -2.60704930e-01
C     9.854425846200000e+00   4.878384847243106e+00  -1.870380000000011e-01 -2.69403166e+00   1.87906200e-02   2.18771000e-02
C     1.106331425210000e+01   5.556043024468736e+00  -3.069582000000004e-01 -6.98766570e-01   9.09831780e-01   6.43023470e-01
C     1.111947301600000e+01   4.380961528191247e+00   3.259032600000000e+00 -8.17206500e-02   7.68589490e-01   6.08234620e-01
C     1.232044201780000e+01   5.098882079121230e+00   3.289385100000000e+00  2.20314758e+00   9.38789070e-01   9.39545000e-02
C     1.353038159830000e+01   6.939687375407186e+00  -1.591676999999976e-01 -1.09349040e+00   5.55235600e-01   5.10708030e-01
C     4.906931445400000e+00   7.667228914835089e+00   4.727100000000000e-03 -1.14214011e+00   9.40097510e-01  -5.88227850e-01
C     4.964218982099999e+00   6.560420222949393e+00   3.558074700000000e+00  1.84521507e+00  -1.66901071e+00   1.10784460e-01
C     6.274505409500000e+00   7.205428041972961e+00   3.672200400000000e+00 -3.92589806e+00   2.24721040e+00  -3.70936620e-01
C     6.159725297400000e+00   6.991782255933676e+00  -1.737539999999882e-02 -1.64351681e+00   6.61125540e-01   7.95271730e-01
C     7.366626913299999e+00   7.724090783352143e+00   4.567080000000000e-02  3.89126590e-01  -4.68946900e-01  -4.37854810e-01
C     7.479634986200000e+00   6.529339334873555e+00   3.687327300000000e+00 -1.68722463e+00  -7.43802400e-01  -3.09046070e-01
C     8.655422484699999e+00   7.219479154498011e+00   3.574652100000000e+00  2.10358391e+00   1.55111489e+00   4.31625080e-01
C     8.586846086100000e+00   6.982117547702097e+00  -3.332580000000007e-02 -3.92141650e-01   1.14813231e+00  -5.06992300e-02
C     9.804322847799998e+00   7.688692059236989e+00  -1.000082999999989e-01  6.74513950e-01   8.25598750e-01   1.86399710e-01
C     9.869933604899998e+00   6.527842702506725e+00   3.430545600000000e+00  2.48191884e+00  -1.98307160e-01  -2.62132660e-01
C     1.114751603920000e+01   7.256544522678651e+00   3.398884800000000e+00 -1.18207011e+00  -5.02813940e-01   1.97563560e-01
C     1.103565907200000e+01   6.981299595888218e+00  -2.071578000000009e-01 -6.37725730e-01  -3.08977320e-01   4.56229500e-02
C     1.222740281130000e+01   7.672674668768710e+00  -1.631736000000004e-01  3.61415138e+00   1.13377923e+00   2.53104250e-01
C     1.238844441650000e+01   6.543700157308714e+00   3.342315900000000e+00 -1.13479353e+00  -1.95231300e-01   5.18264630e-01
C     1.360974449180000e+01   7.281274692490198e+00   3.516649200000000e+00  4.09231800e-02  -1.94845772e+00  -1.57662140e-01
