64
Lattice="7.10842262195238 0 0 0 7.10842262195238 0 0 0 7.10842262195238 " PBC="1 1 1" Properties=species:S:1:pos:R:3:force:R:3 Energy="-512.10112971"
C     7.072042637125780e+00   1.986811230712620e-02   3.944101182284380e-02  1.78340911e+00  -1.03181771e+00  -8.01388760e-01
C     1.822844373843033e+00   1.822328160192368e+00   4.831331843177060e-02 -1.17250203e+00  -1.63225052e+00  -1.53071135e+00
C     1.125263300746000e-04   1.791952093231453e+00   1.777534079631307e+00 -6.84332300e-02   5.76527210e-01   2.03448700e-01
C     1.762548884990311e+00   6.537644717304480e-02   1.783234892404095e+00 -7.25713800e-02  -3.18670886e+00  -1.00059930e-01
C     8.770742177374501e-01   9.132708743922997e-01   9.009735875966045e-01  1.85849210e-01   4.93358700e-01  -2.20414140e-01
C     2.701213319676490e+00   2.669705805087149e+00   9.120736027704132e-01 -1.04736221e+00   9.96696300e-02   3.13927610e-01
C     9.153168205907881e-01   2.698973171372023e+00   2.663923529791137e+00 -1.55363543e+00  -9.22304720e-01   8.60344760e-01
C     2.626058028757789e+00   8.974282618148796e-01   2.678448951657070e+00  1.31978486e+00  -4.14661930e-01  -1.29887220e-01
C     3.527971136572079e+00   7.062865094849551e+00   5.506767052106840e-02  1.25044770e+00   1.15480620e+00  -9.61773690e-01
C     5.319402822183523e+00   1.742412714066185e+00   5.740058374072620e-02 -1.28026900e-02   2.11977087e+00  -1.70219680e+00
C     3.522891599936280e+00   1.726526669026557e+00   1.798240772554915e+00  1.53362066e+00   2.48624709e+00  -3.09566970e-01
C     5.320087576534507e+00   2.331079246621840e-02   1.845429538528202e+00 -3.74267640e-01  -7.51416750e-01  -2.69030247e+00
C     4.421606983834963e+00   8.862683226383844e-01   9.374919003750091e-01  2.04568950e-01  -9.58896920e-01  -6.25228450e-01
C     6.233117404315763e+00   2.699306272055996e+00   8.850457450319705e-01  5.76914830e-01  -1.08731835e+00  -3.28435920e-01
C     4.473539768896385e+00   2.689648769084464e+00   2.603936475395897e+00 -7.13063050e-01  -1.74912702e+00   1.79476055e+00
C     6.206227521060375e+00   8.709435586488311e-01   2.653960577899623e+00  2.02456384e+00   1.41516042e+00   1.73365814e+00
C     8.330012155669619e-02   3.568352663791776e+00   7.067106193037321e+00 -2.97989346e+00  -5.03005360e-01   1.08628139e+00
C     1.831611760134088e+00   5.338172398858954e+00   7.087539424942737e+00 -1.72715901e+00  -5.53766320e-01   1.50411795e+00
C     7.053266520701539e+00   5.345865133818318e+00   1.722081345856914e+00  2.56984289e+00  -2.15593990e-01   1.56870805e+00
C     1.770288464454741e+00   3.596304474302366e+00   1.813905603482609e+00  4.48403440e-01  -1.49965570e+00  -2.39392085e+00
C     8.987767295858935e-01   4.458817656976556e+00   8.770030624270240e-01  1.41945250e-01   8.05131000e-02  -3.60641100e-01
C     2.675038899157804e+00   6.197309365125548e+00   9.132275840985440e-01 -4.04331880e-01   2.45117820e-01  -1.83627920e-01
C     9.062200299955218e-01   6.211776000336416e+00   2.660400240119534e+00 -1.95441636e+00   1.24094462e+00  -1.19729107e+00
C     2.670096483994345e+00   4.440032868276718e+00   2.609772561451143e+00  2.42271580e-01  -2.83581430e-01   2.62202688e+00
C     3.572024803833041e+00   3.524066266774235e+00   1.292432075500540e-02 -4.46973360e-01   1.28438155e+00  -7.46890270e-01
C     5.315633510005042e+00   5.354836816175473e+00   7.072768549243735e+00  2.94311920e-01  -7.39443130e-01   1.52093133e+00
C     3.565977810878660e+00   5.255166423830273e+00   1.770038390146970e+00 -6.82037700e-02   3.81139095e+00  -3.53971020e-01
C     5.351681387374454e+00   3.587108379043098e+00   1.754505918048460e+00  8.12910200e-02  -7.47253870e-01  -2.73994500e-01
C     4.461111971461387e+00   4.441493435872449e+00   8.815016276820909e-01 -1.59571350e-01  -5.84215900e-02  -8.12817320e-01
C     6.204184773652065e+00   6.230639834695788e+00   9.044390147080806e-01 -8.23258220e-01   6.53038310e-01  -7.16879480e-01
C     4.428260680659961e+00   6.276075947987888e+00   2.656439853541027e+00 -6.27084420e-01  -2.89951459e+00   1.23404926e+00
C     6.214333113205508e+00   4.474388727809892e+00   2.642223861311741e+00  2.91160100e-02  -4.84276200e-01   1.03071660e-01
C     7.104864427973332e+00   7.081514397014251e+00   3.580221597040390e+00 -3.40979150e-01   6.98373500e-02  -8.29881860e-01
C     1.770240909107414e+00   1.732157463836537e+00   3.526171781554279e+00 -6.10919650e-01   2.16699501e+00   2.28375063e+00
C     3.789293954466020e-02   1.741775515062528e+00   5.342980393750669e+00 -1.24845626e+00   6.66551050e-01   2.86926640e-01
C     1.785707770465140e+00   7.076587549296329e+00   5.359148643168312e+00  9.54183900e-02   2.58398070e-01  -3.14424630e-01
C     9.022619181122533e-01   8.245344444685061e-01   4.463263477735782e+00 -6.63081450e-01   1.48672510e+00  -4.28576530e-01
C     2.662092826629582e+00   2.662779713507352e+00   4.457149949945677e+00  7.78369700e-02  -1.06308175e+00  -2.08764756e+00
C     9.499300050228066e-01   2.655847011094519e+00   6.221385876876393e+00 -1.22380899e+00   7.71824770e-01  -1.03995800e+00
C     2.662130501269468e+00   8.682882073791302e-01   6.274817117426112e+00  6.25605420e-01   2.15935920e-01  -1.06417015e+00
C     3.510516049407538e+00   1.256946829781500e-02   3.565931677215856e+00  1.61043817e+00  -1.11661460e-01   3.60706000e-03
C     5.394770157348977e+00   1.798616665943061e+00   3.541868671467989e+00 -2.67881100e+00  -5.81571560e-01  -3.62522500e-02
C     3.564259491878727e+00   1.756304206802868e+00   5.319324558450476e+00 -9.37216930e-01   1.56932922e+00   1.83331461e+00
C     5.303633070937957e+00   2.656502834165440e-02   5.385006028038146e+00 -1.16091320e-01  -1.42340007e+00  -1.64699712e+00
C     4.457515393952571e+00   9.277264204638794e-01   4.492401968318555e+00 -4.74975400e-01  -1.18137001e+00  -2.15347762e+00
C     6.182073172081840e+00   2.658443646793379e+00   4.443179411549460e+00  3.92218424e+00   8.42851600e-01   7.02825000e-02
C     4.419410410161157e+00   2.692404704534238e+00   6.207205071339077e+00  1.44494100e+00  -1.88860989e+00   7.12316160e-01
C     6.194417516635280e+00   8.652488591194968e-01   6.252610902750815e+00  9.90190060e-01   9.04475720e-01   1.89444640e-01
C     1.290249789756200e-02   3.623185827450610e+00   3.564278187030218e+00 -7.68645580e-01  -2.06354985e+00  -1.23651375e+00
C     1.763160778009441e+00   5.339350619908219e+00   3.490068103067299e+00  1.54138618e+00   3.23483530e-01   6.82814690e-01
C     2.803824892964940e-02   5.321069960540591e+00   5.335119828933247e+00 -1.32626283e+00   1.23772192e+00  -4.32761830e-01
C     1.773758085535563e+00   3.586237384019469e+00   5.274996363907930e+00  3.91934580e-01  -9.98676800e-01   9.34136160e-01
C     8.984378710795980e-01   4.509170737279135e+00   4.369029322673454e+00 -5.02080790e-01  -1.92900784e+00   2.38272452e+00
C     2.653993418812127e+00   6.203019276679290e+00   4.402404930727331e+00  2.38132800e-01  -2.77245370e-01   1.57496786e+00
C     9.336962870328339e-01   6.183496846964174e+00   6.244456404658056e+00 -1.94109471e+00   1.41509482e+00  -4.84383220e-01
C     2.652016921902636e+00   4.443123183926536e+00   6.189923003181106e+00  2.33452690e-01  -1.16394752e+00   1.35575167e+00
C     3.557513172306990e+00   3.510600710720943e+00   3.499952933394218e+00 -1.73883040e-01   5.60266130e-01   1.38369359e+00
C     5.309639403714953e+00   5.317715140485082e+00   3.508977857836797e+00 -5.37169490e-01   1.07508745e+00   2.05667699e+00
C     3.513830706875245e+00   5.257918236394928e+00   5.338423184008987e+00  1.90756052e+00   2.16386106e+00  -1.71750427e+00
C     5.358628164464076e+00   3.565373026282150e+00   5.291977177115265e+00 -1.56428862e+00  -1.25960027e+00   2.03319234e+00
C     4.425320565980103e+00   4.355432758391276e+00   4.445626486036396e+00  2.79104500e-02   2.87405639e+00  -1.70210778e+00
C     6.167981221827274e+00   6.226918504369992e+00   4.437002192292680e+00  1.35920947e+00  -5.20195920e-01   8.91707690e-01
C     4.410002910413170e+00   6.201950383169921e+00   6.234598586337092e+00 -1.79137700e-01   3.13932040e-01  -5.82554670e-01
C     6.196601579485275e+00   4.454583809379858e+00   6.215205600997887e+00  2.35448575e+00  -3.80691960e-01  -9.96009970e-01
