64
Lattice="7.10842262195238 0 0 0 7.10842262195238 0 0 0 7.10842262195238 " PBC="1 1 1" Properties=species:S:1:pos:R:3:force:R:3 Energy="-506.60603012"
C     7.105747436231189e+00   7.070777408983647e+00   7.058589449727847e+00  2.86481090e-01  -9.80292520e-01   1.66910680e+00
C     1.775950678492702e+00   1.740543625422482e+00   5.039103927937040e-02 -3.43261610e-01   2.19093214e+00  -5.70170940e-01
C     7.104574617583115e+00   1.714633922562166e+00   1.773014615613738e+00  5.49805910e-01   4.76833300e-01   1.08333640e-01
C     1.808857983664373e+00   7.106809505654843e+00   1.697639887688758e+00 -1.78851880e+00  -2.20986603e+00   3.16772199e+00
C     8.513356856938232e-01   7.979824245402464e-01   8.752059821044618e-01  1.21599348e+00   2.27994813e+00  -6.56076600e-01
C     2.571050353323634e+00   2.770043749400593e+00   9.516667348373249e-01  2.43271237e+00  -4.86912060e+00  -1.31709441e+00
C     8.826049970411675e-01   2.632030525443113e+00   2.681790621130733e+00 -1.63730633e+00   2.26773630e-01  -2.24216110e-01
C     2.593973168083253e+00   8.787696476165464e-01   2.629643374958865e+00  4.75764198e+00   2.84855270e-01  -1.06725951e+00
C     3.587986908994703e+00   3.372043763517260e-02   7.074885508584197e+00 -7.79541360e-01  -4.82953880e-01  -1.36385390e-01
C     5.336358969164366e+00   1.796232003406729e+00   7.074157535023683e+00  3.80907350e-01   1.74081732e+00  -3.27162760e-01
C     3.518405047915441e+00   1.761321686909195e+00   1.749155052921255e+00  1.41621724e+00   1.53790532e+00   5.39332480e-01
C     5.287292655524459e+00   7.104432662383394e+00   1.695832571237623e+00  2.76970744e+00  -1.32982535e+00   1.43616982e+00
C     4.498806657099175e+00   9.401350251578038e-01   8.013510349356382e-01 -3.02738591e+00  -1.38999849e+00   2.00093311e+00
C     6.179004963626371e+00   2.670334047478305e+00   9.398971773369386e-01  1.57738310e+00  -6.11377980e-01  -6.01410870e-01
C     4.497025499643281e+00   2.643614410944665e+00   2.735202668939377e+00 -3.74383492e+00   7.39561860e-01  -3.42007476e+00
C     6.318781502898966e+00   8.102122524052777e-01   2.659852607240889e+00 -3.53383469e+00   1.76871867e+00   2.83823860e-01
C     4.991093641561560e-02   3.592489668219116e+00   5.355926324110440e-02 -3.86871414e+00  -1.41659337e+00   2.90929190e-01
C     1.862827331806425e+00   5.370042087580783e+00   7.106625113172081e+00 -3.23783766e+00  -7.83650960e-01  -1.02254220e-01
C     7.062622128964399e+00   5.266567480702039e+00   1.792369286555021e+00  1.92680759e+00   1.41158933e+00   3.99745760e-01
C     1.663665537197599e+00   3.563212563395253e+00   1.827893059924662e+00  2.32007797e+00   3.59490650e-01  -1.02330389e+00
C     8.711853871863636e-01   4.426632851879981e+00   9.127540209835995e-01  2.23369480e-01   2.08547330e+00   5.05707000e-01
C     2.689838350715740e+00   6.199342445079095e+00   8.939147106822660e-01  1.81176902e+00   5.45606080e-01  -1.35006601e+00
C     9.092896601355164e-01   6.192409600497809e+00   2.638333421611815e+00 -8.21691670e-01   5.87920220e-01   8.49296090e-01
C     2.624042222271210e+00   4.399922811716880e+00   2.642007480927188e+00  1.38445770e-01   1.16791335e+00   6.60875870e-01
C     3.476690336033364e+00   3.548989320574895e+00   4.262210202952000e-04  1.25236332e+00  -2.45934710e-01   1.16022840e-01
C     5.265585665369764e+00   5.275430475277334e+00   3.019522868946220e-02  1.08421072e+00   7.76256230e-01  -1.14325500e-01
C     3.616517558359241e+00   5.198010440911902e+00   1.718169936310258e+00 -4.66305273e+00   4.74052035e+00   2.75246412e+00
C     5.290966714839832e+00   3.531356593929081e+00   1.861559900053279e+00  1.82000105e+00   4.49336560e-01  -2.09153760e+00
C     4.432397356119444e+00   4.381978736160308e+00   8.925786826508370e-01 -2.25835200e-02  -1.09446862e+00  -6.01131610e-01
C     6.191091627859834e+00   6.061473308848123e+00   8.756585753726772e-01 -6.47598300e-02   4.96270046e+00   2.26060700e-02
C     4.413838970680053e+00   6.196488271228712e+00   2.581347187825608e+00  1.64336125e+00   1.35714246e+00   6.22886840e-01
C     6.237514105874685e+00   4.468984620597262e+00   2.758946648680058e+00 -1.35673122e+00  -2.73680772e+00  -2.38103327e+00
C     3.673597267902900e-02   7.067208838659954e+00   3.638767774170555e+00 -2.37132600e-02   2.98027570e-01  -3.59837731e+00
C     1.834723045630636e+00   1.785544845418690e+00   3.464787069103495e+00 -3.41211725e+00  -6.22073360e-01   3.36458235e+00
C     7.090546998553259e+00   1.735776006371248e+00   5.400332569133353e+00  2.39958224e+00   1.78944793e+00  -1.39260067e+00
C     1.794132886207043e+00   5.804716586224139e-02   5.308095596490340e+00  2.96780408e+00  -1.87572434e+00   7.05971040e-01
C     9.259978653353739e-01   8.051372651599550e-01   4.472906763862074e+00 -1.21916687e+00   4.70459751e+00  -1.40137512e+00
C     2.670095915320535e+00   2.697832767131096e+00   4.340044374019273e+00 -1.81721088e+00  -2.37198953e+00   4.25818136e+00
C     9.151935605425574e-01   2.706983226317143e+00   6.375480058821741e+00 -9.62838680e-01  -1.89636346e+00  -4.77813842e+00
C     2.679153965012522e+00   9.647025867432383e-01   6.168142511936521e+00 -8.54457500e-02  -1.66403282e+00   1.54942785e+00
C     3.670386890995029e+00   7.353656091967380e-02   3.554055137955038e+00 -3.61857386e+00  -2.57432114e+00  -2.86923900e+00
C     5.399816853072273e+00   1.851931754867168e+00   3.496354294442844e+00 -1.77858900e-01  -4.82933477e+00   3.88625710e+00
C     3.566576340063263e+00   1.788128899209513e+00   5.265040804775942e+00 -4.24340190e-01   1.93534915e+00   1.04546140e-01
C     5.369640888208110e+00   4.638928168121520e-02   5.369854496307841e+00 -1.22282610e+00  -1.74124584e+00  -1.90761778e+00
C     4.477433123049585e+00   9.261940577996860e-01   4.425074045883641e+00  1.57723162e+00   1.96326760e-01  -2.24793400e-02
C     6.211461808056611e+00   2.587042527112979e+00   4.517212353620689e+00  1.11582993e+00   4.31347911e+00  -1.35190706e+00
C     4.392211808111381e+00   2.720649097719867e+00   6.155066852863937e+00  9.44404840e-01  -4.91919530e-01   1.48097493e+00
C     6.245886121699616e+00   8.885265263363060e-01   6.206579459064291e+00 -9.38478370e-01  -3.94702290e-01   2.17380747e+00
C     7.090519488957720e+00   3.505927562606328e+00   3.610801960067403e+00  1.09595988e+00   1.16119539e+00   7.85780630e-01
C     1.765783714871995e+00   5.409065977164286e+00   3.597047091213478e+00  1.81072815e+00  -2.08544620e+00  -2.21510408e+00
C     7.085049699920082e+00   5.359757195228810e+00   5.389313732145865e+00  5.48685280e-01  -3.97349300e-01  -4.49281520e-01
C     1.763622398974384e+00   3.622215883184111e+00   5.411654509261358e+00 -1.27127649e+00  -2.84726313e+00  -2.82696765e+00
C     8.640008333601035e-01   4.492529066915001e+00   4.503725330131084e+00  3.65649720e-01  -1.24370918e+00   3.44600000e-03
C     2.788532756635213e+00   6.305751408815375e+00   4.352386941467058e+00 -3.46495067e+00  -2.13595638e+00   3.71044079e+00
C     9.678563095228273e-01   6.256217360967073e+00   6.194232413310256e+00 -1.67969529e+00  -1.02171179e+00   8.12839530e-01
C     2.626934141845704e+00   4.428027524398026e+00   6.220920133026332e+00  2.72181313e+00   2.15248452e+00   2.84559830e-01
C     3.457221361656350e+00   3.488079095333997e+00   3.494386825230080e+00  4.41462286e+00   3.35455562e+00   6.53826180e-01
C     5.291692200452429e+00   5.355962363813124e+00   3.468238919127767e+00  1.03258669e+00   6.60562330e-01   3.39992541e+00
C     3.560614221674965e+00   5.274304430050099e+00   5.294124133999183e+00 -5.37285580e-01   3.95301810e+00   4.91095320e-01
C     5.328635028229701e+00   3.712201049709560e+00   5.335422292315728e+00 -1.37033372e+00  -5.74142203e+00  -7.46902750e-01
C     4.391635386121125e+00   4.494719456261127e+00   4.379277748817387e+00  1.47405254e+00  -1.57713801e+00   2.42392230e-01
C     6.247331903776298e+00   6.236084033411994e+00   4.473901516523517e+00 -1.93032275e+00  -3.84017150e-01   5.01927000e-03
C     4.449747522966114e+00   6.227675551379022e+00   6.241117578553442e+00 -1.78651240e-01  -7.27030320e-01  -1.22459926e+00
C     6.151457409110179e+00   4.452449789825107e+00   6.310563953097567e+00  3.16702544e+00   5.51735450e-01  -2.59553955e+00
