64
Lattice="7.10842262195238 0 0 0 7.10842262195238 0 0 0 7.10842262195238 " PBC="1 1 1" Properties=species:S:1:pos:R:3:force:R:3 Energy="-506.56256579"
C     2.151968321865700e-02   7.066229155854466e+00   2.344983321266560e-02 -1.02400124e+00   1.34546858e+00  -1.31857870e-01
C     1.801157784861258e+00   1.796118552981714e+00   7.107043230590589e+00 -1.91455153e+00  -8.45638820e-01  -1.00501065e+00
C     2.487620929559480e-02   1.719869844495605e+00   1.836437099576997e+00 -7.80542710e-01   2.22794005e+00  -4.08966208e+00
C     1.798206012368303e+00   1.366686658189060e-02   1.755210149477423e+00 -3.11740860e-01  -1.12460359e+00   8.27007100e-01
C     8.747744297672017e-01   8.495418041614399e-01   8.764948812939202e-01  1.40254801e+00   1.91172498e+00   2.30400890e-01
C     2.676297232129996e+00   2.648429869680132e+00   8.616277575526426e-01 -3.01111370e-01  -4.39778850e-01   6.95948310e-01
C     8.986728044471891e-01   2.640068587573357e+00   2.614892758264329e+00  1.73586935e+00   5.97459640e-01   1.93824619e+00
C     2.700876664781207e+00   8.766570954981086e-01   2.679155813202403e+00 -1.22595690e-01   1.28892500e-01  -1.69620606e+00
C     3.608353321727492e+00   7.026489874618487e+00   5.714460944217999e-04 -8.06752810e-01   2.52923960e+00  -1.59332023e+00
C     5.284353820360672e+00   1.754484734949053e+00   7.065453555862398e+00  4.12834330e-01   2.14598221e+00   8.26381590e-01
C     3.516871547903628e+00   1.726842993833147e+00   1.706999832089417e+00  1.13367100e+00   9.67568950e-01   1.51262271e+00
C     5.366035567339472e+00   7.059218189708585e+00   1.740394988305498e+00  9.70135540e-01   1.17353570e-01   4.17713000e-01
C     4.462327369560954e+00   8.728026244166398e-01   8.386197128058099e-01 -6.50367130e-01  -1.44878687e+00   5.51663360e-01
C     6.097937384361937e+00   2.683226451415746e+00   9.793821192115740e-01  2.70999556e+00  -2.74907224e+00  -2.40739432e+00
C     4.307795237697988e+00   2.696746884491665e+00   2.648837679885842e+00  1.57286309e+00  -2.46356943e+00   3.55206490e-01
C     6.261463874450215e+00   8.716700394405952e-01   2.590305435264011e+00 -3.06049336e+00  -5.93525900e-02   2.24983520e+00
C     7.015711444484007e+00   3.543657506020312e+00   8.752650530964340e-02  2.15116929e+00  -1.52453886e+00  -7.47671050e-01
C     1.733957742949279e+00   5.395179602491889e+00   7.086631323953032e+00  5.41586060e-01  -9.31572200e-01   2.04839283e+00
C     3.021726479958420e-02   5.191591535286042e+00   1.853722793030503e+00  1.39677532e+00   3.27805425e+00  -1.65638897e+00
C     1.862047964350368e+00   3.497033788561089e+00   1.741529634724103e+00 -3.27023937e+00   2.05142348e+00   1.05787489e+00
C     9.185050903043106e-01   4.403522445847421e+00   9.065957101309887e-01 -1.07513192e+00  -6.37282100e-02  -4.96062870e-01
C     2.648357434853634e+00   6.224171383364267e+00   9.052451809174149e-01  9.05697640e-01   5.61125450e-01  -1.70685345e+00
C     9.605075511340452e-01   6.178871325281114e+00   2.623197101905918e+00 -1.22879113e+00   1.01168240e-01   2.66115884e+00
C     2.701960414893851e+00   4.503582948426005e+00   2.628944048341509e+00 -4.14198780e-01  -3.76949616e+00   1.99973266e+00
C     3.499580025543573e+00   3.636790282081897e+00   1.013312752903620e-01  1.23794756e+00  -2.51087466e+00  -3.11110373e+00
C     5.441085227098039e+00   5.364544646779154e+00   5.298255691394380e-02 -2.25412109e+00  -1.79519203e+00  -5.69711960e-01
C     3.512812212082251e+00   5.351266966335708e+00   1.761493923989277e+00  1.67050877e+00  -5.76002200e-02   1.03982000e-03
C     5.191856679449767e+00   3.482605965337727e+00   1.827172052618315e+00  2.54331491e+00   3.73124089e+00  -1.59336748e+00
C     4.392270097176866e+00   4.468540486351965e+00   9.082378979246611e-01  1.68916708e+00   3.88015980e-01   7.23404580e-01
C     6.382325754141706e+00   6.132126195963542e+00   9.717363709257281e-01 -4.23717097e+00   1.68944856e+00  -2.35473146e+00
C     4.461668489868306e+00   6.149530386822123e+00   2.605454692299077e+00 -2.33312760e-01   2.67137779e+00   2.00936617e+00
C     6.185967450329982e+00   4.396264959605079e+00   2.645993102405996e+00  3.25687490e-01  -1.42178508e+00   2.53662185e+00
C     4.619173861660540e-02   9.061021012642560e-02   3.485377823654170e+00  3.50058210e-01  -4.14819583e+00   9.35604090e-01
C     1.904894479282002e+00   1.832644827193453e+00   3.526033949239677e+00 -3.64282783e+00  -7.49834320e-01  -1.92356630e-01
C     1.927285299692740e-02   1.765894535180641e+00   5.289390422123846e+00 -2.56147908e+00   1.71661428e+00   1.16607000e-02
C     1.676791737155012e+00   1.154963712136884e-01   5.387280296771189e+00  2.13870256e+00  -3.16423359e+00  -4.78452899e+00
C     9.484310519449272e-01   9.687059792785960e-01   4.306591426327292e+00 -1.71556199e+00  -6.02318840e-01   4.06452011e+00
C     2.658082538924282e+00   2.698494561277018e+00   4.480790288884559e+00  1.62803711e+00  -2.65379400e-01  -7.01197720e-01
C     8.059963891178081e-01   2.658806958273487e+00   6.261882134037176e+00  1.95704766e+00  -9.27123300e-02  -5.98849670e-01
C     2.634315385725860e+00   8.888557884720644e-01   6.134384897251047e+00  1.52229001e+00   4.83221330e-01   4.19098289e+00
C     3.580716414338967e+00   6.408811665739600e-03   3.560643863797290e+00 -9.97799700e-01  -1.77834659e+00  -4.95628590e-01
C     5.215868291302092e+00   1.781714400805677e+00   3.422435869060024e+00  3.28458338e+00   5.36475150e-01   3.11178283e+00
C     3.555169525369176e+00   1.719674291789329e+00   5.319883635889539e+00  2.46388860e-01   3.24789072e+00  -6.39880020e-01
C     5.396906664851644e+00   2.738235477450200e-03   5.228383095829958e+00 -1.83037929e+00   6.41727460e-01   1.18539980e+00
C     4.472074296489046e+00   8.896059403111530e-01   4.341957037293636e+00 -8.63796500e-01  -3.66461940e-01   2.08760641e+00
C     6.114028365225701e+00   2.700532119536815e+00   4.439334181417397e+00  2.50601148e+00  -5.34792640e-01  -8.26580240e-01
C     4.375110364972186e+00   2.737511200269448e+00   6.258694930587047e+00  8.70478840e-01  -1.20649529e+00  -1.26500486e+00
C     6.148906693821445e+00   9.031245962814166e-01   6.148400147625543e+00  3.34853700e+00  -6.44828020e-01   1.30349338e+00
C     1.274739211599360e-02   3.509013115612992e+00   3.540190230718955e+00 -9.53529960e-01   5.96543730e-01   8.20682310e-01
C     1.879677492206004e+00   5.260875126952169e+00   3.578050400435337e+00 -3.63502128e+00   3.57602807e+00   8.86122930e-01
C     7.074549351278497e+00   5.319989551386577e+00   5.394167007689671e+00  2.36690924e+00   2.23382120e-01  -1.90034226e+00
C     1.781438594008021e+00   3.558750890853585e+00   5.355497899479133e+00 -3.93411160e-01  -2.40585810e-01   2.44867794e+00
C     9.423365747274439e-01   4.396902300777189e+00   4.501174685926576e+00 -1.98336645e+00   1.38715214e+00  -2.20714366e+00
C     2.614878257082184e+00   6.258061499047378e+00   4.538122347431228e+00  2.29729825e+00  -7.66435860e-01  -1.34762878e+00
C     8.746279962612296e-01   6.291968106270969e+00   6.202725556656632e+00 -1.22524080e+00  -1.87467809e+00   9.80131120e-01
C     2.664725999620708e+00   4.510923176707643e+00   6.350960123667861e+00 -5.70406470e-01  -1.28819971e+00  -3.43556253e+00
C     3.559315726114969e+00   3.594050322405338e+00   3.591671773112459e+00 -1.25810327e+00  -2.14292970e-01  -8.27800990e-01
C     5.324687934401493e+00   5.276911657298663e+00   3.548901744808217e+00  8.82552780e-01   2.73870313e+00  -1.18167707e+00
C     3.570004590124437e+00   5.352838780745444e+00   5.463353356134356e+00 -1.56130330e-01   8.18556430e-01  -3.73611716e+00
C     5.302931398541138e+00   3.701214129539636e+00   5.360274759479773e+00 -1.17615310e+00  -5.31531165e+00  -6.61690100e-01
C     4.411867805087527e+00   4.509406168236310e+00   4.417759052502304e+00  4.05669170e-01  -9.26880970e-01   2.80858758e+00
C     6.264362973531556e+00   6.235428068172620e+00   4.423502231473908e+00  2.51146900e-01  -9.79453630e-01  -1.04600138e+00
C     4.584606455470194e+00   6.224873482266444e+00   6.159995833108645e+00 -2.63784530e+00  -9.07231200e-02   3.03490309e+00
C     6.196813268310899e+00   4.377732022318669e+00   6.310619612046683e+00  8.21937830e-01   4.02975125e+00  -1.53706968e+00
