64
Lattice="7.10842262195238 0 0 0 7.10842262195238 0 0 0 7.10842262195238 " PBC="1 1 1" Properties=species:S:1:pos:R:3:force:R:3 Energy="-509.65974385"
C     7.078748083267453e+00   7.079339930534793e+00   7.092068627499296e+00  1.06588641e+00  -9.04709750e-01   3.34676500e-01
C     1.688901645930444e+00   1.739115472233898e+00   3.002491088348700e-02  1.90071786e+00   3.16944800e-02   2.82892320e-01
C     7.100837080053745e+00   1.735582586191758e+00   1.820640833915059e+00  1.30712827e+00   1.53487330e-01  -9.20117320e-01
C     1.832717190935725e+00   7.060007295703632e+00   1.772598701806241e+00 -1.31577604e+00  -4.61391930e-01  -5.49811370e-01
C     8.719937570067100e-01   7.187390086885580e-01   9.173630511261813e-01 -7.52916090e-01   5.26635036e+00  -7.62102600e-02
C     2.660151018822476e+00   2.678280837462108e+00   8.687296404238322e-01 -1.59161128e+00  -1.13640774e+00  -4.25426700e-02
C     1.015899721147717e+00   2.622406289889443e+00   2.618418820220754e+00 -5.33876671e+00  -6.69795990e-01   1.92424946e+00
C     2.697247815033696e+00   8.316969621846444e-01   2.607119129455550e+00 -8.92888010e-01   2.21494988e+00   1.28892300e+00
C     3.573576288154082e+00   1.004678862789368e-01   7.063828001777656e+00  5.65293780e-01  -1.71201045e+00   1.84453124e+00
C     5.438343579577732e+00   1.788973450900995e+00   2.675297503572720e-02 -2.68597740e+00   8.51441320e-01  -2.95711630e-01
C     3.498284373352626e+00   1.854933144150011e+00   1.798723932040396e+00  2.81719976e+00  -2.69303447e+00  -1.47801577e+00
C     5.379284743008212e+00   7.095575638883100e+00   1.745354250430567e+00 -4.12315690e+00  -1.53807660e-01   2.63825940e-01
C     4.506523276358542e+00   9.288349789714683e-01   8.904512028448973e-01 -1.49635664e+00   5.55091970e-01  -4.69174310e-01
C     6.268248081914518e+00   2.683163541875559e+00   1.005734321379986e+00 -1.25791819e+00   7.31334080e-01  -2.97221895e+00
C     4.376854274293550e+00   2.671525134772512e+00   2.719172749425919e+00  1.22954127e+00   2.61711590e-01  -6.05139500e-01
C     6.142672465015252e+00   8.624042105554253e-01   2.641227473713096e+00  4.57786005e+00   6.83281600e-02  -1.77268500e-02
C     7.085642258029687e+00   3.647973821221490e+00   2.126797397368280e-02  2.55464380e-01  -2.78894693e+00   8.50910800e-02
C     1.809092917031964e+00   5.282679289244078e+00   7.100548335926921e+00 -5.37583570e-01   3.21604505e+00  -3.70082430e-01
C     1.002927347455800e-03   5.338402996088747e+00   1.780999791079688e+00  8.46279430e-01   7.84332760e-01  -5.66857300e-01
C     1.766683925512592e+00   3.501297704785470e+00   1.773148325043220e+00  8.47710910e-01   3.03602672e+00  -1.49902122e+00
C     8.794706091711046e-01   4.472359912909917e+00   8.549542282285342e-01  6.03401660e-01  -6.83697320e-01   1.97227408e+00
C     2.689639101629701e+00   6.295396214163691e+00   8.069153659941217e-01  1.42107800e-01  -3.58129782e+00   2.10682287e+00
C     9.536774943438444e-01   6.198808602540333e+00   2.720485106410024e+00 -1.03341876e+00   2.47047560e-01  -2.00599952e+00
C     2.613680203533810e+00   4.441127565360198e+00   2.673013780637592e+00  1.18635530e+00   4.03751400e-02   2.07756900e-02
C     3.505692558154511e+00   3.540113175417754e+00   7.077967009789967e+00  2.91233528e+00  -2.74356350e-01   9.69080330e-01
C     5.273697726179482e+00   5.292475619709379e+00   3.916065563471099e-02 -1.03503970e-01   1.16223742e+00   9.63886900e-02
C     3.518968674744981e+00   5.299454526869243e+00   1.770548348385728e+00 -4.73537910e-01   1.39831571e+00  -6.42156050e-01
C     5.300836475310797e+00   3.589695276202968e+00   1.886693007742361e+00  3.14661120e-01  -1.75121184e+00  -2.43510601e+00
C     4.358444312718465e+00   4.388082098906066e+00   9.434358922856270e-01  2.08958359e+00   6.99729610e-01  -1.43314518e+00
C     6.150506302163623e+00   6.195836855379816e+00   8.813793628130270e-01  2.82616338e+00  -1.77124510e-01  -1.31767280e-01
C     4.380835062044977e+00   6.185620701474577e+00   2.620315560628449e+00  1.94032790e+00   6.00041920e-01   8.76880310e-01
C     6.244670297094691e+00   4.512934575972199e+00   2.660615483156467e+00 -1.01720395e+00  -2.03643281e+00   4.98168130e-01
C     3.183265383997920e-02   6.897231383959800e-03   3.497955466637999e+00 -1.63954340e+00  -7.82153930e-01   2.28310046e+00
C     1.796738905023761e+00   1.697085075303267e+00   3.490126605385461e+00  5.36250470e-01   1.75106525e+00   2.46072472e+00
C     7.061856338595546e+00   1.810153991276451e+00   5.316569049506059e+00  2.10774596e+00  -9.55708250e-01  -7.76228710e-01
C     1.786405817566425e+00   3.797703218425480e-02   5.338306037204210e+00 -1.28917570e-01  -1.91716550e-01   7.77153330e-01
C     8.931190649384094e-01   8.658780966898192e-01   4.445210501144673e+00 -6.97721620e-01   1.40608284e+00  -1.25218521e+00
C     2.666333213975090e+00   2.661905590777771e+00   4.440796312866105e+00 -8.72819800e-01  -7.29321990e-01   1.72114570e-01
C     8.599038939830664e-01   2.634073343935649e+00   6.245274939522750e+00 -9.95297300e-01   1.57976107e+00   5.02917300e-02
C     2.646422308963792e+00   9.451210149519242e-01   6.246461264173800e+00  4.08601390e-01   6.57200000e-05  -1.45767763e+00
C     3.549110732433245e+00   1.271163675021500e-02   3.518533212775279e+00  1.31202413e+00  -1.34608250e+00   8.77470420e-01
C     5.316517726694743e+00   1.696982003175277e+00   3.497512754077225e+00 -1.87477990e-01   3.85966488e+00   1.49769404e+00
C     3.537359656831670e+00   1.812818370242880e+00   5.342724917041707e+00  2.06467907e+00  -6.41620540e-01  -1.10816170e+00
C     5.347218364232488e+00   7.054343802149599e+00   5.302382628314874e+00 -4.56169940e-01   1.80503639e+00   5.77987180e-01
C     4.516006338638979e+00   8.524424670957571e-01   4.371631360773505e+00 -3.38188975e+00   1.71165940e-01   2.85783408e+00
C     6.240120053607177e+00   2.720608011037124e+00   4.358117751783302e+00  1.16428660e-01  -2.36041994e+00   1.20102964e+00
C     4.513894639531256e+00   2.705289715712155e+00   6.174294922798358e+00 -1.20088974e+00  -1.83452834e+00   1.86175760e+00
C     6.241138832737076e+00   8.836645785169046e-01   6.205991876850521e+00 -3.51879180e-01   1.53621670e-01  -2.46484210e-01
C     2.635646722198360e-02   3.613661038729393e+00   3.523175368167270e+00  1.13029985e+00  -1.33628008e+00   1.87149030e-01
C     1.834235336754678e+00   5.332790185587995e+00   3.615931895419579e+00 -1.75865991e+00   4.71132830e-01  -3.89093000e-03
C     7.079002422628796e+00   5.339889651595493e+00   5.364939377487243e+00  1.60905914e+00   1.62997283e+00  -2.21747994e+00
C     1.768268250746137e+00   3.507906547463737e+00   5.385878942335881e+00 -2.39610100e-02   9.23920270e-01  -2.07170081e+00
C     9.074687665971771e-01   4.464578109415124e+00   4.461528667195371e+00 -6.96182150e-01  -1.05513942e+00   1.09375238e+00
C     2.697300986034894e+00   6.276786719165661e+00   4.530809202239772e+00 -1.63000810e-01  -1.29530074e+00  -2.68132898e+00
C     9.305748364919396e-01   6.259446859531791e+00   6.227524284145668e+00 -1.90946954e+00  -2.18458642e+00  -6.10243320e-01
C     2.686595559400722e+00   4.426567880897235e+00   6.219503993071974e+00 -1.43512973e+00   1.42885490e-01   2.20211690e-01
C     3.497772709092438e+00   3.578576708046122e+00   3.572647075149196e+00  9.54020150e-01  -8.96274860e-01   6.29080550e-01
C     5.312680173659110e+00   5.340277273880962e+00   3.514430444491694e+00 -8.51989430e-01  -1.76179710e-01   1.06420003e+00
C     3.544277360472776e+00   5.368341539637401e+00   5.399085040963544e+00  1.13652759e+00  -1.09077249e+00  -1.29657071e+00
C     5.394743074258796e+00   3.533832031022270e+00   5.287133000352413e+00 -2.28806956e+00   2.39849636e+00   5.28935110e-01
C     4.406968538049370e+00   4.414792352321848e+00   4.463946952570695e+00  1.15972918e+00   1.90609684e+00  -7.28138200e-01
C     6.165930370817178e+00   6.217125159442191e+00   4.376687510698885e+00  2.64847363e+00  -2.82725220e-01   1.71878514e+00
C     4.455613464396365e+00   6.227430595135536e+00   6.272415394675493e+00 -8.06129190e-01   3.23928720e-01  -1.69191654e+00
C     6.203355433984989e+00   4.536263779253003e+00   6.232340169386492e+00 -1.77399180e-01  -3.66603489e+00   1.49671800e-02
