64
Lattice="7.10842262195238 0 0 0 7.10842262195238 0 0 0 7.10842262195238 " PBC="1 1 1" Properties=species:S:1:pos:R:3:force:R:3 Energy="-509.97459447"
C     3.224458693080820e-02   4.079637476379920e-02   3.064583159934400e-03 -6.01873370e-01  -5.81883500e-01   1.60999986e+00
C     1.844232977748577e+00   1.754040742872207e+00   6.437927764791120e-02 -2.59649413e+00  -5.49689450e-01  -2.73007951e+00
C     7.092475229273161e+00   1.809286976969490e+00   1.772753665419357e+00  8.84615280e-01   2.09785640e-01  -5.93040800e-02
C     1.777228772879778e+00   2.554788414895860e-02   1.782454671937324e+00 -5.64579470e-01  -2.14730716e+00   2.32781235e+00
C     9.302014310517110e-01   8.799418265065844e-01   9.694962226212613e-01 -1.63957272e+00   1.64009609e+00  -2.60392237e+00
C     2.661014407833902e+00   2.651020249967087e+00   8.536591447113964e-01  1.69206097e+00   1.71438685e+00   2.23538382e+00
C     8.363645657296150e-01   2.724272189645055e+00   2.648410890191736e+00  2.03276736e+00  -1.84718299e+00   1.02169758e+00
C     2.617408997703357e+00   8.422447950893314e-01   2.725286845889834e+00  1.62228131e+00   3.12500247e+00  -2.95433052e+00
C     3.483748431021214e+00   7.103431654310045e+00   2.184475138506960e-02  2.46995149e+00  -1.28785253e+00  -2.78422720e-01
C     5.269990470530474e+00   1.659526800295556e+00   6.439683545178260e-02  2.30029633e+00   5.50652412e+00  -3.44429990e+00
C     3.571603416540127e+00   1.799767306312560e+00   1.772358508205911e+00 -3.02312370e-01  -1.04037979e+00  -2.84290010e-01
C     5.308445544135924e+00   5.046269217938000e-02   1.764461050675092e+00  1.36897878e+00  -1.79522009e+00   1.66849393e+00
C     4.446432865498408e+00   8.660327048818042e-01   8.938421336873158e-01 -3.00000405e+00  -8.43270720e-01   1.26677560e+00
C     6.210480987903503e+00   2.664387923040901e+00   8.330355492482165e-01  2.08923370e-01  -7.18650180e-01   1.06911757e+00
C     4.499126465032849e+00   2.670434844911056e+00   2.589153941883798e+00 -1.24028856e+00  -1.26608910e-01   2.86051739e+00
C     6.237917864279502e+00   9.487763080315805e-01   2.671917093195779e+00 -9.55430560e-01  -1.87557146e+00  -2.40747180e-01
C     2.342808143944840e-02   3.538552379063080e+00   7.041874562610726e+00  1.37291070e-01  -5.18900410e-01   1.87394341e+00
C     1.787770208204108e+00   5.306558186846088e+00   3.770740971427820e-02 -9.46224120e-01  -2.16592380e-01   3.99562570e-01
C     7.077428191355371e+00   5.318474391105124e+00   1.758156164148056e+00  8.57008640e-01   1.31673725e+00   7.33467050e-01
C     1.822513192433167e+00   3.519069969767316e+00   1.816949216795815e+00 -2.68199391e+00   1.51720390e+00  -2.74662155e+00
C     8.550179907794355e-01   4.427469513222356e+00   9.023814106964956e-01  1.66058380e+00  -4.91155160e-01  -7.38912000e-01
C     2.628841544887329e+00   6.199692677061583e+00   9.293650540462418e-01  1.26074798e+00   1.56086410e+00  -5.26577930e-01
C     8.861816709666466e-01   6.241365235997522e+00   2.745889258253606e+00 -5.64175860e-01  -6.66549020e-01  -4.04815398e+00
C     2.627914677661907e+00   4.492584370442985e+00   2.611753607751111e+00  2.84370725e+00  -2.01119835e+00   1.14963390e+00
C     3.515465715162071e+00   3.630730920472157e+00   7.078252626210839e+00  2.23716566e+00  -2.85383807e+00   1.41240195e+00
C     5.350625928783837e+00   5.390830314111843e+00   7.080514597372749e+00 -9.39361210e-01  -2.61085529e+00   1.23069432e+00
C     3.585066768982408e+00   5.412673501643936e+00   1.817396194410160e+00 -1.24878085e+00  -2.73527585e+00  -1.62438082e+00
C     5.381359620486764e+00   3.561093471528006e+00   1.768818798078056e+00 -1.28097705e+00   6.41231300e-02  -1.57504357e+00
C     4.459308067053110e+00   4.491306133887456e+00   9.221625869949792e-01 -1.39284590e-01  -2.77869560e-01  -1.42762764e+00
C     6.199453976230003e+00   6.254595361093640e+00   8.954755070369392e-01  8.40572130e-01   2.38848980e-01  -7.26488710e-01
C     4.444565909381491e+00   6.232168927485576e+00   2.698796100564559e+00  9.13330350e-01   7.94057710e-01  -1.19816434e+00
C     6.237549434735107e+00   4.433813993663384e+00   2.623911356210776e+00 -1.15986551e+00   1.16094683e+00   1.76908393e+00
C     7.100294423070935e+00   1.897941731117380e-02   3.558132955675227e+00 -2.83433500e-02   7.47468230e-01  -8.03391800e-02
C     1.753994964630535e+00   1.808585517825348e+00   3.541843294399236e+00 -1.21135630e-01  -9.62864790e-01   1.36813039e+00
C     2.544701563198080e-02   1.817528695407797e+00   5.378464786458995e+00 -9.98401740e-01  -2.02303297e+00  -9.68839550e-01
C     1.800153151492373e+00   6.988750690255097e+00   5.349771638553365e+00 -9.68168360e-01   3.98565220e+00  -3.98730090e-01
C     8.420232966404921e-01   8.910552055149186e-01   4.461082969097097e+00  1.68568792e+00  -1.64856080e-01   7.58852380e-01
C     2.730217389987519e+00   2.695998509758232e+00   4.417443438537977e+00 -2.07361919e+00  -9.79902850e-01  -6.16445940e-01
C     9.485989528872115e-01   2.617397695311391e+00   6.205513337839743e+00  2.29257050e-01   2.15877080e+00   6.77678910e-01
C     2.690407735367601e+00   8.513472013384675e-01   6.226886232131298e+00 -2.18150032e+00   2.81002610e-01   3.40966800e-01
C     3.535483033259990e+00   7.079494325474101e+00   3.484618786286807e+00 -3.21772260e-01   1.21335640e+00   4.13725256e+00
C     5.347007812754483e+00   1.752763359327393e+00   3.573426869110610e+00 -6.26427890e-01   1.09992242e+00   9.38187730e-01
C     3.501182121833669e+00   1.752922445825629e+00   5.349921341933743e+00  1.90800850e+00   3.15142240e-01  -5.88570200e-01
C     5.285865071009684e+00   7.025195573027838e+00   5.346054004607332e+00  8.10372460e-01   2.92117448e+00   5.55458000e-03
C     4.372980610471008e+00   8.275627035888524e-01   4.535711881320786e+00  1.78355785e+00   9.23492350e-01  -3.90498396e+00
C     6.246190220019300e+00   2.673172014125114e+00   4.511630606926786e+00 -6.26500510e-01   2.57816740e-01  -2.49062977e+00
C     4.432965319086782e+00   2.613119277904866e+00   6.204233395262785e+00 -6.74394650e-01   1.24211067e+00   1.55481769e+00
C     6.200553507040865e+00   9.384330555298971e-01   6.256972630870447e+00  7.79312290e-01  -3.20213663e+00  -7.35531150e-01
C     7.091802630324857e+00   3.601082755987530e+00   3.547370803828548e+00  1.63325780e-01  -1.49796165e+00  -9.20207900e-02
C     1.764298552133998e+00   5.284666377703274e+00   3.498400240641332e+00  2.19933920e-01   2.57694168e+00   1.00771022e+00
C     7.105657514685046e+00   5.347448463872697e+00   5.263982076310919e+00  8.76860020e-01  -8.59213200e-01   2.26773818e+00
C     1.831812857410008e+00   3.584111610234958e+00   5.267075804003595e+00 -1.22771738e+00  -7.99224420e-01   1.27417617e+00
C     8.942287607936175e-01   4.463179314011961e+00   4.351890275978598e+00  7.16797700e-02  -6.05767610e-01   3.01477295e+00
C     2.657745173186737e+00   6.207763793357008e+00   4.355866301086870e+00  2.00071790e-01  -1.68780214e+00   2.40821783e+00
C     9.192953336469759e-01   6.204678169266119e+00   6.335646519901821e+00 -1.02563971e+00  -6.62767600e-02  -4.57278483e+00
C     2.670292463205978e+00   4.467619661285770e+00   6.210504232445471e+00 -7.06102520e-01   3.43462170e-01  -1.08280618e+00
C     3.590291530692334e+00   3.572764790627784e+00   3.495620918481138e+00 -1.19316620e-01  -4.12171250e-01   4.35723630e-01
C     5.347161923356885e+00   5.360456735098844e+00   3.579217603429541e+00 -5.54811910e-01  -1.78126201e+00  -1.98381344e+00
C     3.567433473662783e+00   5.348910666405631e+00   5.301407921405219e+00 -1.45854832e+00  -1.98168781e+00  -5.97209730e-01
C     5.338145813358355e+00   3.525990516777469e+00   5.352977110649628e+00 -4.73148940e-01  -2.65506500e-01  -2.37890320e-01
C     4.445934351820068e+00   4.400605078119947e+00   4.426114434618305e+00  9.80111140e-01   1.78144556e+00   5.94537950e-01
C     6.228749989458034e+00   6.238347639511106e+00   4.382678560367247e+00 -8.85850140e-01  -3.67368010e-01   2.97406565e+00
C     4.365028915675597e+00   6.167388095043862e+00   6.215232897340748e+00  2.84499532e+00   1.79116761e+00   6.28361180e-01
C     6.245294629853406e+00   4.401253934936701e+00   6.215487805375901e+00 -9.48104770e-01   2.42141051e+00  -1.46134037e+00
