64
Lattice="7.10842262195238 0 0 0 7.10842262195238 0 0 0 7.10842262195238 " PBC="1 1 1" Properties=species:S:1:pos:R:3:force:R:3 Energy="-506.2149714"
C     5.493730205021760e-02   5.441924020967200e-02   5.385163266346500e-02 -1.45392547e+00   1.11965364e+00  -2.88409540e-01
C     1.810549788247933e+00   1.783285930878507e+00   7.080374277110231e+00  5.82733800e-01  -8.71750890e-01   1.77320141e+00
C     3.324538175147800e-03   1.879485422626812e+00   1.825704518768416e+00  5.07269900e-02  -2.87756855e+00   4.87879630e-01
C     1.729234480455193e+00   7.016499057710303e+00   1.794537924127931e+00  1.95533100e+00   5.15141292e+00  -8.61834730e-01
C     9.340352166233556e-01   9.816925698157526e-01   1.017375500767855e+00 -8.23628120e-01  -2.44697975e+00  -3.56488814e+00
C     2.753370304387347e+00   2.602053525328085e+00   8.523295142603254e-01 -2.21751032e+00   2.68487105e+00  -5.22722610e-01
C     8.750702112324198e-01   2.703985462329837e+00   2.755380068714699e+00  8.14545380e-01   7.60366250e-01  -3.19480292e+00
C     2.684441351925731e+00   8.853890107602904e-01   2.672017321954721e+00 -8.02388100e-01  -8.05559990e-01   2.67592360e-01
C     3.541560592431638e+00   7.029589857723069e+00   7.093474815661986e+00 -3.89235430e-01   1.37281899e+00  -7.58306950e-01
C     5.272005779427470e+00   1.754162652320140e+00   2.477569619974800e-03  1.96314459e+00  -3.13568941e+00   1.70914175e+00
C     3.575431231036772e+00   1.724064595767894e+00   1.723764620333330e+00 -1.54320796e+00  -1.28567582e+00   1.45034134e+00
C     5.320614452819101e+00   7.093147401716108e+00   1.854261895802004e+00  7.95284080e-01   7.48194350e-01  -1.61324090e-01
C     4.371947330158964e+00   6.921286286105880e-01   9.459756606035269e-01  1.72097968e+00   5.20483818e+00  -1.25201110e+00
C     6.225496819845992e+00   2.577993434033493e+00   8.447106358119831e-01 -2.18786580e+00   2.62826035e+00   1.71017285e+00
C     4.389318822273494e+00   2.582388287402534e+00   2.617228372684583e+00  2.57433038e+00   2.38115093e+00   1.48898628e+00
C     6.216781538292741e+00   9.904650030868684e-01   2.707029928653757e+00  2.74442530e-01  -3.76827500e+00  -5.83727750e-01
C     7.038710674786791e+00   3.459378483584616e+00   4.191076217793660e-02  3.47513145e+00   3.35540708e+00  -3.37851470e+00
C     1.678641064383832e+00   5.300677886402145e+00   4.138104252429420e-02  1.19704865e+00   5.56923910e-01  -2.68988070e+00
C     1.074765066453520e-02   5.348765014826147e+00   1.879654887422073e+00 -2.82753975e+00  -1.58993789e+00  -4.76490735e+00
C     1.840323700728708e+00   3.501757264307853e+00   1.740591180769810e+00 -1.06874976e+00   1.51886388e+00   1.83460115e+00
C     8.242465533523962e-01   4.396408194320872e+00   9.071353815762992e-01  8.05164670e-01  -1.43832150e-01   6.21898970e-01
C     2.565846419291984e+00   6.211597294591749e+00   8.449457113480265e-01  1.14617496e+00   2.36337610e-01   3.82596230e-01
C     8.773783160571338e-01   6.176589237283189e+00   2.612945476971807e+00  2.23950438e+00   2.38541060e-01   3.47304307e+00
C     2.741661523900361e+00   4.477176935498361e+00   2.652708144918205e+00 -2.36281555e+00  -8.18787900e-01  -1.61649565e+00
C     3.580241003034142e+00   3.638695339344057e+00   7.080220521928959e+00 -1.23378414e+00  -2.36477685e+00  -1.85529000e-03
C     5.414486504833167e+00   5.384214789516314e+00   7.099941774224757e+00 -1.93956269e+00  -1.75645670e-01  -6.39095310e-01
C     3.487480637233619e+00   5.484967936794990e+00   1.722073953097389e+00  2.92626813e+00  -6.21223220e+00   2.29841465e+00
C     5.338703966702478e+00   3.528439652706964e+00   1.669886757590397e+00 -1.79908031e+00   7.84548860e-01   3.16777496e+00
C     4.388200169805784e+00   4.493041726354355e+00   8.605816820798834e-01  2.82873623e+00   8.13514040e-01  -4.98421860e-01
C     6.239500270238940e+00   6.363088158920974e+00   9.592385555279228e-01  1.02854818e+00  -4.94465254e+00  -1.47979970e+00
C     4.461666144088842e+00   6.146770754992587e+00   2.740582181009740e+00 -1.71341682e+00   4.08469604e+00  -3.11931037e+00
C     6.158417550034327e+00   4.474450997592043e+00   2.640882644131799e+00  1.03698078e+00  -1.46403043e+00   7.13504760e-01
C     1.141616937825572e-01   7.098804924195139e+00   3.479819179333783e+00 -3.61579033e+00   1.43257074e+00   2.87768689e+00
C     1.789655717304063e+00   1.878400606250774e+00   3.614305701576801e+00 -5.09795320e-01  -3.83617892e+00  -2.05858056e+00
C     3.400655164562760e-02   1.776217528677857e+00   5.372164875827794e+00 -9.08311680e-01   5.16586220e-01  -1.49519856e+00
C     1.823505741483597e+00   6.259321538041000e-03   5.270680627282649e+00 -1.39231144e+00  -1.27281700e-01   1.77722875e+00
C     9.362383300459721e-01   9.108171179881019e-01   4.442115636104377e+00 -4.65184400e-01  -3.85666730e-01   5.76683500e-02
C     2.649438625934136e+00   2.696790316953873e+00   4.437515917995428e+00  2.41321993e+00   1.43139524e+00   1.78475454e+00
C     9.171630911978808e-01   2.661185294313686e+00   6.223777008077309e+00 -2.55588870e-01  -4.45072690e-01   9.28368860e-01
C     2.716124160216880e+00   8.604268606352198e-01   6.205246203317683e+00 -1.47852122e+00   5.85823490e-01   1.47206370e-01
C     3.580279033095159e+00   7.060610587531391e+00   3.555409434632601e+00 -1.89992473e+00   1.18231890e+00   2.33105830e-01
C     5.254344334754270e+00   1.690074322410066e+00   3.617258184912018e+00  3.24418712e+00   4.74022897e+00  -2.98266384e+00
C     3.540846409211007e+00   1.817675697587579e+00   5.375831968889000e+00  9.48033950e-01  -2.04101312e+00  -1.76266698e+00
C     5.374446324067683e+00   8.556834813051199e-03   5.294455031072144e+00  3.10316110e-01   2.99640070e-01   1.24608531e+00
C     4.444063343902258e+00   8.434776799085443e-01   4.426445900365075e+00 -9.26594240e-01   2.47731660e-01   2.31201052e+00
C     6.245354411687641e+00   2.741867241650984e+00   4.426351571596908e+00 -3.13937873e+00  -4.26211150e+00   2.20753307e+00
C     4.474185853428317e+00   2.611781259515103e+00   6.263728617896947e+00 -2.23230477e+00   3.24348454e+00  -1.48506603e+00
C     6.210635169590131e+00   9.148714779136451e-01   6.281327650619544e+00  1.03971649e+00  -6.67475080e-01  -2.41286388e+00
C     7.046944645044442e+00   3.576807990329813e+00   3.541039545053592e+00  1.40787208e+00   3.99940330e-01   5.44427600e-01
C     1.801553937253871e+00   5.270128302845075e+00   3.503584200005419e+00 -1.87465411e+00   2.91032790e-01   1.52146758e+00
C     7.095706647111987e+00   5.306259917432953e+00   5.275654817095220e+00  2.23815888e+00   6.38207080e-01   1.34655054e+00
C     1.789622520970427e+00   3.560555790441029e+00   5.335656088335700e+00 -9.05225990e-01  -1.34335470e-01   6.79117060e-01
C     8.706701687148660e-01   4.351910748235744e+00   4.484607014241916e+00  2.18004960e-01   3.44969125e+00  -3.02238866e+00
C     2.583521512136614e+00   6.161490947638309e+00   4.414398261371795e+00  2.55280478e+00   2.89337143e+00  -1.33586632e+00
C     9.079434670597408e-01   6.266140505691913e+00   6.183320415914745e+00 -1.44596075e+00  -1.14302386e+00   1.57872840e+00
C     2.609486020935331e+00   4.501117392040258e+00   6.203696425018071e+00  1.76151042e+00  -9.45900320e-01   3.35856210e-01
C     3.588087351006325e+00   3.619994785452266e+00   3.560725397404742e+00 -8.77857670e-01  -2.71911426e+00  -2.00612695e+00
C     5.275831177060423e+00   5.316815569602522e+00   3.592410835812260e+00  3.49014493e+00  -3.70427600e-01  -1.82479006e+00
C     3.511105621979641e+00   5.443644970083502e+00   5.260073723385990e+00  1.48565737e+00  -4.24422071e+00   2.47498576e+00
C     5.295592591944023e+00   3.505917895151565e+00   5.382826941083985e+00  2.19084466e+00   2.73146342e+00  -2.65287131e+00
C     4.449274173103849e+00   4.477682344346642e+00   4.393254400457057e+00 -1.66173836e+00  -2.07312313e+00   4.17494500e+00
C     6.266028192614518e+00   6.184748071513746e+00   4.426102776805208e+00 -8.73992600e-01   1.73367102e+00  -1.13444847e+00
C     4.491695320025901e+00   6.269859490238245e+00   6.152416193153165e+00 -1.19528985e+00  -1.95928089e+00   1.44109606e+00
C     6.269217173170301e+00   4.450284919716187e+00   6.138148309438753e+00 -2.70437090e+00  -1.22381834e+00   4.53928382e+00
