64
Lattice="7.10842262195238 0 0 0 7.10842262195238 0 0 0 7.10842262195238 " PBC="1 1 1" Properties=species:S:1:pos:R:3:force:R:3 Energy="-507.12501609"
C     2.180551289220720e-02   7.021256724969868e+00   3.610019535989620e-02  8.86305630e-01   1.69215798e+00  -2.96778954e+00
C     1.733713924053413e+00   1.864231529610780e+00   7.107560652673098e+00  1.98553039e+00  -4.21133113e+00   1.47276450e+00
C     6.962984293194800e-03   1.670940936664943e+00   1.755585260939081e+00 -1.72901050e-01   3.17554377e+00  -8.22540220e-01
C     1.772634528256246e+00   5.851035068016060e-02   1.824017334659559e+00  1.95117100e+00  -3.17073153e+00  -2.45858000e-02
C     9.268616808521564e-01   7.462672282952224e-01   8.854234155257712e-01 -2.21498740e+00   5.72890826e+00  -4.92999680e-01
C     2.635733800375455e+00   2.676134733588903e+00   9.695435647159105e-01 -1.08023210e-01   1.61710878e+00  -1.98401418e+00
C     8.815586372315034e-01   2.697735950415012e+00   2.577309177272091e+00 -1.20772891e+00  -1.95962810e+00   1.90412603e+00
C     2.687865834522916e+00   9.536760726593204e-01   2.707465603876137e+00 -1.88957591e+00  -1.37821321e+00  -1.89894440e+00
C     3.555793147285629e+00   2.792486958886040e-02   1.067815872500208e-01 -6.60118350e-01   5.31640020e-01  -1.18874632e+00
C     5.365843355591828e+00   1.805366184304977e+00   7.023100294376365e+00  3.09970700e-02  -2.41699600e-01   3.71984228e+00
C     3.531257360349306e+00   1.859630745238438e+00   1.843340088783279e+00  1.94439787e+00  -9.99575580e-01  -3.04852870e-01
C     5.279762063685057e+00   2.004212649286380e-02   1.712268879272266e+00  1.49778425e+00   1.18668913e+00   3.60705950e-01
C     4.434201758117305e+00   1.055914809181351e+00   9.229418833668098e-01  1.99262430e-01  -4.64721973e+00  -1.40221311e+00
C     6.223770183991594e+00   2.725858718489613e+00   9.229951254522336e-01  2.14147521e+00  -2.29926086e+00  -2.99286239e+00
C     4.558873183659306e+00   2.696830692794355e+00   2.728711612823924e+00 -3.85446695e+00   4.86467920e-01  -2.02349461e+00
C     6.179413342505889e+00   8.612221509579454e-01   2.600147970476342e+00  7.85413850e-01   8.61952990e-01   2.61444439e+00
C     6.383086284277820e-02   3.652739805335522e+00   7.105332873023991e+00 -1.99374362e+00  -2.55215303e+00  -9.06822490e-01
C     1.857612664056620e+00   5.318472258578339e+00   7.068885644471786e+00  1.59404840e+00   3.96958970e-01   2.09738886e+00
C     7.059087039311247e+00   5.336127945429216e+00   1.716318689807332e+00  2.37122386e+00   2.13645444e+00   1.44245120e-01
C     1.711665871781411e+00   3.631443753092490e+00   1.733177877903638e+00  2.57845021e+00  -2.69154806e+00   1.60661074e+00
C     1.008887901991122e+00   4.511639279202383e+00   8.460637951419263e-01 -5.02332367e+00  -2.08986510e-01  -6.41208820e-01
C     2.749513274273735e+00   6.199156275490677e+00   9.956636058015530e-01 -1.63448795e+00   4.05754520e-01  -1.99959774e+00
C     8.413809084883228e-01   6.283084781606981e+00   2.658567333346967e+00 -8.89422100e-02  -1.23244008e+00   6.62411840e-01
C     2.594238241162753e+00   4.425261068482774e+00   2.660004443148052e+00  2.98865453e+00  -1.92848910e-01  -1.71257020e-01
C     3.592851700183153e+00   3.510319785859001e+00   9.020687822696680e-02 -8.94172330e-01  -1.01158466e+00  -3.42286938e+00
C     5.275262787587727e+00   5.311630828311946e+00   1.074921451751160e-02  7.49490810e-01  -6.52387080e-01  -7.52155500e-01
C     3.586145258862314e+00   5.200671336751246e+00   1.805745205399075e+00 -3.05378700e-02   3.91069228e+00  -1.67851800e-01
C     5.337158808877568e+00   3.559850919254029e+00   1.776554681162724e+00  1.82476493e+00  -6.55741520e-01   9.77017350e-01
C     4.490908630894546e+00   4.342704061426772e+00   9.067123593461829e-01 -1.96793855e+00   2.66662835e+00   1.72892700e-02
C     6.178343382733127e+00   6.238462227283741e+00   7.932883776631294e-01 -2.02359570e-01  -1.77368767e+00   2.91295587e+00
C     4.508668811557937e+00   6.250706769583595e+00   2.612479804205971e+00 -3.38784916e+00  -1.55267921e+00   2.18013128e+00
C     6.219235152528486e+00   4.488221931481090e+00   2.578103898921007e+00  3.01780950e-01  -1.28577200e+00   3.38712300e+00
C     6.997338162369640e+00   4.176205397672620e-02   3.587938927142019e+00  2.54027067e+00  -1.59600075e+00  -6.48826110e-01
C     1.754691305710390e+00   1.792914573654202e+00   3.482686717018691e+00 -1.16490450e-01   3.06101780e-01   2.09621908e+00
C     6.201480303182060e-02   1.767303993217734e+00   5.322505222151795e+00 -2.45245047e+00  -7.49714000e-01   8.39472170e-01
C     1.796099644577545e+00   7.082403589599788e+00   5.355565784915154e+00 -7.16545230e-01   4.89618310e-01  -1.98132690e-01
C     8.408639839953964e-01   8.701739297317638e-01   4.449479393264888e+00  1.76580842e+00   3.86205070e-01  -1.33174850e+00
C     2.654477289139871e+00   2.610123291023214e+00   4.382386333113339e+00 -5.61623200e-02   2.09140842e+00   1.56438201e+00
C     9.151645581782677e-01   2.632958672184607e+00   6.185698467618041e+00 -1.06890088e+00   3.77086552e+00   6.53032520e-01
C     2.638321905967171e+00   9.425255166006835e-01   6.285906327797537e+00 -5.96462100e-02  -2.75611055e+00  -7.63650120e-01
C     3.499266473021805e+00   4.851576630798820e-02   3.535010252071535e+00  2.23232101e+00  -2.59771523e+00   7.79390610e-01
C     5.401049311386128e+00   1.814918838042864e+00   3.549694973688383e+00 -2.56821444e+00  -2.07721572e+00   1.16652767e+00
C     3.482033026474556e+00   1.700254223359941e+00   5.350538779522516e+00  1.54838322e+00   3.18984162e+00  -8.50736140e-01
C     5.225926069551356e+00   7.066178686053863e+00   5.419647361823738e+00  2.17399999e+00   6.98792700e-01  -2.42208239e+00
C     4.342374657122561e+00   8.907992312163724e-01   4.436113070791371e+00  2.91772370e+00  -1.09754311e+00   1.07692448e+00
C     6.233400959294075e+00   2.634433456625578e+00   4.505085668967874e+00  1.75842020e+00   1.06377597e+00  -2.61733545e+00
C     4.431669951232739e+00   2.592256199683618e+00   6.224792801669706e+00 -1.47325000e-03   2.43580354e+00  -1.17955726e+00
C     6.227064298117928e+00   8.458834544600570e-01   6.198280802160798e+00  3.02366220e-01   5.60537350e-01   1.34229673e+00
C     3.344370674257600e-03   3.519859573351945e+00   3.518976849430993e+00  2.29687720e-01   1.82517163e+00   4.32943970e-01
C     1.772672984822620e+00   5.345319135876876e+00   3.483391161700333e+00 -9.71134880e-01   6.37108750e-01   2.90287710e+00
C     7.042204962094105e+00   5.330501700009712e+00   5.304025669119260e+00  3.46705990e+00   1.51257170e-01   1.52402055e+00
C     1.799023409885377e+00   3.591225506340376e+00   5.271536765703003e+00  8.06182160e-01  -2.25541087e+00   1.48107540e+00
C     9.363937912486716e-01   4.498686453672671e+00   4.453694545710095e+00 -2.81884520e+00  -1.68806076e+00  -2.09003589e+00
C     2.668788818569169e+00   6.145729157826079e+00   4.460956225921783e+00 -2.73991690e-01   2.99485199e+00  -1.41757073e+00
C     1.010122777168669e+00   6.188144120420452e+00   6.275834190534581e+00 -4.50667495e+00   4.26864410e-01  -2.32157094e+00
C     2.753777545919247e+00   4.387403386714309e+00   6.209451475055450e+00 -2.17770180e+00   9.14775100e-02   9.84910120e-01
C     3.580731626363374e+00   3.540159024743653e+00   3.525875929004834e+00 -1.10492587e+00  -6.68713200e-01   1.13567765e+00
C     5.344850619741992e+00   5.376969032171295e+00   3.564011763350420e+00  3.79777000e-03  -9.02450930e-01  -1.19810541e+00
C     3.536794679401833e+00   5.291997222867053e+00   5.353988070514644e+00  1.66154463e+00  -3.37085680e-01  -1.15572687e+00
C     5.384619472016070e+00   3.564433363896013e+00   5.325043924206302e+00 -3.70774436e+00  -2.17117510e+00  -7.59723060e-01
C     4.444654338158884e+00   4.389521127981260e+00   4.391009631677887e+00  6.17975760e-01   2.55981137e+00   1.70556244e+00
C     6.206692340815496e+00   6.232901166099663e+00   4.511703894763999e+00 -2.03587762e+00   3.70130580e-01  -1.88077946e+00
C     4.372174799682804e+00   6.154903145890998e+00   6.297863263318187e+00  2.62483410e-01   2.55077630e+00  -1.01042738e+00
C     6.131655547301872e+00   4.467906130717356e+00   6.169682409528693e+00  3.85999708e+00   2.18768900e-01   2.25827333e+00
