64
Lattice="7.10842262195238 0 0 0 7.10842262195238 0 0 0 7.10842262195238 " PBC="1 1 1" Properties=species:S:1:pos:R:3:force:R:3 Energy="-499.83597774"
C     8.093671320399860e-02   1.567400079287380e-01   1.482625031121260e-02 -2.71062504e+00  -5.45893524e+00  -1.17462358e+00
C     1.825328625380270e+00   1.640327803809651e+00   7.099686084263115e+00 -1.63482146e+00   5.81990547e+00  -1.14626448e+00
C     8.103530702573801e-03   1.768552871987842e+00   1.901380714896710e+00 -1.58666000e-03   1.06960800e+00  -4.61189369e+00
C     1.839507653811932e+00   3.702869752252060e-02   1.770335451128259e+00 -2.45466788e+00  -3.61384700e+00   3.71353160e-01
C     9.468894483313277e-01   8.885426624556534e-01   8.873701281444845e-01 -2.19329660e-01   1.09973777e+00   3.26079764e+00
C     2.618976760312198e+00   2.723097593891327e+00   7.248981014676570e-01  2.02729396e+00  -3.43731451e+00   4.88064691e+00
C     8.785837623650334e-01   2.735115093172698e+00   2.633465005127829e+00  1.28333303e+00  -3.64737005e+00   2.68755880e+00
C     2.714637646878586e+00   8.055752150775732e-01   2.663712338555096e+00 -1.14368393e+00   3.93058822e+00  -5.83605100e-01
C     3.580643410838660e+00   2.787702990462780e-02   6.905823050043689e+00 -6.39765200e-01  -2.04808913e+00   4.37349953e+00
C     5.337467314419277e+00   1.599683904711050e+00   7.888429834092599e-03  5.34308750e-01   7.40418610e+00  -1.78421127e+00
C     3.570466282173606e+00   1.671586736859970e+00   1.759031637477936e+00  4.83850700e-01   2.59630342e+00  -2.78314960e-01
C     5.390752761221059e+00   7.078374962164129e+00   1.761958388323268e+00 -8.92285770e-01  -4.03987270e-01   1.12929430e+00
C     4.471821165559548e+00   8.341256969412199e-01   8.119076112001478e-01 -1.58348670e+00  -2.08901037e+00   1.90755102e+00
C     6.060168842213127e+00   2.615194297551870e+00   9.229922109989593e-01  3.37941252e+00  -1.12963787e+00   1.67343380e-01
C     4.422223497328795e+00   2.635537394658464e+00   2.742503729812379e+00 -2.38884940e+00   6.65814250e-01  -3.48481092e+00
C     6.279711053147302e+00   8.883329639883634e-01   2.749488821299922e+00 -3.37783198e+00   1.52000323e+00  -3.43560667e+00
C     7.032872456204759e+00   3.514768734324180e+00   7.086797732126567e+00  1.26256300e-01  -2.06365570e+00   5.10539884e+00
C     1.538253627271273e+00   5.296818510509068e+00   7.061243450397250e+00  5.63206311e+00   1.41142203e+00   2.50348083e+00
C     7.075596635183103e+00   5.246948376439291e+00   1.769350010500449e+00  1.75651023e+00  -5.98142040e-01   3.48621309e+00
C     1.825465462515706e+00   3.490788044110253e+00   1.753238557379540e+00 -2.65874696e+00   2.02615576e+00  -7.87272550e-01
C     7.972329835434198e-01   4.308525272701062e+00   9.677341868222157e-01  1.17501092e+00   2.81570867e+00  -3.41769156e+00
C     2.518460323506766e+00   6.221231624105539e+00   7.930238021732130e-01  3.59702070e+00  -1.47199970e-01   1.07784912e+00
C     9.424636022396634e-01   6.160743994589399e+00   2.772857405242041e+00 -1.79523982e+00   1.60949730e+00  -3.34295340e+00
C     2.635169249450974e+00   4.421356198684929e+00   2.646912008198083e+00  1.99842687e+00  -1.71200000e-04   8.42260200e-02
C     3.507387916949381e+00   3.616160289038360e+00   7.031874789090041e+00  2.14606239e+00   2.63352870e-01   2.41290497e+00
C     5.399372860995427e+00   5.395561182618131e+00   1.016077929302800e-03  1.50316180e-01  -8.52052790e-01  -3.17862070e-01
C     3.589417976636562e+00   5.367289919594998e+00   1.767917592258293e+00 -3.08584922e+00  -1.47056450e-01  -1.74349370e+00
C     5.170556788658521e+00   3.497618029816227e+00   1.819298408303272e+00  3.97592106e+00   2.12977257e+00  -2.42225627e+00
C     4.495442809346939e+00   4.610075080706940e+00   8.010163703986887e-01 -4.11707480e+00  -5.34710166e+00   4.52796151e+00
C     6.341148581178153e+00   6.146585367330657e+00   9.133410345235591e-01 -3.28961901e+00   4.63665242e+00  -6.92564960e-01
C     4.400290032829428e+00   6.229924371959085e+00   2.663598674877402e+00  3.68558635e+00  -8.87071640e-01  -2.45648940e-01
C     6.150661621197870e+00   4.326383478512383e+00   2.707651844548781e+00  1.78050210e-01   2.21103416e+00  -1.07835224e+00
C     6.079336277302600e-03   1.051263199587276e-01   3.577601361378432e+00  4.12772831e+00  -2.81478324e+00  -6.37440800e-01
C     1.817026698602372e+00   1.844188123601845e+00   3.611660941856804e+00  7.32603300e-01   4.83368380e-01  -2.40921457e+00
C     7.064378620193801e+00   1.869935043584163e+00   5.305908974608204e+00  3.00412398e+00  -2.75073035e+00   1.61534428e+00
C     1.758447396222798e+00   5.609597493727760e-02   5.281254690266804e+00  5.39496400e-02  -2.96127920e-01  -3.44410660e-01
C     9.069331469527601e-01   1.029830381293035e+00   4.418807829175660e+00 -4.40506800e-01  -2.39370014e+00   1.19134256e+00
C     2.791577080790680e+00   2.785959081141415e+00   4.500273977696395e+00 -4.61787660e+00  -4.09015465e+00  -5.64382660e-01
C     8.049977268239245e-01   2.648683071693856e+00   6.270186833099896e+00  2.19859079e+00  -5.19972270e-01  -1.10195849e+00
C     2.668418540834894e+00   9.007856409025318e-01   6.099468538594285e+00  1.61677420e-01  -2.04863170e-01   2.20164186e+00
C     3.539754697665027e+00   7.067474409329037e+00   3.540420472527616e+00  1.64743013e+00   1.32594449e+00  -7.95149620e-01
C     5.294599829640913e+00   1.854785857633324e+00   3.560764778066056e+00  5.48868400e-01  -5.92573471e+00   1.87963606e+00
C     3.589177214362423e+00   1.778404861402257e+00   5.323040273122403e+00 -2.67269810e-01   1.21037496e+00  -3.51250190e-01
C     5.487532015918251e+00   7.082825972071868e+00   5.233625486427982e+00 -3.16433741e+00   4.76785840e-01   1.90617302e+00
C     4.387664265824463e+00   7.888381496818784e-01   4.470967799424017e+00  3.52691819e+00   3.59861420e+00  -1.69877225e+00
C     6.141611106433860e+00   2.562365851240327e+00   4.513336841608265e+00 -2.09373760e-01   6.86924421e+00  -2.80486527e+00
C     4.417542601033525e+00   2.704781036989468e+00   6.245972773371354e+00  8.79847560e-01  -2.17441977e+00  -1.05510820e+00
C     6.330116593608818e+00   9.335322957229906e-01   6.140326330129522e+00 -3.63949804e+00  -1.87600885e+00   2.83296326e+00
C     7.029735153881422e+00   3.481947654318890e+00   3.558398739596990e+00  1.90240314e+00   1.29193625e+00   8.77249470e-01
C     1.738441807022201e+00   5.217916298943140e+00   3.664085771931982e+00  2.65700271e+00   3.15830561e+00  -3.84837231e+00
C     7.122170309347080e-02   5.377486383169578e+00   5.304939599015514e+00 -3.67265162e+00  -1.10617084e+00  -1.40416500e-02
C     1.750525485718165e+00   3.518007331669851e+00   5.478323907424755e+00  1.48353365e+00   1.89673748e+00  -4.35521621e+00
C     8.577780491143292e-01   4.381284456523012e+00   4.465770049720046e+00  2.96656430e-01  -2.63869530e-01   2.44514379e+00
C     2.708788196988814e+00   6.305987479530586e+00   4.388037031506656e+00 -3.31771855e+00  -4.99823712e+00   3.68500300e+00
C     7.405610131212436e-01   6.298300644561996e+00   6.208559296932413e+00  5.87350578e+00  -1.39839402e+00  -4.93523710e-01
C     2.657756262326024e+00   4.499699688232925e+00   6.257844834325922e+00 -3.05525704e+00   7.67271180e-01  -2.07963478e+00
C     3.559782109723068e+00   3.572410791181308e+00   3.521462451568529e+00 -7.36618000e-02   1.61195874e+00   2.83349387e+00
C     5.457018543148092e+00   5.303705434680229e+00   3.602483115243670e+00 -4.36469409e+00   1.25164795e+00  -1.24950941e+00
C     3.631733136977350e+00   5.415925960413716e+00   5.326724710734801e+00 -4.20041256e+00   5.16726000e-03   1.15941900e+00
C     5.317085618577855e+00   3.620518036441324e+00   5.371267650724698e+00 -7.77544970e-01  -2.70597647e+00   1.31990234e+00
C     4.419317076572156e+00   4.540466207621721e+00   4.576411368284274e+00  3.94775664e+00  -3.03801290e+00  -5.92087557e+00
C     6.364598201138141e+00   6.258728411257587e+00   4.340205308707390e+00 -3.01278769e+00  -2.04966800e+00   3.28752937e+00
C     4.532487785157260e+00   6.220033357304486e+00   6.156593386621582e+00  8.87324170e-01   1.89632875e+00   6.00632930e-01
C     6.180825501743578e+00   4.378599392046760e+00   6.349081651906300e+00  7.91064090e-01   3.43022218e+00  -5.60150649e+00
