64
Lattice="7.10842262195238 0 0 0 7.10842262195238 0 0 0 7.10842262195238 " PBC="1 1 1" Properties=species:S:1:pos:R:3:force:R:3 Energy="-500.65454929"
C     5.357568369735660e-02   7.097473019048831e+00   7.101044788162701e+00 -2.09536911e+00   8.90597710e-01  -1.68162998e+00
C     1.775968378465026e+00   1.707237608826056e+00   4.744296316617780e-02  1.92802790e-01   4.40478610e+00  -2.01170587e+00
C     4.775061569717139e-02   1.775957147157287e+00   1.767666309518676e+00 -3.05048854e+00  -1.57795918e+00  -1.53247170e-01
C     1.876952549478854e+00   6.954271783926370e+00   1.761935072697075e+00  3.09839880e-01   7.83261059e+00  -2.70237566e+00
C     8.556329404202918e-01   8.963903610281334e-01   9.148738947773360e-01  3.02712197e+00  -2.05369231e+00  -2.00857669e+00
C     2.652573298141104e+00   2.703860851681309e+00   8.592186420424984e-01 -5.36317520e-01  -1.53914507e+00   8.15941110e-01
C     7.870134175953244e-01   2.579922446679882e+00   2.741566199953027e+00  2.83311042e+00   3.64633743e+00  -2.69922040e+00
C     2.658744119817526e+00   9.605859570355437e-01   2.475956505629644e+00 -1.45426242e+00  -3.53088115e+00   6.97011883e+00
C     3.619303562436698e+00   7.954076116988300e-02   7.068419829537498e+00 -2.49781729e+00  -1.31801428e+00  -2.55761100e-02
C     5.347411571159299e+00   1.806659703969138e+00   7.798956118574660e-02 -9.48668480e-01  -3.76023484e+00  -1.38872003e+00
C     3.575067919556663e+00   1.784327528045015e+00   1.691499703313828e+00 -1.42904210e+00   1.54358884e+00   2.69908058e+00
C     5.314522392465309e+00   7.000860527946303e+00   1.792165701331184e+00  2.14229066e+00   3.15679943e+00  -2.08680031e+00
C     4.412350751320330e+00   8.327242003374605e-01   9.293159348459374e-01  3.47227030e+00   2.63278735e+00  -1.25462599e+00
C     6.252188022689151e+00   2.633753393833523e+00   8.747808273475596e-01 -2.17714200e-01   7.27724080e-01   1.52949026e+00
C     4.407559247969092e+00   2.646096174533986e+00   2.738243154546629e+00  2.08897081e+00  -7.08360710e-01  -2.58628782e+00
C     6.302085879607146e+00   7.952581926553576e-01   2.532875635906317e+00 -2.95162158e+00   1.53576250e+00   3.77477429e+00
C     1.745288355352880e-02   3.448081209683102e+00   7.080498034748045e+00 -1.01453947e+00   5.22440948e+00   1.08261362e+00
C     1.838900949941315e+00   5.349565849718516e+00   2.026418650708998e-01 -1.43694686e+00  -1.38246702e+00  -7.09770464e+00
C     6.261205270035300e-02   5.356052001022362e+00   1.821447497713977e+00 -3.37024069e+00  -1.78580798e+00  -2.62121926e+00
C     1.687021823568585e+00   3.535625343880843e+00   1.757773375589969e+00  4.44884142e+00  -2.75596682e+00   3.92566874e+00
C     8.338794611816630e-01   4.330827522165955e+00   9.961142797956609e-01 -1.56544390e-01   3.98466149e+00  -3.46291016e+00
C     2.854843534877430e+00   6.276240365803088e+00   8.717266224846504e-01 -5.58921211e+00  -2.19384296e+00   2.49822260e-01
C     1.043068112401357e+00   6.132667573430282e+00   2.518331945394249e+00 -2.71401490e+00   1.86261586e+00   6.95090151e+00
C     2.687068553841856e+00   4.444996111118454e+00   2.673108606995343e+00 -1.31737524e+00  -1.72090380e-01   1.06103133e+00
C     3.536237663405330e+00   3.560513210989535e+00   1.268412715467560e-02 -1.93063496e+00   1.69988370e+00   6.78850180e-01
C     5.236588561312903e+00   5.338217395174138e+00   9.192086108910119e-02  4.08857997e+00   1.07416288e+00  -4.03922567e+00
C     3.523579268740539e+00   5.356804640809367e+00   1.812481786431823e+00  2.17588114e+00  -7.34833900e-01  -6.97521200e-02
C     5.383691893948386e+00   3.531098344935296e+00   1.834372031721661e+00 -1.79600622e+00   1.81726656e+00  -4.64929030e-01
C     4.380679600842277e+00   4.488296214497469e+00   9.714754918155741e-01  2.10627969e+00  -2.55078437e+00  -1.40420871e+00
C     6.276272638041783e+00   6.263326707682013e+00   8.080659352793950e-01 -2.15998506e+00  -3.44939323e+00   3.42816554e+00
C     4.422598537706226e+00   6.213294075071143e+00   2.656934741923831e+00 -4.95161820e-01  -1.04706683e+00   1.97558271e+00
C     6.184995373536696e+00   4.574993735561169e+00   2.732074607565446e+00  2.11213865e+00  -4.85208188e+00  -2.46675866e+00
C     2.817800051835860e-02   7.064966984334059e+00   3.470058248813130e+00 -3.07231970e-01  -2.80737750e-01   9.65667130e-01
C     1.648259097432142e+00   1.732602024587192e+00   3.571976893064582e+00  3.22362201e+00   5.58847140e-01  -1.91803133e+00
C     7.065171493652836e+00   1.790230006767532e+00   5.281479956179632e+00  9.09947800e-02  -5.40665930e-01   8.80832850e-01
C     1.822204118217649e+00   6.908540884348220e-02   5.398969529095969e+00 -1.20003434e+00  -3.75589994e+00  -2.54841331e+00
C     8.544520892546574e-01   8.549873534779434e-01   4.484781170596105e+00  3.08570440e-01  -4.49399290e-01  -1.69001182e+00
C     2.517146900259269e+00   2.686204453988169e+00   4.338967803413475e+00  3.71602905e+00   3.42878330e-01   3.54323390e+00
C     9.403161477661613e-01   2.747173252631457e+00   6.233261634210723e+00 -2.33271217e+00  -3.98774098e+00  -2.01585396e+00
C     2.609518861847836e+00   9.492635904021816e-01   6.206041493640408e+00  4.15021382e+00  -4.98803330e-01   8.74703380e-01
C     3.571423146942485e+00   4.280741860722340e-02   3.568965125484715e+00 -6.01172450e-01  -1.22963616e+00  -3.18820305e+00
C     5.337505770985651e+00   1.709299122470082e+00   3.539386481373311e+00  4.68697000e-03   6.48735490e-01  -2.37672866e+00
C     3.619470254947136e+00   1.814541594054420e+00   5.276124612746177e+00 -4.07178278e+00  -3.16492620e-01   2.38181167e+00
C     5.290022716315896e+00   7.099043696110946e+00   5.286500635076139e+00  6.10415550e-01  -8.06186700e-01   4.76318480e-01
C     4.446556409883544e+00   8.429598313206771e-01   4.375043759052237e+00  6.97477390e-01   2.82301755e+00   2.60052309e+00
C     6.148215897311233e+00   2.656192764770755e+00   4.324354947949314e+00  2.88631907e+00   8.35678580e-01   4.58357385e+00
C     4.417604728647224e+00   2.664151639073012e+00   6.398806063312366e+00  1.77588826e+00   3.31263890e-01  -6.29272745e+00
C     6.177904224383663e+00   8.153529214756093e-01   6.159986876496143e+00  1.66408365e+00   3.72594211e+00   1.61141070e+00
C     8.610261717463120e-02   3.636398181490178e+00   3.516280553647001e+00 -5.45348870e+00  -1.13251680e-01   2.03313662e+00
C     1.848660814198575e+00   5.418311547044988e+00   3.580447218374348e+00 -4.20084180e-01  -3.19026345e+00  -1.22861974e+00
C     7.282088493029219e-02   5.434263842583436e+00   5.310208504029911e+00 -4.37840753e+00  -2.16306278e+00   6.84459800e-01
C     1.681383778167532e+00   3.660683751950277e+00   5.257672711477634e+00  2.81521065e+00  -2.18996833e+00   3.26833297e+00
C     8.935144354045338e-01   4.586917688000861e+00   4.480411836464270e+00  2.37959210e-01  -2.42596469e+00  -3.86632713e+00
C     2.779886924370959e+00   6.202817397476882e+00   4.428801062947533e+00 -2.58671240e+00   2.40781941e+00   9.07868830e-01
C     9.500950625960429e-01   6.187742281289743e+00   6.222936223849815e+00  1.76574790e-01   3.22153203e+00   2.99724534e+00
C     2.563708987694377e+00   4.518213361694037e+00   6.189311892088465e+00  3.23093178e+00  -2.81798804e+00   2.33608883e+00
C     3.554774439239957e+00   3.517576490174854e+00   3.629914375965797e+00 -1.45423993e+00   9.44976160e-01  -2.61156168e+00
C     5.180474033392588e+00   5.246456047088630e+00   3.556310640452365e+00  4.19665359e+00   3.53887033e+00   1.77492966e+00
C     3.561601155071525e+00   5.246524572282687e+00   5.359344053706136e+00 -7.74352700e-01   5.09538468e+00   6.69395290e-01
C     5.327241990648859e+00   3.539970082870413e+00   5.376596621910233e+00  8.80308140e-01  -1.42437930e-01  -7.46249610e-01
C     4.476294851335444e+00   4.437121329455792e+00   4.569534538073235e+00 -3.10264492e+00  -3.00272315e+00  -2.72986686e+00
C     6.123196808720976e+00   6.193723165913759e+00   4.403081936897659e+00  3.02038332e+00   9.35336180e-01  -2.80038430e-01
C     4.409337135550580e+00   6.287648957602831e+00   6.217561047917251e+00  9.92550260e-01  -2.99171159e+00   3.90681200e-02
C     6.233020871936583e+00   4.469195669664851e+00   6.131336236957781e+00  2.02031010e-01  -1.14992951e+00   3.96979389e+00
