64
Lattice="7.10842262195238 0 0 0 7.10842262195238 0 0 0 7.10842262195238 " PBC="1 1 1" Properties=species:S:1:pos:R:3:force:R:3 Energy="-511.67929212"
C     1.496721033176720e-02   7.079987081330119e+00   4.781864330164480e-02  3.19124460e-01   4.56889170e-01  -2.60625063e+00
C     1.770773045624747e+00   1.804224145126848e+00   3.616011936258279e-02 -3.68775900e-01  -1.92597197e+00  -2.46472502e+00
C     7.090431913191042e+00   1.789433792349866e+00   1.790702290366405e+00 -2.56959810e-01  -7.08503630e-01  -8.62229130e-01
C     1.796627729293985e+00   7.062603789234039e+00   1.746499275146197e+00  2.98824020e-01   3.63518750e-01   1.40785689e+00
C     8.994602755050327e-01   8.444644000524263e-01   8.821033556568739e-01  8.53224600e-02   1.67227529e+00   1.21496416e+00
C     2.637171763187255e+00   2.643915879147980e+00   8.861524553496783e-01  3.95170060e-01   9.46754500e-01   9.51704690e-01
C     8.288722172039088e-01   2.677021935816106e+00   2.640310629363568e+00  1.87833816e+00  -4.69893880e-01   1.16448832e+00
C     2.705567939373502e+00   8.154412080845498e-01   2.688611721308432e+00 -2.69441100e+00   3.19578480e+00  -2.58848506e+00
C     3.541288055508388e+00   3.138837742622920e-02   7.080667357374853e+00  1.43574925e+00  -1.69366364e+00   5.25686770e-01
C     5.357569080577922e+00   1.796587637790408e+00   7.314424707527601e-03 -5.58545680e-01  -7.17714230e-01  -9.05541920e-01
C     3.560060475552867e+00   1.805034860726659e+00   1.760844000909131e+00 -4.42558340e-01  -2.09127562e+00   8.37997890e-01
C     5.321285132493299e+00   7.078781066348409e+00   1.684742081350125e+00 -9.62192800e-02   1.76808420e-01   3.34272870e+00
C     4.456826445632241e+00   8.813348640874258e-01   8.685628057449408e-01 -2.32198650e-01   1.14255599e+00  -6.15349240e-01
C     6.203043942905781e+00   2.706582382365602e+00   8.716273889048751e-01 -3.81264910e-01  -1.55258783e+00   2.02597080e+00
C     4.392859314327838e+00   2.669191368542140e+00   2.686486018608147e+00  1.49625766e+00  -1.00305860e+00   2.59289080e-01
C     6.225035909723311e+00   8.618533788866014e-01   2.679179981839311e+00 -1.56134545e+00   6.40363650e-01  -1.60788796e+00
C     7.048291335709800e+00   3.591612844288939e+00   1.124346314228020e-02  2.15149524e+00  -4.24124900e-01   4.76254210e-01
C     1.831208428234629e+00   5.369717730256633e+00   7.100220708728365e+00 -1.04683490e+00  -2.17799583e+00   3.96553650e-01
C     7.082807561257282e+00   5.374409502438511e+00   1.836207781863276e+00  8.34788480e-01  -2.42379249e+00  -1.61896770e+00
C     1.748295786794950e+00   3.532833795233743e+00   1.766180720275322e+00 -3.12189500e-01   8.63006780e-01   1.23720429e+00
C     8.569848202341634e-01   4.452628922075131e+00   9.558832378828304e-01  7.42753450e-01   7.16915280e-01  -2.58366634e+00
C     2.747067052797514e+00   6.158426577731054e+00   9.041430910744102e-01 -2.92103774e+00   2.48245712e+00  -1.40828426e+00
C     8.716700394405952e-01   6.224595614026228e+00   2.675997114526981e+00  1.22063357e+00   5.37300440e-01   3.22960720e-01
C     2.640982090964253e+00   4.452645555784062e+00   2.683769463819688e+00  2.26939350e-01  -1.71476311e+00  -6.66673530e-01
C     3.510576897505166e+00   3.553964576650860e+00   4.792114675582520e-02  1.38595691e+00  -9.31114600e-01  -2.76918983e+00
C     5.300428878357766e+00   5.308735923199951e+00   1.238109509838500e-02  3.85507280e-01   2.35146560e-01  -7.42055970e-01
C     3.539627670152808e+00   5.265388833147417e+00   1.773996075524881e+00  5.85702970e-01   1.54468575e+00   8.84774730e-01
C     5.296912483856105e+00   3.544944343767211e+00   1.868498360288435e+00  7.63967310e-01   5.88952640e-01  -3.48882609e+00
C     4.395421260924311e+00   4.435487032011228e+00   8.732778935530130e-01  1.24249619e+00  -9.53633440e-01   2.08611652e+00
C     6.230227404015376e+00   6.167229150714078e+00   8.838151349079961e-01 -9.77874240e-01   1.44182362e+00  -2.08180100e-02
C     4.388304734702525e+00   6.192405833033821e+00   2.672605188505395e+00  2.95075421e+00  -1.91465460e-01  -2.13434381e+00
C     6.220565920327177e+00   4.454220213562844e+00   2.660128271870092e+00 -9.44524920e-01   3.07682770e-01   1.91499109e+00
C     7.090791172870257e+00   1.323716243451160e-02   3.529112678160625e+00  1.33339572e+00  -8.96943000e-03   2.02255330e+00
C     1.734368538692488e+00   1.784913190984677e+00   3.545663573967902e+00  1.80861628e+00  -3.55643120e-01  -4.96071970e-01
C     3.301101705769660e-02   1.825492758858566e+00   5.336077475628614e+00 -3.42774090e-01  -1.76948084e+00   8.47338020e-01
C     1.840554582295405e+00   1.278734145111800e-03   5.327590658778369e+00 -1.71319611e+00   8.59746910e-01  -9.01762460e-01
C     9.337693616173675e-01   9.579029540018509e-01   4.483693581935245e+00 -1.57725486e+00  -2.41525992e+00  -1.67634450e+00
C     2.652778873723274e+00   2.641742976521498e+00   4.413715781716049e+00 -7.82485900e-02   1.01835416e+00   4.93912020e-01
C     8.922465060618043e-01   2.665933436286942e+00   6.237116460713322e+00 -2.31161990e-01   1.94016707e+00   2.80749670e-01
C     2.681232396702384e+00   8.751178376639738e-01   6.151444685033690e+00 -2.18883280e-01   6.54918950e-01   3.17409743e+00
C     3.556748590369982e+00   7.077361514351196e+00   3.496294370440157e+00  1.03342768e+00   7.29141420e-01   2.14960797e+00
C     5.277318330156754e+00   1.679402731867565e+00   3.588297689231650e+00  2.92493137e+00   4.34123336e+00  -2.17646499e+00
C     3.536984474285787e+00   1.713215010322988e+00   5.289916161060822e+00  1.01943968e+00   2.81564550e+00   5.08359940e-01
C     5.311482902037223e+00   1.212512079983880e-02   5.331374827560127e+00  1.51401285e+00  -8.88632130e-01  -2.22353000e-02
C     4.458211450695522e+00   8.800687829345776e-01   4.415567312555880e+00 -1.84567743e+00  -1.97854445e+00   1.49656611e+00
C     6.243677890212713e+00   2.672050873709487e+00   4.466311498271012e+00 -1.18330310e+00  -2.75022400e-02  -9.18841030e-01
C     4.448604062103461e+00   2.658283067526393e+00   6.232955545532706e+00 -4.30536760e-01   1.00717100e-02  -9.09979780e-01
C     6.262647924406029e+00   8.663991440678652e-01   6.208560860785389e+00 -1.07073007e+00   1.12356289e+00   9.00111520e-01
C     7.102317053643230e+00   3.567937247573863e+00   3.563541754446785e+00  1.21231640e-01   3.39193690e-01  -3.08865170e-01
C     1.819783344894408e+00   5.352764924234421e+00   3.575213713304600e+00 -1.71628234e+00   1.53475560e-01  -6.10651820e-01
C     2.456372303721960e-02   5.352191843202797e+00   5.326138905626687e+00 -6.80350640e-01   6.83683710e-01   1.38146757e+00
C     1.787871147805311e+00   3.594234714888100e+00   5.305792680814140e+00 -7.56384200e-02  -1.78650178e+00   1.25829743e+00
C     9.037567483050131e-01   4.498992968856045e+00   4.469513558324417e+00  9.10087500e-02  -1.53415980e+00  -1.06964626e+00
C     2.735743904237664e+00   6.246028645573148e+00   4.413742367216647e+00 -2.34051730e+00  -6.70728990e-01   6.30795390e-01
C     9.591521171088636e-01   6.268153824230576e+00   6.231695080033727e+00 -1.36493561e+00  -1.62909348e+00  -2.49565500e-01
C     2.694707406957761e+00   4.412444013825104e+00   6.193636514242021e+00 -9.77579960e-01   2.01222281e+00   6.17968610e-01
C     3.542993508263378e+00   3.544895651072264e+00   3.561358828944410e+00 -4.28677510e-01   4.98266770e-01   1.76774770e-01
C     5.351576680309262e+00   5.378917806232568e+00   3.558662675328870e+00 -1.59222857e+00  -2.00343273e+00  -5.08635970e-01
C     3.575655217433528e+00   5.378494641833999e+00   5.292543362976948e+00  4.56731000e-03  -2.43919951e+00   1.10848781e+00
C     5.353725840804193e+00   3.593503897958538e+00   5.300899598103663e+00 -1.38352522e+00  -1.32044028e+00   1.60210037e+00
C     4.430929395764188e+00   4.462407552568108e+00   4.440318058192232e+00  1.20431108e+00  -1.93534140e-01  -6.21034940e-01
C     6.204887796649183e+00   6.221547309154094e+00   4.438000925670790e+00  1.09565677e+00   1.05634738e+00   4.01367690e-01
C     4.436163043002390e+00   6.197098742563318e+00   6.193011257388366e+00  5.00706100e-01   1.83748554e+00   1.13002947e+00
C     6.188478856041628e+00   4.448292215603121e+00   6.250864860902665e+00  1.00262288e+00   6.44660630e-01  -1.67615549e+00
