64
Lattice="7.10842262195238 0 0 0 7.10842262195238 0 0 0 7.10842262195238 " PBC="1 1 1" Properties=species:S:1:pos:R:3:force:R:3 Energy="-506.17875547"
C     7.050882142502112e+00   7.097408616739894e+00   3.225567607009540e-02  1.62877962e+00   6.28201380e-01  -5.29983930e-01
C     1.706093152784236e+00   1.766509626989949e+00   6.983456621424626e+00  1.69767100e+00   7.00790000e-04   3.18513951e+00
C     7.512223675351720e-02   1.702585999231980e+00   1.843747970073214e+00 -1.90006696e+00   1.12652882e+00  -2.18511955e+00
C     1.841982095725954e+00   4.800047675226440e-02   1.675131067462528e+00 -1.65813623e+00  -2.11191153e+00   2.71122937e+00
C     8.870756261953378e-01   8.259702747535199e-01   8.632536670585151e-01  2.07205890e-01   2.90706308e+00  -4.41506910e-01
C     2.632439757333347e+00   2.685416911846100e+00   8.603222246542533e-01  1.12426026e+00  -3.05766042e+00  -5.52198650e-01
C     9.541046394590801e-01   2.642629681159117e+00   2.692540048900923e+00 -1.05402798e+00  -5.07044590e-01  -1.10088010e+00
C     2.659498963215544e+00   8.689235581929058e-01   2.664989722099910e+00  2.32758070e-01   2.95737040e-01  -1.11305500e+00
C     3.712951272632875e+00   7.091803341167118e+00   7.066804298328650e+00 -4.18032049e+00   1.92353310e-01  -4.71708630e-01
C     5.362430246470835e+00   1.808066531889862e+00   7.821383191940760e-02 -1.01865653e+00  -1.69197355e+00  -2.77168029e+00
C     3.491763390777943e+00   1.768371820463711e+00   1.780851367215383e+00  2.32612796e+00  -8.78606910e-01  -1.49615587e+00
C     5.377857940419926e+00   7.008860986520887e+00   1.803795862663992e+00 -1.62352640e+00   9.05448670e-01  -8.09801130e-01
C     4.492164049413463e+00   7.966365158013755e-01   8.418738775970197e-01  7.55958210e-01   2.63063253e+00   3.15368010e+00
C     6.195995657541147e+00   2.619791812049807e+00   9.746291435109372e-01  1.04511348e+00   2.18680635e+00   4.33480680e-01
C     4.385003441069345e+00   2.648790479959645e+00   2.673489120858192e+00 -1.26064622e+00   2.53780622e+00  -2.08547015e+00
C     6.242630535223882e+00   8.031320502230792e-01   2.632426820004178e+00 -3.93875470e-01   2.47282465e+00  -4.05853520e-01
C     7.098526700533793e+00   3.549674430347011e+00   1.049971599197222e-01 -1.19469983e+00  -1.73032487e+00  -3.15037198e+00
C     1.681086503933564e+00   5.353914356172075e+00   7.046007257353542e+00  2.90118150e+00  -3.29095880e-01   4.09460802e+00
C     5.759499909938320e-02   5.320644450362558e+00   1.812113570140107e+00  2.19181970e-01  -3.63373881e+00  -1.47425130e-01
C     1.834539292905909e+00   3.457029292077158e+00   1.725416262329087e+00 -3.00447550e+00   3.82461681e+00   3.96166541e+00
C     9.713063824414443e-01   4.334775469004877e+00   9.024726117587101e-01 -3.27168633e+00   3.34729257e+00  -1.29654470e-01
C     2.661011351212175e+00   6.266730718022052e+00   8.387825667680342e-01  1.20291872e+00  -1.58046595e+00  -1.60896710e-01
C     9.490982484920404e-01   6.171334762366711e+00   2.635079185736379e+00  4.28284800e-01   2.11254043e+00   7.28884700e-01
C     2.617087768085159e+00   4.477278088352243e+00   2.728985144926341e+00  2.25940999e+00  -2.58698997e+00  -2.21059069e+00
C     3.473462330237395e+00   3.609843389277096e+00   6.398696380351340e-02  3.03285945e+00  -6.49531060e-01  -1.64979542e+00
C     5.367544330040568e+00   5.374353985657849e+00   7.088767618203022e+00  7.16955920e-01  -4.01134057e+00   2.28704081e+00
C     3.472988909290903e+00   5.336306224668526e+00   1.787696991451121e+00  1.70253516e+00   7.39212770e-01   7.59017800e-02
C     5.200941670063485e+00   3.632711327014089e+00   1.862681822395394e+00  3.24033863e+00  -2.56264042e+00  -2.41706982e+00
C     4.402970618999430e+00   4.479030243443846e+00   9.096591559433040e-01 -5.36357980e-01   1.94716980e-01   6.66536700e-02
C     6.290650915559484e+00   6.112341465453748e+00   9.608912637870728e-01 -2.22006204e+00   3.26427238e+00  -2.72848837e+00
C     4.422426442794596e+00   6.165507775092419e+00   2.708311932673274e+00 -3.41045490e-01   1.15099817e+00  -1.15723976e+00
C     6.177544396030639e+00   4.436163114086615e+00   2.703847558931010e+00  1.23987014e+00   6.81407200e-02  -2.47674980e-01
C     7.067898853243678e+00   7.020682790927530e+00   3.450821435518886e+00  3.49767499e+00   1.79780281e+00   2.89885061e+00
C     1.812720060758045e+00   1.750000315454999e+00   3.529243046631476e+00 -1.86340337e+00  -4.96189470e-01   2.49674452e+00
C     7.025470384646327e+00   1.798390760272197e+00   5.221539888457912e+00  1.75547409e+00   3.19200670e-01   1.40523337e+00
C     1.713096868339043e+00   2.579653677220620e-02   5.349958518984045e+00  1.66832300e+00   4.19875900e-01   8.92204200e-01
C     8.257560979799794e-01   8.670885188935528e-01   4.455162790402256e+00  1.46291554e+00   2.67990370e-01  -2.79695987e+00
C     2.638106449677558e+00   2.626460223309629e+00   4.465682047448011e+00 -1.30643800e-01   1.32589649e+00   6.99531860e-01
C     7.589334422248956e-01   2.634915976353024e+00   6.172345153557918e+00  3.07306820e+00   1.94676997e+00   7.17970860e-01
C     2.751437168855838e+00   9.543413499323262e-01   6.197164282219874e+00 -2.75266692e+00  -2.89150699e+00   4.70083770e-01
C     3.568294872315875e+00   2.999740128794760e-02   3.559579377509945e+00 -6.22055280e-01  -8.43362240e-01  -5.83206590e-01
C     5.356575891769456e+00   1.888747484047993e+00   3.394653665513146e+00 -4.46044200e-02  -4.23887310e+00   3.79541126e+00
C     3.562475206716881e+00   1.795586416464381e+00   5.349721595258121e+00  1.89596205e+00   7.17726980e-01  -1.95267061e+00
C     5.397932978909521e+00   7.092425257062142e+00   5.171166478066638e+00 -9.12664800e-01   2.46231598e+00   3.59573651e+00
C     4.461847835371009e+00   9.401144107322058e-01   4.282844318880657e+00  1.29242905e+00   6.46688500e-02   4.25566135e+00
C     6.215942389002450e+00   2.753814154295740e+00   4.332886690030517e+00 -2.06330160e-01  -2.51032002e+00   2.06042894e+00
C     4.458260854232731e+00   2.684979317349612e+00   6.273818526216454e+00 -1.91965090e-01   3.48576090e-01  -8.86255110e-01
C     6.269132796193802e+00   9.483180991094954e-01   6.150904587083022e+00 -3.52975468e+00  -2.02621912e+00   1.61911405e+00
C     6.803322012726980e-02   3.561049470391988e+00   3.568962637536798e+00 -5.83104180e-01   1.69125277e+00  -1.57845660e+00
C     1.894482843754714e+00   5.376849468502827e+00   3.636145690318715e+00 -4.00241145e+00  -8.88122500e-02  -1.23726119e+00
C     7.065332215088274e+00   5.347623828658732e+00   5.347145431816406e+00  2.33906698e+00   4.38876650e-01  -6.59033300e-01
C     1.762158916925378e+00   3.592264828811646e+00   5.388060161816829e+00 -7.30105540e-01  -9.48942000e-01  -1.54333560e+00
C     9.295058008141178e-01   4.515051393144208e+00   4.448723483603477e+00 -4.11884390e-01  -1.43999235e+00   1.50060582e+00
C     2.696868865023824e+00   6.285533917536475e+00   4.570761807238577e+00 -5.08585950e-01   1.81785630e-01  -2.80935871e+00
C     8.266577303051001e-01   6.269279940542036e+00   6.287881331938279e+00  4.33936900e-02  -1.43513528e+00  -2.84017813e+00
C     2.630121274211608e+00   4.501497052892392e+00   6.307058292314062e+00  1.68564710e-01  -5.37110350e-01  -2.81878612e+00
C     3.460777634408911e+00   3.505890527724478e+00   3.578251284458578e+00  1.61719253e+00   1.47025802e+00   8.04497860e-01
C     5.260798995745909e+00   5.268243291334704e+00   3.579668490676327e+00  1.22905467e+00   1.26977644e+00   5.50031450e-01
C     3.561611604452777e+00   5.424020534503789e+00   5.419460410308833e+00  7.68700700e-02  -3.48583324e+00  -5.01295940e-01
C     5.382164436095800e+00   3.567876541644688e+00   5.322009054252919e+00 -3.57615642e+00  -1.45881240e-01   3.29000540e-01
C     4.318111975783300e+00   4.434315563963452e+00   4.487074347733317e+00  3.10977534e+00  -4.94769400e-02  -6.64741400e-02
C     6.298824748561769e+00   6.234796484822833e+00   4.400455943413379e+00 -3.65453797e+00  -2.81873724e+00  -1.20563500e-02
C     4.584542906171971e+00   6.185272957440007e+00   6.219426013675833e+00 -2.81412591e+00   3.44267879e+00  -2.30440589e+00
C     6.207295135053672e+00   4.436184083933345e+00   6.203468600073101e+00  9.86863010e-01   5.22942550e-01   1.75173245e+00
