64
Lattice="7.10842262195238 0 0 0 7.10842262195238 0 0 0 7.10842262195238 " PBC="1 1 1" Properties=species:S:1:pos:R:3:force:R:3 Energy="-511.25882523"
C     2.855225896930160e-02   1.349178613276000e-03   7.087558830936491e+00 -5.44296250e-01   4.76055490e-01  -1.04575516e+00
C     1.795724177694756e+00   1.812265477131496e+00   7.056388966421599e-03 -6.38082930e-01  -1.97241640e+00  -2.23209360e-01
C     7.107486298572494e+00   1.798481463744828e+00   1.702956419134708e+00  3.58123200e-01  -1.76478045e+00   2.67787414e+00
C     1.725217439748405e+00   7.051205078141739e+00   1.832966838738139e+00  2.67167593e+00   2.50833290e+00  -1.69157817e+00
C     8.973646414324306e-01   9.047389901426448e-01   8.852191905438985e-01 -3.59906000e-02  -1.43637726e+00  -4.46572600e-02
C     2.670935917621541e+00   2.622923925224632e+00   8.879667380549809e-01  2.08668900e-01   2.45527556e+00  -4.25699800e-02
C     8.986514791793291e-01   2.645384052755915e+00   2.643608866375022e+00 -6.93864300e-01   8.98158970e-01  -4.11616810e-01
C     2.671395192807018e+00   8.654668744412521e-01   2.635331961244746e+00  2.01578650e-01  -2.22663430e-01   1.52084457e+00
C     3.509316289837735e+00   7.069446143595373e+00   2.329039129329900e-02  2.56030783e+00   3.14714646e+00  -1.60778888e+00
C     5.334543975616802e+00   1.818785251274334e+00   7.054854613399073e+00 -5.92124210e-01  -2.18294175e+00   8.51443900e-01
C     3.595965829048749e+00   1.751658994789150e+00   1.722802921837070e+00 -2.28395617e+00   4.40267680e-01   2.51904240e+00
C     5.325816538660870e+00   2.974661613791400e-02   1.728504374367893e+00  1.38584358e+00  -4.87717820e-01   1.18004242e+00
C     4.449361535617848e+00   9.037198555916154e-01   8.693229093756973e-01  1.59997100e-01  -6.68876610e-01  -1.17772617e+00
C     6.224603788712241e+00   2.582420559641229e+00   8.515333709268854e-01 -8.96747610e-01   4.00368444e+00  -7.42370900e-02
C     4.397051080062625e+00   2.650739182936691e+00   2.684151968040871e+00  2.35332814e+00  -8.54281600e-02   1.08971460e-01
C     6.200258365333681e+00   9.323274891731268e-01   2.629349157346624e+00  7.15612950e-01  -1.33108032e+00   9.56383530e-01
C     7.078702873699589e+00   3.529833543298520e+00   7.093038927186926e+00  5.81534610e-01   1.41498590e+00   3.49036230e-01
C     1.783573324405033e+00   5.387729264743867e+00   6.410780698805339e-02  1.65047950e-01  -2.06830947e+00  -3.21732538e+00
C     7.106974136722722e+00   5.281200808423344e+00   1.766287915288431e+00 -5.67125720e-01   1.67769445e+00   1.19331127e+00
C     1.749423111538255e+00   3.573724640934162e+00   1.764504056631943e+00  1.54431709e+00  -1.35861522e+00   7.05158710e-01
C     8.532131622762176e-01   4.430703134672194e+00   8.874101485638349e-01  1.34209602e+00   6.59977860e-01  -4.40668700e-02
C     2.735847189618332e+00   6.253935699474504e+00   8.834962510692630e-01 -4.40339763e+00  -2.46301953e+00   2.91487156e+00
C     8.707284577803500e-01   6.207611957449846e+00   2.735966540034122e+00 -3.81446720e-01  -5.80475690e-01  -2.67719977e+00
C     2.661675633306014e+00   4.439797081898412e+00   2.694479724181242e+00 -7.71882590e-01   6.58202450e-01  -8.06189310e-01
C     3.569307253865416e+00   3.557529948184373e+00   1.997751093124800e-03 -1.94110309e+00   8.81981310e-01   8.32218380e-01
C     5.302287162199086e+00   5.371680294657788e+00   6.823062102342721e-02  8.43783450e-01  -9.62415740e-01  -3.34594609e+00
C     3.559906720371597e+00   5.339993576734198e+00   1.791546131215625e+00 -2.88168390e-01  -7.67965500e-02   7.82294470e-01
C     5.346941349002986e+00   3.491082901480530e+00   1.772458239375270e+00 -8.93486020e-01   1.37371034e+00   8.44404080e-01
C     4.385679736397411e+00   4.470577262685274e+00   9.210268743129818e-01  2.97814109e+00  -1.70455837e+00  -5.69949670e-01
C     6.255546539124423e+00   6.239037227589473e+00   8.339093165566670e-01 -1.13430403e+00  -4.64436740e-01   2.50641874e+00
C     4.506443733109425e+00   6.204641560889626e+00   2.650527423026842e+00 -1.44308759e+00   4.69154090e-01   1.85146510e-01
C     6.260053989907765e+00   4.392016468657784e+00   2.694618836011915e+00 -1.63634785e+00   2.17623460e-01  -1.34843150e+00
C     1.545008548034380e-02   2.031004294141160e-02   3.537666953941533e+00 -1.43880500e+00   4.09173400e-01   8.82502610e-01
C     1.787445424374599e+00   1.820864464890684e+00   3.528019473845895e+00  6.58272100e-01  -1.02455473e+00   2.07192660e-01
C     2.036406695332360e-02   1.829475110462969e+00   5.333014100900525e+00 -3.49650160e-01  -8.32998250e-01   3.26690610e-01
C     1.760510544804027e+00   3.821736795303700e-02   5.263565735998065e+00  1.06761017e+00  -1.47512262e+00   2.44727891e+00
C     9.035097306189681e-01   9.659035547448873e-01   4.452254166034605e+00 -2.18592000e-01  -1.42659675e+00  -1.57342830e+00
C     2.636628608614861e+00   2.727721338468732e+00   4.450618589073969e+00  1.99840584e+00  -2.43997920e+00  -9.52154600e-02
C     8.885565949639885e-01   2.717052306958374e+00   6.252649003896058e+00  7.22075260e-01  -1.80286326e+00  -9.31425490e-01
C     2.658200183318643e+00   8.438927407053259e-01   6.253575444616123e+00 -3.09907750e-01   1.76540358e+00  -1.82464412e+00
C     3.586504092036171e+00   7.041156967347237e+00   3.578893956947653e+00 -7.04703240e-01   1.77579803e+00  -1.89182891e+00
C     5.325434034439688e+00   1.762350204578083e+00   3.637581236266824e+00  7.26743600e-02   3.83547850e-01  -4.01307607e+00
C     3.590736731201024e+00   1.743259682621358e+00   5.345198790281919e+00 -2.62691905e+00   1.04375828e+00   2.04869620e-01
C     5.316564357947130e+00   2.278697280335060e-02   5.341297972284968e+00  1.67134059e+00  -1.10827213e+00  -1.29802780e-01
C     4.456955676755473e+00   8.696686630519341e-01   4.441445880525120e+00 -4.97539300e-01  -2.22272830e-01   1.04007826e+00
C     6.223775088803201e+00   2.671397609670709e+00   4.430604825187359e+00 -1.57220916e+00  -7.24723050e-01   1.73325963e+00
C     4.376575979547977e+00   2.706238476879246e+00   6.243415802670714e+00  3.07719722e+00  -1.64878896e+00  -1.55792985e+00
C     6.239132978042164e+00   9.088067139027136e-01   6.192088441963837e+00 -4.21011830e-01   1.22198000e-01   1.17822910e-01
C     7.106778299679541e+00   3.476387090724395e+00   3.569319267099643e+00  3.16710160e-01   1.92394169e+00  -7.50974080e-01
C     1.686215373022346e+00   5.302811834872669e+00   3.577492318175441e+00  3.30935331e+00  -7.69767140e-01   4.31752420e-01
C     2.002670121577840e-02   5.292706643444529e+00   5.285919663695406e+00 -1.36213771e+00   4.32201730e-01   2.09356379e+00
C     1.785704642759188e+00   3.557085458517944e+00   5.356998487494215e+00 -2.90381060e-01   8.57603220e-01   3.32911260e-01
C     8.501037960537772e-01   4.373428796517199e+00   4.484300996648125e+00  1.42404746e+00   9.41605240e-01  -1.73462740e+00
C     2.670674754174482e+00   6.165720459097209e+00   4.439199405724522e+00 -1.61465096e+00   2.33541652e+00  -9.15160430e-01
C     8.838105855175193e-01   6.211546398285789e+00   6.162418596790219e+00  8.12235030e-01   8.38265400e-01   1.26595547e+00
C     2.697926811562359e+00   4.452053068758685e+00   6.219323510221653e+00 -1.21572041e+00   7.38924380e-01   6.93440270e-01
C     3.600522256863942e+00   3.578572798413680e+00   3.591291756839194e+00 -2.51977552e+00   1.79006770e-01  -8.75283870e-01
C     5.350966635480013e+00   5.336682686730481e+00   3.558428594971994e+00  7.56933350e-01  -1.18227776e+00  -4.62215350e-01
C     3.549598014803846e+00   5.373241730770498e+00   5.294444652775119e+00  4.47224870e-01  -1.28894014e+00   2.82225996e+00
C     5.260944505156941e+00   3.563301774099134e+00   5.338761758178378e+00  2.60851929e+00   8.69357030e-01   1.09932860e-01
C     4.453861309304760e+00   4.499493686145398e+00   4.483136637022969e+00 -1.64489620e-01  -1.30069579e+00  -1.93855358e+00
C     6.235598172725917e+00   6.165050063759917e+00   4.434228983375940e+00 -1.73557710e-01   2.83152196e+00   5.03582600e-02
C     4.435660832944286e+00   6.273597241020294e+00   6.223169806617109e+00 -2.37688090e-01  -1.57462153e+00   4.33916720e-01
C     6.236237788593264e+00   4.438564694668782e+00   6.190694835709187e+00 -2.13440905e+00  -5.94058800e-02   1.66288521e+00
