64
Lattice="7.10842262195238 0 0 0 7.10842262195238 0 0 0 7.10842262195238 " PBC="1 1 1" Properties=species:S:1:pos:R:3:force:R:3 Energy="-504.96054048"
C     7.088415893451784e+00   5.592679447892160e-02   6.422196825533059e-02 -9.61130970e-01  -2.09488708e+00  -2.15134527e+00
C     1.771550351638244e+00   1.745231914477277e+00   7.038839905910022e+00  2.69987300e-01   1.62466311e+00   1.27495576e+00
C     9.368104869826560e-02   1.690432800162792e+00   1.794984901742276e+00 -1.70665472e+00   3.60179853e+00  -1.08231979e+00
C     1.823864645741681e+00   7.571401293663220e-02   1.820769567448707e+00 -6.49518300e-01  -1.84284116e+00  -2.63726830e+00
C     9.488540741750434e-01   8.949668993984785e-01   8.509752175827630e-01 -1.35958517e+00  -1.80843490e-01   2.06771082e+00
C     2.668440861281920e+00   2.661835217393833e+00   8.723448419999118e-01  6.72841940e-01   1.70923320e-01   5.83611810e-01
C     1.022796454942093e+00   2.619746957903075e+00   2.620267720944216e+00 -3.51448424e+00   7.24657640e-01   1.84767247e+00
C     2.690166404419652e+00   8.795651511919506e-01   2.738755529649079e+00 -1.64292513e+00   1.09009738e+00  -2.15492399e+00
C     3.555169312116497e+00   4.879804177022840e-02   7.064224438507174e+00 -6.23716720e-01   4.39587720e-01   2.64569799e+00
C     5.399975299812472e+00   1.774142651199305e+00   2.841023268535400e-02 -3.53163137e+00   2.41424749e+00   1.70157752e+00
C     3.536703265086940e+00   1.807451724417459e+00   1.865823745193434e+00  1.04351362e+00   5.30792250e-01  -1.93301812e+00
C     5.337871925834807e+00   2.788015761058060e-02   1.822856458161487e+00 -3.10012957e+00  -1.22823416e+00  -6.79572920e-01
C     4.426254612712371e+00   9.336023847700238e-01   9.520355198028505e-01  9.68406900e-01  -2.21033250e-01  -9.82226450e-01
C     6.304184996806832e+00   2.684935245129368e+00   8.899792746671553e-01 -1.19078774e+00  -9.23501500e-01   7.59558880e-01
C     4.474024065729485e+00   2.757692154256080e+00   2.716826472371736e+00 -5.42820960e-01  -1.43314204e+00  -2.51678562e+00
C     6.207720574147480e+00   7.943154025632670e-01   2.656016618058232e+00  2.34926477e+00   4.24880923e+00   2.50794840e-01
C     1.877220679180080e-02   3.527786459752412e+00   7.059340525661876e+00 -6.77231000e-03   5.26498330e-01   1.54445155e+00
C     1.817240377786330e+00   5.245634739939115e+00   7.082067929883671e+00 -1.96521190e+00   4.78177037e+00   2.39133811e+00
C     5.923882183025820e-02   5.349852816739686e+00   1.733127692439941e+00 -6.63570410e-01   1.84364861e+00   2.12195420e-01
C     1.814388905136542e+00   3.555756752161814e+00   1.768211312280951e+00  4.13930390e-01   1.29183660e-01  -5.41238960e-01
C     9.382067233536763e-01   4.479924340840991e+00   8.836942917234563e-01 -5.85899900e-01  -2.68651516e+00  -7.91746260e-01
C     2.652836096525365e+00   6.357051117758260e+00   8.493836417581451e-01  9.07922890e-01  -4.23354594e+00   2.07351313e+00
C     9.629684159608629e-01   6.242961076875713e+00   2.670557465201252e+00 -1.57199198e+00  -3.44481850e-01  -6.28547860e-01
C     2.697628471064998e+00   4.502361223830306e+00   2.655875444784999e+00 -9.42940370e-01  -1.43528105e+00   8.23636820e-01
C     3.614454978451821e+00   3.563489009950945e+00   8.490662506881620e-02 -1.09603569e+00  -1.03531800e-01  -3.02693109e+00
C     5.269347300451816e+00   5.375193774706176e+00   3.334340689940780e-02  4.85218520e-01  -1.69347260e-01  -1.55989985e+00
C     3.517395580819175e+00   5.392688526868937e+00   1.844354531775379e+00  1.80370484e+00   1.16811021e+00  -2.64549695e+00
C     5.379756102512144e+00   3.648914692039474e+00   1.767380337676673e+00  4.90398500e-02  -2.53088832e+00   1.34888940e-01
C     4.425835286862017e+00   4.494754714037322e+00   9.410945200430515e-01  7.74906210e-01   3.12413220e-01   1.57502430e-01
C     6.139125859717455e+00   6.301631224896371e+00   9.092765806378955e-01  2.75071775e+00  -2.19149361e+00  -3.60831840e-01
C     4.404795280001758e+00   6.262601790743225e+00   2.791217821111465e+00 -9.74532280e-01  -6.43703400e-01  -4.71334839e+00
C     6.299489812582096e+00   4.497975327073767e+00   2.590606121540837e+00 -1.72831577e+00   3.86796750e-01   6.02177460e-01
C     7.096607568594846e+00   7.075219533363111e+00   3.528792799142725e+00 -7.56243630e-01  -1.54306762e+00   1.12073027e+00
C     1.758795637846952e+00   1.661186403724648e+00   3.586978365993378e+00  1.70590554e+00   3.65662682e+00  -2.29359350e-01
C     7.059792123750925e+00   1.762279546857240e+00   5.287000712607456e+00 -1.08305840e-01  -1.82373427e+00   4.62984900e-02
C     1.848705170755724e+00   7.055283393451512e+00   5.397412215868379e+00 -6.29706202e+00   2.70437030e-01  -1.01159327e+00
C     8.584995540102592e-01   8.145979359091392e-01   4.426068443123953e+00 -2.74938310e-01   3.09632930e-01   1.80407796e+00
C     2.690737139671812e+00   2.612122250548185e+00   4.492568163239411e+00 -1.39709840e+00   5.53989450e-01  -2.88700305e+00
C     8.328211592219974e-01   2.554165503821670e+00   6.168032900059721e+00  9.58915720e-01   4.07689547e+00  -9.74010860e-01
C     2.643568135113409e+00   9.018666187303552e-01   6.197658033255060e+00  1.51236496e+00  -1.44090013e+00   9.45755070e-01
C     3.449549098954132e+00   1.005983969182400e-02   3.574042600677954e+00  3.20999455e+00  -1.75684292e+00   2.75946677e+00
C     5.346830173273209e+00   1.770574294128292e+00   3.471947241040168e+00 -4.47200350e-01   5.13604790e-01   2.64440519e+00
C     3.560904316402087e+00   1.682115803528940e+00   5.366859504605356e+00 -3.93868000e-02   5.20054077e+00  -2.36101130e-01
C     5.194139265037276e+00   7.051032627808977e+00   5.237347101090684e+00  2.63896958e+00   4.01656670e-01   3.35319749e+00
C     4.364064515978741e+00   8.531914815872266e-01   4.466441298068053e+00  9.01570710e-01   9.88661810e-01  -2.14866172e+00
C     6.245248993780186e+00   2.672474038108056e+00   4.347679601839642e+00  1.07980156e+00  -7.25964100e-01   4.87393070e-01
C     4.505844493082559e+00   2.689354764724901e+00   6.241464611745751e+00 -8.23357430e-01  -2.45054492e+00   4.33621950e-01
C     6.117329943195786e+00   9.214764820436967e-01   6.270721812986277e+00  3.64820264e+00  -2.95470159e+00  -3.97113059e+00
C     7.372187749737720e-02   3.688032341717333e+00   3.454350696265490e+00 -1.09263667e+00  -4.68303830e+00   1.11509517e+00
C     1.856311325127576e+00   5.342871492716132e+00   3.564366331470705e+00 -3.69445192e+00  -1.51692130e-01  -7.61555570e-01
C     4.359972339244860e-02   5.251311597327674e+00   5.374290294191174e+00 -3.28790190e+00   2.64451347e+00  -1.45433421e+00
C     1.666086737026197e+00   3.482807062613647e+00   5.128237292179934e+00  4.04671087e+00  -8.64943920e-01   6.93166654e+00
C     9.372685537362888e-01   4.478047077511275e+00   4.382386688534471e+00 -1.99513697e+00  -7.63194790e-01   5.25202000e-02
C     2.563346671393435e+00   6.131793308532247e+00   4.529505659699717e+00  4.26511711e+00   3.23074402e+00  -1.69203907e+00
C     8.054385911948168e-01   6.184070638838061e+00   6.303543106244247e+00  2.67531683e+00   3.35875780e-01  -2.07002326e+00
C     2.718357057930274e+00   4.472302476855148e+00   6.275106501310971e+00 -1.14113962e+00  -2.74919564e+00  -1.82083083e+00
C     3.549606758163669e+00   3.651185833066564e+00   3.553462722013887e+00  8.64358660e-01  -4.31229887e+00   1.05443716e+00
C     5.305104372251845e+00   5.349456308925943e+00   3.486257490953395e+00 -4.58359880e-01  -3.26004700e+00   1.39106350e+00
C     3.497453469832574e+00   5.364168895559461e+00   5.375415344239242e+00  1.75729315e+00  -3.53505113e+00  -5.20323670e-01
C     5.395249833707375e+00   3.447748962009843e+00   5.274592960924245e+00 -2.56392703e+00   3.71718072e+00   1.49972281e+00
C     4.456271917583655e+00   4.359874527349608e+00   4.467371506252106e+00 -3.79475530e-01   3.41812406e+00  -5.92603330e-01
C     6.044208656325573e+00   6.156289999144160e+00   4.344011655767722e+00  6.72892716e+00   2.60548455e+00   4.26869457e+00
C     4.342038073311504e+00   6.226065777992496e+00   6.205162466099220e+00  2.47166132e+00   5.18681280e-01   3.65179320e-01
C     6.172446519664479e+00   4.437259232854619e+00   6.228677270294632e+00  2.16579489e+00  -1.13941000e+00  -6.01548390e-01
