64
Lattice="7.10842262195238 0 0 0 7.10842262195238 0 0 0 7.10842262195238 " PBC="1 1 1" Properties=species:S:1:pos:R:3:force:R:3 Energy="-502.66821556"
C     6.121347054986800e-02   6.996722715139200e+00   7.107755707789791e+00 -2.29533251e+00   4.30207388e+00  -2.01000189e+00
C     1.684141277470283e+00   1.781991131698274e+00   7.032485402593100e+00  2.47058620e+00   2.51045941e+00   1.99176244e+00
C     8.277608864114980e-02   1.638080760335243e+00   1.733449419647722e+00 -4.28165546e+00   2.96604788e+00   1.64832864e+00
C     1.794393338811840e+00   7.062292724660188e+00   1.839316081822323e+00  9.96429000e-01   2.55645144e+00  -3.81438788e+00
C     8.987133935403495e-01   9.072570777715536e-01   8.173184714142656e-01  9.88785420e-01  -3.94377857e+00   4.32628810e-01
C     2.570715546618232e+00   2.678277638671929e+00   9.573869536038652e-01  3.12308000e+00  -2.27074720e-01  -2.95201738e+00
C     8.024930741137674e-01   2.576922550165790e+00   2.666306130884908e+00  2.73245274e+00   2.85905851e+00   2.62654420e-01
C     2.716883055415792e+00   9.409157432141585e-01   2.642794027890091e+00 -1.32282173e+00  -3.10659898e+00   1.25642084e+00
C     3.659573274168580e+00   7.107480754002850e+00   1.094668649789520e-02 -3.64488004e+00   1.73601458e+00  -5.83402960e-01
C     5.377464062722551e+00   1.920592008953748e+00   7.005066297273652e+00  3.59767570e-01  -5.74240644e+00   3.64805506e+00
C     3.640092784146923e+00   1.772625287306840e+00   1.764052458542894e+00 -4.98549191e+00   2.54753796e+00   2.38804666e+00
C     5.274031324453039e+00   7.033373244578337e+00   1.692880514407763e+00  4.73857547e+00   3.16633557e+00   3.42922100e-01
C     4.447110653595225e+00   9.951353789166608e-01   9.067647484208924e-01  2.43384162e+00  -4.10951055e+00  -3.17173656e+00
C     6.210549442013334e+00   2.680255912687075e+00   9.603977970887924e-01  4.17714050e-01  -1.00438344e+00  -2.41972056e+00
C     4.441801159487668e+00   2.729398073196337e+00   2.694900827137251e+00  4.17730170e-01  -4.09283775e+00   1.29930450e-01
C     6.314345705015634e+00   6.901151679034729e-01   2.607040439217146e+00 -4.15853929e+00   5.67768643e+00  -1.23931367e+00
C     7.032313094428791e+00   3.604230934197475e+00   7.030414790168120e-02  1.92565586e+00  -4.72856680e-01  -1.92559756e+00
C     1.775917624327519e+00   5.344408902360384e+00   2.717571292893860e-02 -9.11842790e-01  -1.30990188e+00  -1.80302681e+00
C     5.684307015463960e-02   5.313696820262223e+00   1.768076536588076e+00 -2.96674846e+00  -6.18391000e-03  -4.88710200e-02
C     1.718589333244839e+00   3.631528840911252e+00   1.757743164793834e+00  2.54902670e+00  -6.04089600e+00   3.40205306e+00
C     9.557037502116753e-01   4.443826562344785e+00   9.187284369430310e-01 -4.39472516e+00   1.82260778e+00  -1.82024602e+00
C     2.637045375433071e+00   6.146284609969606e+00   8.674600761439002e-01  3.22648812e+00   2.69272254e+00   2.34777260e+00
C     8.713604676354942e-01   6.234282190446276e+00   2.630319385950027e+00  1.65982019e+00  -1.83307031e+00   2.61746377e+00
C     2.687942818739890e+00   4.303270939953037e+00   2.695453009406373e+00 -1.36392299e+00   5.52371020e+00  -2.52331700e-02
C     3.626010998936703e+00   3.535846842329682e+00   6.494546350959420e-02 -4.77052934e+00   3.97611220e-01  -9.21017040e-01
C     5.281598240332029e+00   5.287968097841810e+00   4.565036114986620e-02  2.41263624e+00   2.35681896e+00  -2.45486985e+00
C     3.565741171489640e+00   5.254096108636380e+00   1.804861486298957e+00  5.53995800e-02   6.87350060e-01  -1.38900150e-01
C     5.276933693408785e+00   3.517236209984034e+00   1.812797826901508e+00  2.56084456e+00   1.11947206e+00   4.04839930e-01
C     4.516624273817336e+00   4.413582072286566e+00   9.420038294646017e-01 -3.71357107e+00   1.34834960e-01  -8.95052890e-01
C     6.220407260334298e+00   6.199670925288364e+00   7.404554530453366e-01 -5.17026880e-01  -1.22265051e+00   5.84531140e+00
C     4.514048892302110e+00   6.246608479606261e+00   2.621694239195598e+00 -3.67521339e+00  -2.62197356e+00   2.09967617e+00
C     6.111501249900065e+00   4.362625415819323e+00   2.707497094188343e+00  3.53335754e+00   3.25613781e+00  -5.10161130e-01
C     7.085061286648954e+00   7.064624927037584e+00   3.520979007746142e+00  2.71144941e+00  -8.38327920e-01   9.17411840e-01
C     1.772874224266993e+00   1.750171059766332e+00   3.648009718755722e+00 -9.38329900e-01   9.53276000e-03  -6.37428578e+00
C     4.777784095580600e-02   1.683330348617793e+00   5.224224455344580e+00 -2.95662823e+00   4.16273419e+00   3.43329004e+00
C     1.798897377552324e+00   1.225941311997584e-01   5.368458259936821e+00 -3.01798430e-01  -4.39771097e+00  -2.08970527e+00
C     8.628018557167879e-01   8.835851774362391e-01   4.385043106067564e+00  2.37383196e+00  -2.06285164e+00   7.87062210e-01
C     2.588491507979839e+00   2.610629837219115e+00   4.424097490784106e+00  2.93257189e+00   3.42458330e+00   1.73991695e+00
C     7.656039860115036e-01   2.715219115848902e+00   6.162938933326003e+00  2.71973905e+00  -2.11151909e+00   1.38577211e+00
C     2.663841569678328e+00   1.015740279228350e+00   6.188829727782151e+00  8.34067850e-01  -2.93074730e+00   5.36632460e-01
C     3.573131300898070e+00   1.017826601267320e-02   3.519986956285296e+00 -1.15585500e-02   1.34366620e-01  -3.63829890e-01
C     5.367651453969451e+00   1.845280830326991e+00   3.614421355612829e+00 -1.68999771e+00  -2.39289877e+00  -3.23744113e+00
C     3.590660244573633e+00   1.840967652733854e+00   5.248936602246105e+00 -3.62830006e+00  -8.86538620e-01   3.57722072e+00
C     5.344423830047886e+00   7.326679628124480e-02   5.264942850712238e+00 -7.56285260e-01  -2.79181785e+00   1.02392129e+00
C     4.325143058765193e+00   9.433100021210268e-01   4.388028998989095e+00  6.24103499e+00  -7.79412150e-01   7.98844030e-01
C     6.280476345926572e+00   2.656394359636259e+00   4.448309275817409e+00 -2.82627450e+00   4.33106910e-01   5.11557080e-01
C     4.405008035090774e+00   2.664281154533149e+00   6.228913341009842e+00  1.37502958e+00   2.47257433e+00  -1.62289153e+00
C     6.286889138308979e+00   8.040207452190316e-01   6.126075364460945e+00 -9.49821590e-01   3.81113644e+00   1.72031882e+00
C     7.050538379184209e+00   3.561294213382794e+00   3.520005509268334e+00  1.26966626e+00  -1.15083780e+00   2.25120047e+00
C     1.835560844320629e+00   5.395497348983003e+00   3.625950364091755e+00 -2.41707142e+00  -3.42002146e+00  -1.97361132e+00
C     4.674740401281080e-02   5.439752824362147e+00   5.372769660424304e+00 -3.79570464e+00  -4.33818222e+00  -1.36537079e+00
C     1.756772936190431e+00   3.546890274459435e+00   5.306163385053773e+00 -1.38939241e+00   8.47478290e-01   2.26954325e+00
C     8.715565890155800e-01   4.494090503027709e+00   4.562848569009541e+00  8.30458730e-01  -2.91541930e-01  -5.16576721e+00
C     2.723827699978627e+00   6.208002138767458e+00   4.431355474616031e+00 -4.91273540e-01   2.65936444e+00   1.36312756e+00
C     8.687834511830655e-01   6.187589876708770e+00   6.208520627113360e+00  4.38732959e+00   3.31329900e+00   2.37204342e+00
C     2.575204088997405e+00   4.471529080474092e+00   6.249293188661383e+00  4.33063429e+00  -1.76417232e+00  -3.80496900e-01
C     3.523411225629802e+00   3.475122573424523e+00   3.565529127242885e+00 -1.40653700e-02   2.02173001e+00   8.98003390e-01
C     5.335895357841090e+00   5.341833591929385e+00   3.612309372168200e+00  1.48667500e-02  -3.18140950e-01  -1.28461291e+00
C     3.537085342802765e+00   5.327476995100676e+00   5.380088492353856e+00  2.57973620e-01   1.24300949e+00  -4.09572370e-01
C     5.275480518572579e+00   3.616966028742337e+00   5.401740818738602e+00  2.47864587e+00  -1.24295217e+00  -1.39334460e+00
C     4.444102155889762e+00   4.483467960601287e+00   4.534485607334610e+00 -1.53445107e+00  -1.32827237e+00  -2.27203861e+00
C     6.264928590719430e+00   6.247690879118608e+00   4.446226223652845e+00 -1.51219711e+00  -4.25854460e-01  -6.38084640e-01
C     4.527221936764589e+00   6.230957794439581e+00   6.207803884860586e+00 -3.39778968e+00   3.52386660e-01   7.44562170e-01
C     6.140372677045004e+00   4.515589713989222e+00   6.259786855385705e+00  2.23153429e+00  -2.00085623e+00   1.54087730e-01
