64
Lattice="7.10842262195238 0 0 0 7.10842262195238 0 0 0 7.10842262195238 " PBC="1 1 1" Properties=species:S:1:pos:R:3:force:R:3 Energy="-502.5540967"
C     6.471955783873061e-02   7.265604060973439e-02   3.943859495915300e-02 -1.21592963e+00   2.88963480e-01  -2.18183080e-01
C     1.845392006056768e+00   1.670243742574373e+00   5.177654193223460e-02 -6.56341070e-01   2.52345152e+00  -1.78828582e+00
C     4.263383092684300e-02   1.795860659409060e+00   1.837808954058431e+00 -1.86676869e+00   9.54498000e-01  -2.02755560e+00
C     1.795273432616422e+00   7.107598469481437e+00   1.867629355623140e+00 -2.62863324e+00  -9.31859730e-01  -1.07157109e+00
C     9.366723703311494e-01   9.265266608940758e-01   9.992685712490598e-01  1.41845150e-01  -1.90374014e+00  -1.71836926e+00
C     2.768443643468831e+00   2.597765653719475e+00   8.417802596711144e-01 -3.44500057e+00   2.24507798e+00   1.49420107e+00
C     9.068177061694113e-01   2.768821385046857e+00   2.591470505731429e+00  2.02505900e-02  -2.12656191e+00   2.64940906e+00
C     2.624743112741542e+00   8.460768035553210e-01   2.744296971586726e+00  2.47465760e-01   2.80552506e+00  -3.46615227e+00
C     3.439358322117648e+00   6.983327887890979e+00   9.814030437624400e-03  5.04393875e+00   2.89553300e+00  -4.11212190e-01
C     5.254971581966259e+00   1.686808002216176e+00   4.027689123872960e-02  3.14824079e+00   2.19847877e+00  -3.59846402e+00
C     3.563889924986714e+00   1.756006008473959e+00   1.817781399831938e+00 -5.55720930e-01  -7.01956780e-01  -9.09336700e-01
C     5.389265750293180e+00   5.412779488225200e-02   1.814143380219248e+00 -2.83156499e+00  -7.04646160e-01  -5.13079230e-01
C     4.424940762959517e+00   8.575549868125136e-01   8.951210810851062e-01 -6.49521340e-01  -1.79861028e+00   1.90433677e+00
C     6.214141825552804e+00   2.611056413660541e+00   7.908177742973223e-01 -1.08644858e+00   7.96671380e-01   3.48684446e+00
C     4.393572999958885e+00   2.682818143620453e+00   2.657765218938525e+00  2.33558170e+00  -2.43852271e+00   8.26400540e-01
C     6.174947049489517e+00   9.629307413209770e-01   2.735184897882827e+00  1.34357969e+00  -1.87337517e+00  -1.77712936e+00
C     1.508165593594920e-02   3.560879934512500e+00   7.087943965274042e+00 -7.51836640e-01  -1.15147281e+00  -1.41712510e-01
C     1.657089464347611e+00   5.359310217614465e+00   5.442919200133999e-04  1.62759275e+00  -1.43009367e+00  -4.06309670e-01
C     4.886898382797600e-03   5.319591266467179e+00   1.752628370381839e+00 -1.98221336e+00   5.23176830e-01   1.66827891e+00
C     1.817298951188718e+00   3.552482257281911e+00   1.735498422467938e+00  3.93166320e-01   7.79938320e-01  -1.29224676e+00
C     8.223698586964899e-01   4.451728284929177e+00   9.121247123290509e-01  3.12889512e+00  -1.14544331e+00  -2.07910487e+00
C     2.555731702577534e+00   6.157164050789516e+00   9.124935683788029e-01  1.41447825e+00   2.41031228e+00  -4.99280300e-02
C     8.471609090890971e-01   6.212041499921273e+00   2.762800693256170e+00  1.48377533e+00  -1.37503871e+00  -3.60374561e+00
C     2.775939048616263e+00   4.433198475348719e+00   2.557947184655510e+00 -3.66531680e+00  -1.05213445e+00   3.63388383e+00
C     3.585184129039864e+00   3.611101011407027e+00   1.006012402872880e-02 -5.55850790e-01  -4.60075820e-01  -2.04446910e-01
C     5.480405182483665e+00   5.465943665337085e+00   7.038195243062615e+00 -4.06433763e+00  -3.05942213e+00   4.55825369e+00
C     3.562117581974868e+00   5.405673837890022e+00   1.764107264481294e+00 -7.79121750e-01  -1.39952095e+00   6.80056230e-01
C     5.213915110018794e+00   3.516554583339002e+00   1.776395381411810e+00  2.96704454e+00   1.53465315e+00  -2.21934290e+00
C     4.397883476351427e+00   4.557973115187162e+00   9.250773246060841e-01  3.38942289e+00  -2.80105463e+00  -2.08260492e+00
C     6.283312180046595e+00   6.314728280321042e+00   8.724314225874233e-01 -6.40426580e-01  -1.03687564e+00   1.79813519e+00
C     4.349269613811282e+00   6.265278893786143e+00   2.751390182182319e+00  6.01676012e+00  -2.34513242e+00  -4.28282961e+00
C     6.147074568975366e+00   4.319149876570045e+00   2.587145243819838e+00  1.05286338e+00   4.73494143e+00   3.06785842e+00
C     7.058720031451377e+00   7.086290972677987e+00   3.552219743234554e+00  3.30383132e+00   5.54990917e+00  -1.97883286e+00
C     1.772133100124631e+00   1.885038948882913e+00   3.518580981375286e+00  1.18339012e+00  -1.59321740e+00   5.60710650e-01
C     4.043768375839400e-02   1.760792607013588e+00   5.247198663999741e+00 -1.74231903e+00   2.73255117e+00   4.40758671e+00
C     1.705030870107903e+00   7.057535981495563e+00   5.336457349733426e+00  2.43755144e+00   3.18230763e+00  -1.79735373e+00
C     8.731155371803722e-01   1.088473446223511e+00   4.362490569042221e+00  1.30406168e+00  -7.87034955e+00   3.57173840e-01
C     2.761430473711938e+00   2.662114009728989e+00   4.449415417461308e+00 -2.77853606e+00   1.03627915e+00  -1.68629638e+00
C     9.210049092870859e-01   2.621954762884620e+00   6.166490727772312e+00  1.38140466e+00   6.95523550e-01   2.26251421e+00
C     2.705288222943405e+00   7.957643834301278e-01   6.201358962407936e+00 -3.37524483e+00   7.27332620e-01   4.14780950e-01
C     3.481191247067895e+00   7.057431914188407e+00   3.472868492611721e+00 -1.02490753e+00   2.53177382e+00   6.66526218e+00
C     5.265071868582791e+00   1.791904822221031e+00   3.611579266080900e+00  5.66681800e-01  -1.08026088e+00  -1.13167318e+00
C     3.525508636808059e+00   1.798493548063282e+00   5.311762120877737e+00  9.51746780e-01  -4.25457275e+00   2.00734313e+00
C     5.442857712278337e+00   6.995702229987874e+00   5.317683792341328e+00 -3.30642083e+00   4.99190465e+00   2.29919140e-01
C     4.288705213330847e+00   8.474997675953926e-01   4.420924859600348e+00  5.43196497e+00   6.06028710e-01   5.78163410e-01
C     6.231864189407856e+00   2.617101913846173e+00   4.488389832423374e+00 -2.63121519e+00   2.81837270e+00  -2.13586430e+00
C     4.393699387713069e+00   2.594741801821153e+00   6.271747771623022e+00  1.95944732e+00   2.63827394e+00  -2.04337038e+00
C     6.327683238377540e+00   8.959995399524857e-01   6.189122736962547e+00 -3.51280256e+00  -1.14582543e+00   6.77849720e-01
C     7.048673839930983e+00   3.546585891802847e+00   3.531860865429744e+00  1.35535333e+00  -3.99734460e-01  -2.96201360e-01
C     1.769302241900442e+00   5.194201179398296e+00   3.535831274884145e+00  1.58043984e+00   3.82661130e+00  -7.57220930e-01
C     6.258098889350361e-02   5.426533148647281e+00   5.262864347938150e+00 -1.91834146e+00  -4.16515456e+00   9.93863350e-01
C     1.914020698746915e+00   3.454436779263418e+00   5.366892274433636e+00 -3.59417429e+00   3.91670565e+00  -1.28423015e+00
C     8.909352153410930e-01   4.414917247307281e+00   4.374236739832188e+00  7.87227000e-03  -9.59395760e-01   2.76466278e+00
C     2.631177514728714e+00   6.184194254307423e+00   4.419577884598084e+00 -1.18278630e+00  -5.33171550e-01   5.62139320e-01
C     7.645530057271366e-01   6.268981600044675e+00   6.202399066805695e+00  5.23887257e+00  -1.92147530e-01   9.33852370e-01
C     2.697864968285565e+00   4.523677890498936e+00   6.202381224664919e+00 -2.75860470e+00  -3.26141933e+00   2.14128922e+00
C     3.640451759489233e+00   3.524749101851112e+00   3.538635760860413e+00 -2.90817704e+00   3.09388795e+00   7.82998160e-01
C     5.399321040594527e+00   5.367612499813494e+00   3.649236419247255e+00 -4.09935348e+00  -2.07178238e+00  -3.72593181e+00
C     3.517322221897736e+00   5.370156533184965e+00   5.354891124524289e+00  2.30533217e+00  -5.69590990e-01  -9.23423290e-01
C     5.283261326888204e+00   3.542553141482069e+00   5.295209305796353e+00  1.86272476e+00  -2.54109910e-01   4.51428074e+00
C     4.399151903283740e+00   4.463935721262955e+00   4.528103239001017e+00  2.63743712e+00  -4.82446170e-01  -2.92460543e+00
C     6.312094254319201e+00   6.277678897288697e+00   4.365246859913126e+00 -3.34735830e+00  -3.81377194e+00   4.25170134e+00
C     4.534513756688185e+00   6.188178596270158e+00   6.216754384118333e+00 -2.54983493e+00   1.08715854e+00  -7.44486930e-01
C     6.239207403226995e+00   4.498157160524386e+00   6.309108930071480e+00  8.28934090e-01  -1.77123340e+00  -5.57769528e+00
