64
Lattice="7.10842262195238 0 0 0 7.10842262195238 0 0 0 7.10842262195238 " PBC="1 1 1" Properties=species:S:1:pos:R:3:force:R:3 Energy="-510.91330881"
C     7.096680927516284e+00   7.102241420026552e+00   7.058828150559426e+00  1.41021153e+00  -5.10661870e-01   1.55885543e+00
C     1.778769310229985e+00   1.823307203239821e+00   7.078443700610864e+00 -3.29861700e-01  -8.84121140e-01   9.49899640e-01
C     1.520420514191800e-03   1.754005271843333e+00   1.739562378764018e+00 -3.50745700e-02  -4.21276900e-01   1.11605091e+00
C     1.788390489161929e+00   7.094112156834094e+00   1.731742545208208e+00 -4.51133180e-01   3.49061130e-01   1.83386052e+00
C     8.690048074634524e-01   8.802447874786488e-01   8.775356965339406e-01  1.49046542e+00  -2.29384850e-01  -1.20426911e+00
C     2.615928100018932e+00   2.700952867071693e+00   9.107526445949385e-01  4.15662370e-01  -3.22151630e-01   3.12217910e-01
C     7.848850847786701e-01   2.574420101066645e+00   2.743169575759195e+00  2.45961977e+00   2.75348824e+00  -1.07329099e+00
C     2.640610107208549e+00   9.080756126362466e-01   2.643780392612843e+00  1.06914043e+00   3.66331330e-01  -6.14956310e-01
C     3.552086460310430e+00   7.094761866661562e+00   1.242765526654600e-03  1.96672320e-01   1.03380204e+00  -8.09835320e-01
C     5.320406886878597e+00   1.802056431648879e+00   7.089292859550413e+00  1.60436350e-01  -3.31686000e-01  -2.04283780e-01
C     3.539550899188512e+00   1.845752971757411e+00   1.741901049805998e+00 -3.64748000e-03  -2.36322636e+00   1.35322522e+00
C     5.339095925125744e+00   2.920026277534080e-02   1.692928780597353e+00  9.11630760e-01  -1.67623001e+00   2.50451980e+00
C     4.414028054721745e+00   9.080458283454689e-01   8.501883862829551e-01  9.16646620e-01   1.00198870e-01   7.59417880e-01
C     6.278145138728343e+00   2.647505277149949e+00   8.171546933571008e-01 -2.30721028e+00  -1.57330780e-01   2.72853158e+00
C     4.497443190556433e+00   2.649556341412723e+00   2.681924899234025e+00 -9.78191290e-01  -1.48701310e-01  -1.03233694e+00
C     6.268073783391874e+00   8.478681971397872e-01   2.660770304601131e+00 -1.71210252e+00   1.00131436e+00  -7.84826800e-01
C     7.097760057154226e+00   3.591515245646367e+00   1.764601939611420e-02  4.74878590e-01  -1.71510019e+00  -1.06404062e+00
C     1.789518738000175e+00   5.346841049159818e+00   2.234035061013600e-03  4.64421900e-01  -2.76421305e+00   1.20328066e+00
C     7.088908649307802e+00   5.346806360057433e+00   1.803110326386520e+00  5.57961890e-01  -8.54577010e-01  -2.29664950e-01
C     1.714437943350532e+00   3.521163684565810e+00   1.913218086748891e+00  9.50871390e-01   7.85707090e-01  -3.02782558e+00
C     8.364884655358816e-01   4.379233321176012e+00   9.920637584183325e-01  1.37727808e+00   2.23029990e+00  -1.97591400e+00
C     2.692322317916072e+00   6.185978041879685e+00   9.171369322026391e-01 -7.12398050e-01   1.46438964e+00  -2.01022946e+00
C     8.880002898097474e-01   6.223054365833760e+00   2.671809613845765e+00 -1.92183170e-01  -5.99766220e-01  -4.27390600e-02
C     2.671748197074328e+00   4.533951409374717e+00   2.671290556826052e+00 -1.50959330e+00  -4.15061168e+00   1.25299826e+00
C     3.554246781028874e+00   3.534883153475089e+00   5.908997146059539e-02 -1.34592563e+00   1.19187112e+00  -2.38226350e+00
C     5.291170513316348e+00   5.293884153651533e+00   7.085088654076040e+00  8.10704050e-01  -4.88818500e-02   5.23922380e-01
C     3.547110919897561e+00   5.334123156997697e+00   1.787420900316561e+00  1.72833314e+00  -5.26943800e-02   6.15490920e-01
C     5.406881416724707e+00   3.465666878571172e+00   1.786759461591769e+00 -1.72072227e+00   3.04786704e+00   7.29821700e-02
C     4.424727225944012e+00   4.370451078281681e+00   9.318991356260455e-01  1.13633691e+00   1.87320231e+00  -6.48725830e-01
C     6.261685586151733e+00   6.171787142382248e+00   8.474743194424129e-01 -2.26194774e+00   1.59245052e+00  -1.88801970e-01
C     4.527088867093143e+00   6.230903628259216e+00   2.686158817914949e+00 -1.89611680e+00   7.17910740e-01  -1.89730122e+00
C     6.219904197265481e+00   4.473636585612470e+00   2.696302536993689e+00  5.79503170e-01  -1.77353443e+00  -2.89083820e-01
C     7.095352221160153e+00   7.065668088057069e+00   3.575585199470720e+00  1.63948424e+00   8.93411370e-01  -3.55731820e-01
C     1.691028485978348e+00   1.717085546439578e+00   3.577429692972159e+00  2.72949495e+00   7.10675360e-01  -3.59454000e-01
C     4.334865390551020e-02   1.760654774698986e+00   5.346405800442795e+00 -1.75011327e+00  -7.31788700e-02   2.58276380e-01
C     1.844783738333174e+00   7.064492283871495e+00   5.355116319352891e+00 -7.64427200e-02   1.80250809e+00  -1.16835379e+00
C     9.503135044231555e-01   8.171700475499600e-01   4.485340461287847e+00 -2.75601456e+00   6.49206900e-01   6.16432000e-03
C     2.612126871022888e+00   2.678857899210399e+00   4.430531608434373e+00  2.79926430e-01   2.07219240e-01  -1.67752674e+00
C     8.604302726780774e-01   2.682272714352821e+00   6.212421942699895e+00  1.51895060e+00   4.92835620e-01   7.85605600e-02
C     2.720981416477353e+00   9.594950985002786e-01   6.195374523572610e+00 -1.95091581e+00  -2.40069775e+00   8.89419950e-01
C     3.638487631235100e+00   9.643748173762300e-02   3.505389810435126e+00 -2.37422030e+00  -2.67537398e+00  -1.20369310e-01
C     5.391493245605384e+00   1.747107756122469e+00   3.582705919661853e+00 -1.03137499e+00   8.43820260e-01  -1.61898880e+00
C     3.522857337339252e+00   1.840675709816850e+00   5.280575551569689e+00  1.56789170e+00  -5.91643720e-01   1.14754169e+00
C     5.311352035976790e+00   4.340253574896979e-02   5.372298940678408e+00  5.24428000e-02  -8.98223680e-01  -1.97761242e+00
C     4.455566762059751e+00   9.374487522497057e-01   4.392673997750134e+00  2.17272400e-01  -1.07872970e-01   2.49897149e+00
C     6.201445898416579e+00   2.645246362609765e+00   4.475845670110086e+00  1.47822849e+00   2.18064220e-01  -7.88820010e-01
C     4.429137362421686e+00   2.713483807718908e+00   6.231796943729871e+00  1.54126630e-01  -1.13519147e+00  -1.04938006e+00
C     6.203716115348729e+00   9.079323068362274e-01   6.249498337738196e+00  4.71023760e-01  -6.20758440e-01  -1.54677547e+00
C     7.088778067584273e+00   3.565197732580341e+00   3.602337179327281e+00 -5.66067190e-01  -6.78714100e-01  -2.06860050e-01
C     1.750602541019366e+00   5.326048415406735e+00   3.583493603972375e+00  1.03869014e+00   2.15817059e+00  -7.72697190e-01
C     7.070210867700833e+00   5.319003968590314e+00   5.366804911919636e+00  1.62513270e+00   1.16035549e+00  -1.45410500e-02
C     1.742073429054533e+00   3.580913388729768e+00   5.272782445682932e+00  6.70499320e-01  -1.06911546e+00   2.84918893e+00
C     8.495077548170902e-01   4.467368165293474e+00   4.526905683042226e+00  5.10936760e-01  -4.76391110e-01  -3.65951809e+00
C     2.717643798804584e+00   6.290478536310948e+00   4.363544961369445e+00 -6.28251130e-01  -1.96971987e+00   2.21307362e+00
C     9.693532722423732e-01   6.183425336232617e+00   6.226909050167907e+00 -2.92294090e+00   1.43337809e+00  -1.46834030e-01
C     2.659217825100923e+00   4.424471535982370e+00   6.152177350153133e+00  1.45986580e-01   1.07920587e+00   2.41833941e+00
C     3.553674766260642e+00   3.562151346982314e+00   3.510473683208723e+00  1.05990960e-01   2.18418860e-01   8.52206650e-01
C     5.372642775080537e+00   5.326827000936302e+00   3.597817004467449e+00 -1.75310993e+00   5.89205440e-01  -1.41266791e+00
C     3.546590938782908e+00   5.333803349064024e+00   5.280077819817837e+00  3.76452670e-01   9.02958600e-02  -2.10718940e-01
C     5.333960160867020e+00   3.558765036614598e+00   5.283349826749824e+00 -1.07499529e+00  -4.61382020e-01   2.24087847e+00
C     4.428560513926073e+00   4.431193615832973e+00   4.407815435520318e+00  7.42762770e-01   4.39335650e-01   6.39736620e-01
C     6.215556472738410e+00   6.236849397275489e+00   4.463124508073561e+00 -5.06081900e-02  -5.84440370e-01   1.10144300e+00
C     4.414401886667330e+00   6.212061830009966e+00   6.174049611133742e+00  4.89224070e-01   6.81959300e-02   1.72598460e+00
C     6.204552847775329e+00   4.415970999876470e+00   6.200948237748953e+00 -5.45358900e-01   1.17505730e+00   8.90443210e-01
