64
Lattice="7.10842262195238 0 0 0 7.10842262195238 0 0 0 7.10842262195238 " PBC="1 1 1" Properties=species:S:1:pos:R:3:force:R:3 Energy="-512.59856024"
C     2.630123477822620e-02   1.407005631289700e-02   7.054227934860894e+00 -1.25823361e+00  -8.15277310e-01   8.35549050e-01
C     1.770602016976510e+00   1.749496541543920e+00   3.500073563326080e-02  4.70768700e-02   1.15956597e+00  -1.43966690e+00
C     7.093125294521760e+00   1.789725166593060e+00   1.720442783358777e+00  1.53667995e+00  -1.69671186e+00   1.76836569e+00
C     1.813606907564116e+00   7.033920948541208e+00   1.748695493398872e+00 -8.85998290e-01   2.89100852e+00   8.93305310e-01
C     8.904521980240639e-01   8.444636892101645e-01   8.361717142239344e-01  2.70268860e-01   6.87581840e-01   2.02654222e+00
C     2.651309704936173e+00   2.663373195711896e+00   9.097232028311102e-01 -5.00658200e-01  -2.43489300e-02  -5.51689200e-02
C     8.907316301172562e-01   2.631925391872564e+00   2.696401344068107e+00 -8.49196510e-01   6.49664520e-01  -1.03002260e+00
C     2.691930075155901e+00   8.864444693509080e-01   2.625690807645241e+00 -6.86092950e-01  -4.86350400e-02   1.01748201e+00
C     3.532491453600364e+00   1.830234005661880e-02   4.344738989570200e-03  1.07957831e+00   6.35596530e-01  -6.03149310e-01
C     5.280373601283055e+00   1.768857112475978e+00   7.097337034924109e+00  2.33963001e+00   5.18623660e-01  -4.53993520e-01
C     3.554876445104553e+00   1.797327553500923e+00   1.761290765270798e+00  8.99927700e-02  -1.16249508e+00   3.98300450e-01
C     5.371541822585151e+00   7.093540284234315e+00   1.743904345468766e+00 -1.16621300e+00   3.71846750e-01   1.18008584e+00
C     4.445016299038695e+00   8.919029559965799e-01   8.949167139347812e-01 -2.37150810e-01  -2.22864350e-01  -7.06643490e-01
C     6.249455118528666e+00   2.629714103763934e+00   8.609722188186262e-01 -1.90668438e+00   1.96330680e+00  -1.30017580e-01
C     4.453472762924352e+00   2.594109720881783e+00   2.662172369878700e+00 -5.27555340e-01   3.03321661e+00   4.38891040e-01
C     6.236540607396877e+00   8.986781357641541e-01   2.640419672566559e+00  5.76408740e-01  -1.54093927e+00  -3.33257100e-01
C     7.106755694895609e+00   3.585939043522108e+00   7.098966285388614e+00 -8.17292700e-02  -8.96713060e-01   3.15432580e-01
C     1.796833589213060e+00   5.328040266509085e+00   8.233358933305480e-02 -4.84548380e-01   2.78128400e-01  -2.80147942e+00
C     1.554100220565360e-02   5.356105029855107e+00   1.812054996737718e+00 -9.33922340e-01  -1.37164902e+00  -1.10968227e+00
C     1.746494654671494e+00   3.544485139665959e+00   1.835478955292047e+00  6.93004670e-01   3.11837080e-01  -9.97539040e-01
C     8.652650663230703e-01   4.450332475063514e+00   9.201575853107821e-01  9.60632220e-01  -2.22486190e-01   4.52546370e-01
C     2.711927916175842e+00   6.252686607451718e+00   8.786903176201072e-01 -9.34153230e-01  -2.35971521e+00   8.44053630e-01
C     9.106364929693277e-01   6.191061203811021e+00   2.670136575497921e+00  6.87382700e-01   3.96477770e-01  -6.83370080e-01
C     2.630611186698578e+00   4.464557566073753e+00   2.718970799139286e+00  6.86851680e-01  -2.96512760e-01  -1.99163230e+00
C     3.501428926267035e+00   3.532260500949440e+00   7.107597047796912e+00  1.63670307e+00   1.22895187e+00   4.32914430e-01
C     5.293589367365481e+00   5.310689886409737e+00   3.282719324874340e-02  8.65612370e-01   3.56000340e-01  -8.68061070e-01
C     3.575769094363900e+00   5.342385632030054e+00   1.801260288315438e+00 -1.19512818e+00  -7.56928160e-01  -3.37950620e-01
C     5.355122859101701e+00   3.513976216286276e+00   1.800269658539116e+00 -1.72975310e-01   2.77293370e-01  -5.56717470e-01
C     4.422433764469895e+00   4.400181345047569e+00   9.342073826192120e-01  4.05217230e-01   4.84238020e-01  -7.67046070e-01
C     6.225286908126023e+00   6.204705039103622e+00   8.804253414131968e-01  2.08279810e-01   5.29859050e-01  -1.54173320e-01
C     4.438743044992318e+00   6.191820667683742e+00   2.673121259987607e+00  1.04225401e+00   1.84519999e+00  -4.96219970e-01
C     6.249596220717673e+00   4.445494482628342e+00   2.678849582355934e+00 -1.48288758e+00  -5.57869650e-01   4.05701740e-01
C     9.553229520119219e-02   7.070479992581226e+00   3.530086105554208e+00 -4.11922615e+00   1.46842807e+00   1.66014860e-01
C     1.763960120133060e+00   1.747258241429335e+00   3.541451122723290e+00  8.21629360e-01   4.96050600e-01   1.04665820e-01
C     7.094816956936867e+00   1.779469276605376e+00   5.314474552781077e+00  8.45387290e-01  -2.98413160e-01   2.07440560e-01
C     1.798695995939500e+00   7.074914084443130e+00   5.229555274719996e+00 -3.17796100e-01   1.78165259e+00   4.44657985e+00
C     8.950168005252709e-01   8.354298792393111e-01   4.411516933347004e+00  6.36492480e-01   1.76485995e+00   3.64602940e-01
C     2.625369222605912e+00   2.710554355672979e+00   4.454883642645969e+00  8.58597720e-01  -1.34830741e+00  -4.52467360e-01
C     8.954732323417010e-01   2.674570240854468e+00   6.238039560474756e+00 -6.60303200e-01  -6.31012570e-01  -1.12948070e-01
C     2.669503286126706e+00   9.329277954633857e-01   6.225936475785039e+00 -2.61045640e-01  -1.31394017e+00  -1.06239898e+00
C     3.599849586831412e+00   4.527695570963760e-02   3.547524559009818e+00 -8.71307860e-01  -1.02812712e+00  -7.13022580e-01
C     5.331175223052957e+00   1.731940585862401e+00   3.522804379590732e+00  8.89670440e-01   1.21098165e+00   1.22957202e+00
C     3.545130726608307e+00   1.820130022665586e+00   5.324430111913065e+00  2.39743900e-01  -3.85015150e-01   1.23445220e-01
C     5.316636366268272e+00   7.102942168328433e+00   5.305273268373297e+00  1.17716845e+00   8.80290380e-01   1.68830617e+00
C     4.472570961977505e+00   9.027900028286931e-01   4.455801126753532e+00 -1.09256881e+00   5.87402100e-02  -8.16811030e-01
C     6.228573700577059e+00   2.674785554975628e+00   4.425032248358636e+00 -1.43753148e+00  -1.29403306e+00   6.15481460e-01
C     4.439137988953086e+00   2.706343397197117e+00   6.203994054673171e+00 -9.89769560e-01  -1.53946427e+00   7.37612580e-01
C     6.234685024756152e+00   9.041706717541759e-01   6.194049655764696e+00 -1.46694869e+00  -5.08848630e-01   1.60221730e-01
C     7.105989833442530e+00   3.532282110554204e+00   3.609717285859817e+00 -8.82455800e-02   6.81143580e-01  -2.27331637e+00
C     1.760803625068649e+00   5.334864565476964e+00   3.555911715774930e+00  6.44822360e-01  -4.77801370e-01   1.07895578e+00
C     7.105679408626716e+00   5.350021428524232e+00   5.344040401731764e+00 -4.85722320e-01  -5.00985920e-01   1.18812900e-02
C     1.745247979512399e+00   3.545227045734808e+00   5.360910394630453e+00  5.19820970e-01   1.02326041e+00  -2.90211560e-01
C     8.379420668774454e-01   4.414093665462528e+00   4.464847945137779e+00  1.82013247e+00   1.49906407e+00   5.33670780e-01
C     2.718863533041950e+00   6.265615122176070e+00   4.422030148233532e+00 -1.49458590e+00  -1.09848411e+00  -7.80595310e-01
C     8.903760668178038e-01   6.222250616488116e+00   6.225826366318655e+00  1.34111974e+00  -5.46729440e-01  -9.89583480e-01
C     2.653402566723953e+00   4.450854091115370e+00   6.241532070676413e+00 -3.03304770e-01   5.77868520e-01  -4.36717000e-01
C     3.512943078142685e+00   3.620803084188386e+00   3.577816888752269e+00  8.68312470e-01  -2.44785662e+00  -1.11488360e-01
C     5.278393194741123e+00   5.327577721449201e+00   3.549708906196718e+00  3.08883036e+00   1.35220400e-02   4.26615620e-01
C     3.564817289801718e+00   5.412340756381093e+00   5.304554251425284e+00 -4.79735670e-01  -2.63365490e+00   1.76251976e+00
C     5.299527174948419e+00   3.532258937096464e+00   5.312225590032561e+00  1.42927050e+00   2.04027724e+00   3.07579920e-01
C     4.432634777434952e+00   4.471671106758039e+00   4.442614007614266e+00 -3.67304060e-01  -4.34985550e-01   2.92857480e-01
C     6.227483908305186e+00   6.242521705273570e+00   4.460414990623496e+00 -2.08105340e-01  -1.09088710e+00  -1.49564969e+00
C     4.412002012106592e+00   6.243605384301990e+00   6.241159304994222e+00  1.09075181e+00  -2.86092660e-01  -5.38681990e-01
C     6.227849565564759e+00   4.477403267674581e+00   6.214301907230205e+00 -1.45652872e+00  -1.24779038e+00   3.72501300e-01
