64
Lattice="7.10842262195238 0 0 0 7.10842262195238 0 0 0 7.10842262195238 " PBC="1 1 1" Properties=species:S:1:pos:R:3:force:R:3 Energy="-514.03603932"
C     7.092314650006175e+00   7.107223713440910e+00   3.042390664514760e-02  7.75518150e-01  -8.52668200e-02  -7.01039400e-01
C     1.798724358545753e+00   1.765414361232660e+00   1.067976522851420e-02 -5.69339470e-01   5.70607510e-01  -7.52768680e-01
C     6.389121335082200e-03   1.760939467024917e+00   1.836901066321404e+00 -2.75954300e-02   8.68747720e-01  -2.39316941e+00
C     1.765404054019861e+00   2.617463377136400e-02   1.771807889789766e+00  3.26473000e-02  -6.34287570e-01  -3.51009900e-02
C     8.853461469718917e-01   8.999218964699757e-01   8.613485387121290e-01 -6.61380800e-02   1.37865050e-01   1.77592977e+00
C     2.680850674407690e+00   2.665222238603810e+00   9.065387005815764e-01 -4.75267980e-01  -1.30070080e-01  -4.13451540e-01
C     9.054311372531542e-01   2.673131496116179e+00   2.661363786805675e+00 -9.88996200e-02  -5.42460870e-01   8.72473190e-01
C     2.671681377901700e+00   8.854375612867850e-01   2.690861110562305e+00 -5.23282370e-01   2.04364690e-01  -6.44578960e-01
C     3.566159431076601e+00   7.093006157358649e+00   7.091135149440839e+00 -6.70548260e-01  -9.36293200e-02   9.00214550e-01
C     5.307701292287610e+00   1.733743281838833e+00   1.217089904151160e-02  1.00930091e+00   2.08382478e+00   3.35506790e-01
C     3.537639941935577e+00   1.768733994596200e+00   1.788054829445812e+00  1.23789733e+00   2.37835800e-02  -2.23742860e-01
C     5.337772052496996e+00   7.095386981346765e+00   1.794250743854083e+00 -5.17322560e-01   4.90042390e-01  -2.77421000e-03
C     4.454768983789108e+00   8.643876737190838e-01   9.059910677029316e-01 -8.81103740e-01   2.40659760e-01  -5.19433690e-01
C     6.190233143660017e+00   2.690901130981656e+00   9.370888528124551e-01  1.16840042e+00  -1.66863629e+00  -1.09306539e+00
C     4.447690132207208e+00   2.683744442172066e+00   2.640030131006983e+00 -8.22149350e-01  -4.83237500e-02   2.57916980e-01
C     6.243792975574931e+00   8.616195117824034e-01   2.684408866434357e+00 -6.10847520e-01   1.09445566e+00  -2.34407350e-01
C     2.147553991418680e-02   3.539964609384996e+00   8.544323989240000e-03 -1.25960470e+00  -5.16284380e-01   8.01355900e-02
C     1.755186904935456e+00   5.323253170379872e+00   7.074021408730510e+00  3.52091210e-01   2.71949810e-01   2.04321068e+00
C     7.100535754018884e+00   5.323564234953722e+00   1.780224617592977e+00  3.15355800e-01   1.82418100e-02  -3.85832150e-01
C     1.794258918540096e+00   3.560871617658035e+00   1.769425359780221e+00 -5.21864430e-01  -4.45584830e-01   2.61560120e-01
C     8.919422655736683e-01   4.414351061445598e+00   8.837101435058987e-01 -1.05282890e-01   1.04217537e+00  -2.37876950e-01
C     2.624353357929287e+00   6.221299651710012e+00   9.131362408678769e-01  1.30715418e+00  -2.44141250e-01  -1.57433995e+00
C     8.813136809880182e-01   6.231542248947397e+00   2.631182917129905e+00  4.28678980e-01  -2.67387890e-01   1.23573859e+00
C     2.678023654731716e+00   4.443653756590893e+00   2.655169933839963e+00  3.83278000e-02  -2.33591490e-01  -4.33155000e-02
C     3.537061245250083e+00   3.562878325363661e+00   1.327640092737400e-02  8.17693930e-01  -5.72781600e-02  -7.34394990e-01
C     5.345507082570949e+00   5.345056408576841e+00   7.083154381196912e+00 -4.71704600e-01   1.77237650e-01   4.92690310e-01
C     3.537511634907286e+00   5.336087640672960e+00   1.777142192292267e+00  5.66725180e-01   4.47225530e-01  -8.38706720e-01
C     5.311808041287862e+00   3.590297857188466e+00   1.787909817624364e+00  6.42914380e-01  -3.55848470e-01  -1.16744471e+00
C     4.476455786023561e+00   4.472469240449813e+00   8.305906072880676e-01 -1.95359564e+00  -2.96026720e-01   2.26201717e+00
C     6.204191242316649e+00   6.228230292680286e+00   9.152008822178560e-01  5.87305710e-01  -7.32917530e-01  -8.84578070e-01
C     4.413196298190979e+00   6.243819774328209e+00   2.657360678607221e+00  4.34781500e-01  -8.73895930e-01   5.06395290e-01
C     6.221938201313968e+00   4.445967903574834e+00   2.672112859154734e+00 -2.69562190e-01   8.66778400e-02  -1.93169170e-01
C     1.179592974830660e-02   7.107800704104976e+00   3.575218333779302e+00 -1.83947290e-01  -3.76285360e-01  -5.25977820e-01
C     1.800497128062955e+00   1.757683240791148e+00   3.557066336861097e+00 -8.17119610e-01   1.07377274e+00   6.08447150e-01
C     7.104784813639989e+00   1.759256690138085e+00   5.327619661142659e+00  1.20710130e-01   2.72536280e-01   4.91076650e-01
C     1.769572006538872e+00   7.103575031194291e+00   5.344025900549619e+00 -1.89829450e-01  -2.24360900e-02  -8.65204200e-02
C     8.864667897979348e-01   8.847068154414489e-01   4.444416348169566e+00  3.24378860e-01  -1.59870020e-01  -1.38802600e-02
C     2.681355514582162e+00   2.648043100405378e+00   4.475265907161200e+00 -2.63596050e-01   4.43135150e-01  -1.52646315e+00
C     9.123533192005101e-01   2.636933559945259e+00   6.204040685925557e+00 -8.35835600e-01   1.13379540e+00   3.44101790e-01
C     2.652994330012886e+00   8.804566895569510e-01   6.218814049572478e+00  1.09031078e+00  -2.89347400e-01   3.42870070e-01
C     3.534766077754538e+00   2.057426301019700e-02   3.594686241892923e+00  6.74755520e-01  -1.04006800e+00  -1.49753132e+00
C     5.339295813969819e+00   1.818912207702327e+00   3.489464384734183e+00 -2.05800970e-01  -1.68428632e+00   2.45417978e+00
C     3.557123630747414e+00   1.752916261497949e+00   5.338545022372694e+00  1.79553960e-01   9.40241470e-01  -5.75066600e-02
C     5.336795852818591e+00   2.260691645838600e-03   5.321209569960848e+00 -1.32133900e-02   2.60036990e-01  -4.23776310e-01
C     4.442605975096705e+00   8.843008534256208e-01   4.409543208722335e+00  4.21621180e-01   1.09507135e+00   1.15311952e+00
C     6.200682951416774e+00   2.659494413825067e+00   4.467812441707225e+00  1.15437393e+00   4.50447700e-01  -1.34955478e+00
C     4.429510910030367e+00   2.668377240899471e+00   6.237612841864877e+00  2.22856980e-01  -5.68270770e-01  -6.73558320e-01
C     6.235489129522925e+00   8.731812900896072e-01   6.236180850128078e+00 -9.88855330e-01   2.58563100e-01  -3.19082560e-01
C     5.952095512404600e-03   3.554781192241446e+00   3.560581594015139e+00  1.40239440e-01   1.30600030e-01  -1.58506080e-01
C     1.809036262903683e+00   5.335236904653799e+00   3.518411516580025e+00 -9.58256990e-01   6.77485150e-01   5.22302720e-01
C     7.097387789061616e+00   5.335833585648522e+00   5.352083155420937e+00  5.93836990e-01  -3.96258400e-02  -1.05399594e+00
C     1.777493632706600e+00   3.565867345991145e+00   5.303443276054004e+00  2.15956220e-01  -6.01097600e-01   6.99677370e-01
C     9.224319251280509e-01   4.463278760844415e+00   4.392157784099469e+00 -1.34876446e+00  -5.23691230e-01   1.64304738e+00
C     2.664162372791168e+00   6.223426491757917e+00   4.460198183733586e+00 -1.49102100e-01  -2.54655270e-01  -4.69858690e-01
C     8.950799944023625e-01   6.215876849345894e+00   6.237751242853289e+00 -1.22974050e+00   1.52363040e-01  -4.81098550e-01
C     2.642375697218904e+00   4.457326736416237e+00   6.220521705938480e+00  5.90397880e-01  -9.06702980e-01  -2.79708430e-01
C     3.542967136015458e+00   3.545521832020860e+00   3.538387321489844e+00  8.73351610e-01  -5.42205900e-02   8.97153450e-01
C     5.314198390562289e+00   5.333269008935678e+00   3.508441100844760e+00  4.79435620e-01   7.09853910e-01   1.88293969e+00
C     3.536526620784833e+00   5.311974165124492e+00   5.335411914018704e+00  9.62356920e-01   7.09412460e-01  -5.52829200e-01
C     5.349104228753573e+00   3.576400890966366e+00   5.313955353592912e+00 -1.19101171e+00  -1.04980048e+00   1.26887721e+00
C     4.457808260964516e+00   4.446037068526926e+00   4.430342666561133e+00 -9.41172220e-01  -1.24740550e-01  -2.83549190e-01
C     6.222603620755426e+00   6.243353106383206e+00   4.446533591846934e+00 -1.10770760e-01  -1.25350659e+00  -2.27534420e-01
C     4.452797533859678e+00   6.218219287851862e+00   6.180162570250037e+00 -4.78204420e-01  -1.04855650e-01   1.02776897e+00
C     6.196849023676677e+00   4.434774057222441e+00   6.245978531193677e+00  2.01727166e+00   2.07270880e-01  -1.28309476e+00
