64
Lattice="7.10842262195238 0 0 0 7.10842262195238 0 0 0 7.10842262195238 " PBC="1 1 1" Properties=species:S:1:pos:R:3:force:R:3 Energy="-512.12257109"
C     1.259342368204440e-02   2.487229966315380e-02   7.031447786143258e+00  8.24604860e-01  -6.58540690e-01   3.07174166e+00
C     1.820436537848960e+00   1.758331457849866e+00   7.093716857452196e+00 -4.63575820e-01   1.29264365e+00   9.39621200e-02
C     7.095739274771812e+00   1.784342242479839e+00   1.764359258063173e+00  5.63095280e-01   5.17759830e-01  -7.14881310e-01
C     1.769027359197727e+00   1.578723796521040e-02   1.839844024370310e+00 -1.14465618e+00  -6.68445080e-01  -2.42528577e+00
C     8.971742778746669e-01   9.074306654519341e-01   9.010004574341082e-01 -2.06135900e-02  -1.17369520e-01  -1.40842097e+00
C     2.712929279670321e+00   2.700668459082667e+00   8.804951461233251e-01 -1.70916258e+00  -9.34252970e-01   3.00385160e-01
C     8.998944579586623e-01   2.646509458225113e+00   2.653653707295118e+00 -9.56648010e-01   5.11742010e-01   6.90735140e-01
C     2.614072517378208e+00   9.143160257701183e-01   2.666327456152768e+00  1.93524913e+00  -6.33032630e-01   7.66949260e-01
C     3.546302621161440e+00   7.089683325204930e+00   7.049158207848309e+00  5.24169580e-01  -3.02556430e-01   2.29896237e+00
C     5.273572973362501e+00   1.755720747474218e+00   7.101571380110392e+00  8.02556780e-01  -2.64624300e-01   2.44885870e-01
C     3.519871870923077e+00   1.764346747239362e+00   1.785831812439860e+00  1.52395563e+00   3.05730250e-01  -5.13929300e-01
C     5.438040902942572e+00   7.087192391750429e+00   1.818534608292753e+00 -2.92664262e+00   4.85864360e-01  -1.73080829e+00
C     4.447409065176813e+00   8.307433672901714e-01   8.991280989160002e-01 -3.85974450e-01   1.15381889e+00  -3.15933000e-03
C     6.165071531196229e+00   2.680298989728152e+00   8.125534113951748e-01  1.66704482e+00  -1.50348496e+00   1.74181627e+00
C     4.452287575620919e+00   2.651124459442696e+00   2.679140032504187e+00 -1.51162338e+00   2.10858450e-01  -1.73943437e+00
C     6.253313996832159e+00   9.240637346246983e-01   2.669901357793426e+00 -1.02023606e+00  -5.58462980e-01   1.30010820e-01
C     7.502513570052799e-03   3.536175464707405e+00   7.076615201060322e+00 -2.65463910e-01   2.69275010e-01   4.24906680e-01
C     1.757494370002134e+00   5.342709207427717e+00   6.552423127931460e-02 -3.66824890e-01  -5.82603520e-01  -8.48337520e-01
C     7.097838605224177e+00   5.298918338551016e+00   1.771026958480733e+00 -4.48933160e-01   4.98505390e-01  -1.96689920e-01
C     1.774576833652935e+00   3.545501999521750e+00   1.785059908827554e+00  4.29301670e-01  -3.91704280e-01  -3.96356360e-01
C     8.352821662172676e-01   4.378536695759252e+00   9.125863332939937e-01  1.78814958e+00   1.73005049e+00  -3.99968390e-01
C     2.635878385691546e+00   6.204571827263724e+00   9.604204018727240e-01  1.11795238e+00   1.00871997e+00  -1.67313524e+00
C     8.259750373966754e-01   6.219792452861894e+00   2.633308335493285e+00  2.16058077e+00  -1.80409410e-01   1.88463812e+00
C     2.700002044462042e+00   4.433992912660729e+00   2.657704441925125e+00 -1.18834352e+00   5.34575540e-01   2.46853540e-01
C     3.539567888318574e+00   3.639117935068816e+00   1.413829717004900e-02 -2.98719440e-01  -1.48916429e+00   4.11229630e-01
C     5.390966013899658e+00   5.327130672750630e+00   7.107783430638009e+00 -1.76363441e+00   1.89781221e+00   8.49009380e-01
C     3.581235187021775e+00   5.358278074650041e+00   1.818321497782605e+00  1.27763010e-01  -3.17594200e-01  -8.04251470e-01
C     5.313685802207162e+00   3.528971860308523e+00   1.740276206563518e+00 -4.55867730e-01   7.09845400e-01   7.22508870e-01
C     4.460179204245191e+00   4.491234907492804e+00   9.043031727518126e-01 -3.22205740e-01  -4.64111290e-01  -4.71080900e-01
C     6.286983040571790e+00   6.255978375798588e+00   8.614007856183860e-01 -1.01279019e+00  -1.71987246e+00   4.33648980e-01
C     4.488038178756363e+00   6.225341145390614e+00   2.691902778813040e+00  1.25738530e-01  -1.97160230e-01   2.79983320e-01
C     6.169724846811734e+00   4.386800592476132e+00   2.660993224734494e+00  2.06914109e+00   1.10953953e+00  -5.57413090e-01
C     7.101657818529451e+00   4.849692898804520e-02   3.569260622613028e+00  7.40492560e-01  -1.49611308e+00  -3.53112520e-01
C     1.781564199835716e+00   1.773397262003372e+00   3.580691605944024e+00 -7.73905490e-01   6.19717940e-01  -1.30802205e+00
C     8.761628468733400e-03   1.799859004964358e+00   5.347082095770862e+00 -2.71301040e-01  -1.89097960e-01  -1.00258560e+00
C     1.766139917929483e+00   7.089430336443884e+00   5.352463242778429e+00 -3.62033900e-02  -3.66166000e-01  -2.32817102e+00
C     8.961045313545832e-01   9.224516865429346e-01   4.456277462153298e+00 -5.18707680e-01  -1.21138795e+00   3.60503470e-01
C     2.685852302731575e+00   2.664371289331970e+00   4.377435743263867e+00 -1.00171610e+00   8.09142660e-01   2.52082707e+00
C     9.736750510268807e-01   2.703750386793794e+00   6.186340216012174e+00 -2.88815071e+00  -1.44060659e+00   1.16382741e+00
C     2.640246653559988e+00   8.480231607529032e-01   6.153239277408335e+00  1.13682019e+00   1.17814067e+00   2.33948911e+00
C     3.564892781249943e+00   4.012811195329299e-02   3.547065781413924e+00 -6.34497880e-01  -1.72081574e+00   9.43067000e-03
C     5.297551744302321e+00   1.777785006949793e+00   3.522832884365439e+00  5.94081990e-01  -4.92801190e-01   1.73723746e+00
C     3.505095450654431e+00   1.773936720196004e+00   5.305345916452473e+00  1.34980137e+00   2.68309740e-01   5.21189330e-01
C     5.388389921542170e+00   1.302597119847140e-02   5.296963166909385e+00 -2.46837537e+00  -9.22360520e-01   1.55504720e-01
C     4.426409860662393e+00   8.766654123525740e-01   4.439025320454559e+00  7.00424880e-01   9.43996930e-01  -2.63961380e-01
C     6.126948847432490e+00   2.627093939186202e+00   4.467901154821523e+00  2.83181547e+00   1.38265936e+00   1.90874810e-01
C     4.364679963209181e+00   2.674190580002334e+00   6.295866365235777e+00  9.15568800e-01  -1.63818510e-01  -2.34654957e+00
C     6.226143615220185e+00   8.618557957502921e-01   6.184141865232713e+00  8.19444800e-02   2.21352143e+00   6.42402170e-01
C     7.069368875041493e+00   3.524749244019564e+00   3.526877079246635e+00  5.40413720e-01   7.17498200e-02   1.54734819e+00
C     1.789183078284059e+00   5.316514243567659e+00   3.524364394018918e+00 -1.32868086e+00   6.51488500e-01   5.39102350e-01
C     7.107571670728159e+00   5.335247993793086e+00   5.366200482744257e+00  6.13142620e-01  -2.42961320e-01  -1.38889405e+00
C     1.785654386211264e+00   3.602358717847820e+00   5.318659849851280e+00  5.04111640e-01  -8.77356990e-01  -4.71449250e-01
C     8.831719648293386e-01   4.445589380070319e+00   4.453614220534489e+00 -6.00514220e-01  -1.29602240e-01  -1.14060706e+00
C     2.640634844519266e+00   6.221167719386186e+00   4.393815610422906e+00  1.39961097e+00  -1.60283050e-01   1.36821822e+00
C     9.182760569274941e-01   6.203122775312638e+00   6.229904041870392e+00 -1.28863253e+00   7.21572090e-01   3.38321670e-01
C     2.624741548888565e+00   4.514419312204838e+00   6.221262830080842e+00  1.62524426e+00  -1.66560778e+00   7.44834820e-01
C     3.539417900601292e+00   3.555886907379987e+00   3.544708201967774e+00  2.21431072e+00  -3.61960510e-01   2.50662900e-02
C     5.398360052940530e+00   5.279817082876136e+00   3.586178455195950e+00 -2.44962086e+00   1.11164695e+00  -2.85795000e-01
C     3.572024235159232e+00   5.295863351761620e+00   5.349962286448034e+00 -6.51100900e-02   2.43720505e+00  -1.56497755e+00
C     5.291094311025861e+00   3.549523447450563e+00   5.432849337566282e+00  4.32111740e-01  -9.82042280e-01  -2.80313950e+00
C     4.491489957696409e+00   4.409320430757425e+00   4.470476678505200e+00 -2.18543702e+00   4.74285910e-01   3.49467460e-01
C     6.242531941402143e+00   6.212717155491304e+00   4.442024079621032e+00  5.75618130e-01   3.80046030e-01   8.06030500e-02
C     4.482822302574712e+00   6.235870069891131e+00   6.201218428892739e+00 -5.88456870e-01  -1.15935322e+00   9.31258800e-02
C     6.204821332897686e+00   4.455987793931534e+00   6.234291644648361e+00  1.43183354e+00  -9.58369100e-01  -1.72409000e-01
