64
Lattice="7.10842262195238 0 0 0 7.10842262195238 0 0 0 7.10842262195238 " PBC="1 1 1" Properties=species:S:1:pos:R:3:force:R:3 Energy="-511.51327831"
C     2.127451372249320e-02   3.427240665161560e-02   2.899155948721760e-02 -1.47975870e+00  -9.69923570e-01  -7.15536850e-01
C     1.752419240588359e+00   1.759367510446731e+00   7.060002248723571e+00  3.88375440e-01   9.91327390e-01   5.85221080e-01
C     6.017990590092001e-04   1.779312464802379e+00   1.813304088760504e+00  4.82795700e-01  -5.47731080e-01  -1.40010584e+00
C     1.811598991426645e+00   2.242749987145720e-02   1.755350967329526e+00 -1.31744667e+00  -6.43284700e-01   1.11037138e+00
C     9.054238155778557e-01   9.020211558381139e-01   9.036738640972639e-01 -1.95285900e-02   1.28027660e-01  -6.97073080e-01
C     2.640798906913336e+00   2.634163052229114e+00   8.194123994654390e-01  1.16937888e+00   5.64240450e-01   2.48416319e+00
C     8.984402168590628e-01   2.670165364609532e+00   2.679285684083671e+00  4.65969420e-01   6.65095260e-01  -4.79469940e-01
C     2.674274459389249e+00   8.279615571820605e-01   2.677768888865015e+00  5.76400810e-01   2.83668422e+00  -8.47804450e-01
C     3.606660450880539e+00   7.091078992902140e+00   7.101077771243658e+00 -1.46318719e+00   1.17583270e+00  -1.14185319e+00
C     5.302501054635723e+00   1.735235552999450e+00   1.735947888030200e-03  1.19259659e+00   5.16448640e-01  -6.43361630e-01
C     3.581297385719700e+00   1.728079646116348e+00   1.747094889877527e+00 -1.59838381e+00   6.26713180e-01   1.87500100e-01
C     5.324522592491351e+00   7.083471132508859e+00   1.789239590243888e+00  7.35649710e-01  -1.28168860e-01   3.21680790e-01
C     4.455049553229919e+00   8.546489214770051e-01   8.671039441706382e-01  1.78390580e-01  -5.64712760e-01   8.40148320e-01
C     6.179222623526995e+00   2.589581371335938e+00   9.154269300571719e-01  1.18663610e-01   2.12549704e+00   5.89964200e-02
C     4.400918204136357e+00   2.671004442815597e+00   2.635990485516263e+00  1.95501230e-01   1.68871930e-01   1.22050579e+00
C     6.246405818477364e+00   8.786566947811146e-01   2.612858754215842e+00 -1.18381341e+00  -4.85826610e-01   2.51472778e+00
C     7.076569351734422e+00   3.480555114327631e+00   4.310469284119180e-02 -4.84645530e-01   9.77204130e-01  -1.20674232e+00
C     1.731399848153698e+00   5.383209942894751e+00   7.105170658819802e+00  7.90242380e-01  -2.52231574e+00   6.52590950e-01
C     7.940079632849520e-02   5.261596134258515e+00   1.818313180928140e+00 -2.61466026e+00   5.96981790e-01  -1.11539690e+00
C     1.799397383999415e+00   3.525720041296778e+00   1.779397055031557e+00 -7.85125700e-02   4.13861070e-01  -7.42438480e-01
C     8.940819718665146e-01   4.335410677650200e+00   8.577371756842642e-01  1.17105680e-01   3.17281843e+00   2.00771409e+00
C     2.641016495729734e+00   6.252988715413068e+00   8.738236071575504e-01  1.09391498e+00  -6.26726620e-01   4.44912900e-02
C     9.311076838515349e-01   6.206462312259514e+00   2.680830344318997e+00  8.14037500e-01  -1.09653831e+00  -9.79547160e-01
C     2.690017127544632e+00   4.479653154518037e+00   2.687606803602643e+00 -9.66755570e-01  -1.65902749e+00  -1.36481120e-01
C     3.548632122338240e+00   3.576610234012525e+00   4.721129967299200e-03 -3.65168320e-01  -3.78279200e-01  -1.69785120e-01
C     5.354419196346547e+00   5.396919460012361e+00   7.090546785300582e+00  4.74764540e-01  -2.16460996e+00   4.76824030e-01
C     3.534664782732202e+00   5.380328330533055e+00   1.787929223618117e+00  1.10943830e-01  -1.57181663e+00  -2.99732250e-01
C     5.265331112755742e+00   3.556891682917323e+00   1.807015764858174e+00  1.58320921e+00   4.78523320e-01  -1.71353149e+00
C     4.423242845132504e+00   4.507599420458984e+00   8.812216979993154e-01  2.12721820e-01  -1.23026902e+00   6.43067800e-02
C     6.250451079621954e+00   6.188716632778267e+00   9.669634916417553e-01  5.32531000e-03   1.01926571e+00  -2.46855327e+00
C     4.422422390993703e+00   6.168801818134527e+00   2.705218560401729e+00  1.12422851e+00   2.22153948e+00  -4.78386260e-01
C     6.194952780858566e+00   4.413926119941374e+00   2.672026705072580e+00  1.34179151e+00  -8.95961000e-03   9.97310930e-01
C     4.457485680746020e-02   7.033546547921813e+00   3.521129350884556e+00 -1.09389607e+00   3.15273533e+00  -1.56792370e-01
C     1.813551248615002e+00   1.867149679264742e+00   3.524961785855902e+00 -5.87238370e-01  -4.06502507e+00   1.65996237e+00
C     7.037609224701822e+00   1.805393764984742e+00   5.270482017954647e+00  1.85465852e+00  -5.84319900e-01   1.04308956e+00
C     1.743573235143126e+00   5.955443579458620e-02   5.337078625870415e+00  9.43273450e-01  -1.02723587e+00  -2.20218920e-01
C     8.485550840175579e-01   9.221545544774186e-01   4.402426327079417e+00  1.41779177e+00  -3.08213380e-01   4.98304880e-01
C     2.683165390065441e+00   2.682431871935283e+00   4.516616596720906e+00 -1.43729295e+00   2.82247660e-01  -2.03406035e+00
C     7.849147979852217e-01   2.666338687460508e+00   6.194560893519526e+00  2.76038822e+00  -1.02650815e+00   1.60100710e-01
C     2.720153640663254e+00   9.237975241975791e-01   6.208154827685335e+00 -2.71885586e+00  -1.89337091e+00   6.17535430e-01
C     3.555932543453207e+00   7.074755922039834e+00   3.565966721739373e+00 -7.80336060e-01   9.35164200e-01  -1.61524150e-01
C     5.328495845314801e+00   1.845654093598767e+00   3.507231673820193e+00  1.33682100e-02  -2.07165705e+00   8.07982850e-01
C     3.558434992552352e+00   1.762543980178704e+00   5.342343905589275e+00  5.60742850e-01   9.29316620e-01  -3.88825780e-01
C     5.365676307660259e+00   7.094869985769613e+00   5.220421093821749e+00 -8.24134700e-02   1.83642768e+00   1.87183383e+00
C     4.401054899103340e+00   9.036297207927937e-01   4.406402920861497e+00  2.40806338e+00  -1.51460200e-01  -4.01688880e-01
C     6.231521918858704e+00   2.714787990016999e+00   4.454459127647103e+00 -1.52501253e+00  -7.24660400e-01  -1.73819186e+00
C     4.454776589801312e+00   2.630615451752150e+00   6.228689638949991e+00 -6.72844720e-01   1.37085179e+00   1.86594140e-01
C     6.222786520469438e+00   9.405130510727353e-01   6.147409517849220e+00 -9.49549610e-01  -2.66804911e+00   1.83326569e+00
C     5.957419720946980e-02   3.548949655576676e+00   3.590194785060476e+00 -2.72227016e+00   5.74955190e-01  -1.70955946e+00
C     1.811141280094143e+00   5.316454746070330e+00   3.610319298171505e+00 -1.35384630e-01   1.32907097e+00  -1.91618454e+00
C     2.501780907418520e-02   5.321853593050220e+00   5.280916187181639e+00 -1.07034858e+00  -3.11064120e-01   2.29694730e+00
C     1.718932456804706e+00   3.557675031090048e+00   5.347267483432792e+00  1.31246831e+00   7.31918010e-01   6.76428000e-01
C     8.877468745433444e-01   4.462362556252923e+00   4.411849962946751e+00  1.30620762e+00  -8.14046010e-01   1.63192325e+00
C     2.658929507479455e+00   6.246465955732729e+00   4.471489273307419e+00 -1.09117240e-01  -4.20185740e-01   5.01266530e-01
C     8.402781788872822e-01   6.218530707846845e+00   6.236598754293907e+00  1.22021189e+00   1.36660877e+00  -9.58766550e-01
C     2.632413598338105e+00   4.475972910874985e+00   6.278872330362369e+00  5.05785540e-01   1.32323190e-01  -1.84918002e+00
C     3.531856102786588e+00   3.563883882827486e+00   3.606654053300181e+00  8.90479580e-01   4.48962180e-01  -7.87228200e-01
C     5.341973272433869e+00   5.328343867239186e+00   3.605894091837877e+00 -7.02200460e-01  -1.65228482e+00  -1.94329658e+00
C     3.565949590440858e+00   5.392217167365004e+00   5.379561189563904e+00 -1.12168848e+00  -1.71642795e+00  -8.67401660e-01
C     5.325188864943524e+00   3.535051552006957e+00   5.358395363623271e+00  5.00215000e-02   7.71558690e-01   1.09417980e-01
C     4.417843927068388e+00   4.456428658302427e+00   4.511674821315482e+00  9.88965800e-01  -2.74707910e-01  -9.56170700e-01
C     6.271078016043766e+00   6.181542101827901e+00   4.384311649379966e+00 -1.11705882e+00   1.01579694e+00   1.27048179e+00
C     4.497058198387333e+00   6.277242937729413e+00   6.137823028019662e+00 -2.86333690e-01  -1.19699747e+00   2.74508142e+00
C     6.234403033630817e+00   4.390396103721555e+00   6.239421651084762e+00 -7.30719590e-01   1.95999319e+00  -1.23082650e-01
