32
Lattice="10.068 0 0 5.034 8.71914376530173 0 0 0 30 " PBC="1 1 1" Properties=species:S:1:pos:R:3:force:R:3 Energy="-257.16912917"
C     2.969668582699805e-03  -2.622658502764210e-03   2.998989582082532e+00 -2.57089730e-01   1.43401290e-01  -3.94047700e-02
C     1.255178789840983e+00   7.286105553958910e-01   2.998324119814331e+00  1.42520340e-01  -1.61301200e-01  -9.77336000e-03
C     2.515714370779093e+00   2.167212627369773e-03   2.998801561793557e+00 -3.42042900e-02  -1.19721420e-01   7.97490000e-04
C     3.775267394315493e+00   7.231083364507741e-01   2.998955572389783e+00 -4.27393700e-02   1.14171650e-01   1.54406600e-02
C     5.032428728075000e+00   3.607251387375816e-04   3.002591603605069e+00  1.14989060e-01  -8.25898700e-02  -1.20076000e-02
C     6.290881423532108e+00   7.296092505090565e-01   3.002546850392111e+00  5.89294800e-02  -2.15222760e-01  -7.25215000e-03
C     7.554096552597557e+00  -2.193169023117645e-03   3.000247115605497e+00 -1.91316780e-01   2.54927760e-01   4.00917000e-03
C     8.807609094490378e+00   7.289595443911441e-01   2.997750832375989e+00  2.03418880e-01  -1.09328250e-01   3.16820800e-02
C     1.254259721550748e+00   2.177457896249532e+00   2.996312331383191e+00  2.77691600e-01   9.80242100e-02   4.67181100e-02
C     2.518947360852590e+00   2.904255504348839e+00   3.002499406417153e+00 -1.75481430e-01  -8.78443200e-02  -7.26245500e-02
C     3.775476688308444e+00   2.176628563534118e+00   2.998559292001699e+00  5.80472400e-02   1.37350060e-01   1.30671700e-02
C     5.033831272128931e+00   2.909610766136288e+00   2.996901045903031e+00 -6.84812700e-02  -1.46693690e-01   8.14009800e-02
C     6.290261284580739e+00   2.179298534050328e+00   3.002740192809065e+00  4.02921200e-02   1.07436540e-01  -5.62635900e-02
C     7.548160049362104e+00   2.906230971196262e+00   2.999049477150412e+00  1.48713720e-01   4.97891500e-02   3.57974500e-02
C     8.810011923177472e+00   2.182882421933479e+00   2.999558514451333e+00 -8.17723500e-02  -1.39089070e-01  -2.63777200e-02
C     1.007163885493625e+01   2.903912133700600e+00   2.996994954066895e+00 -2.45981070e-01   1.59731270e-01   4.02835000e-03
C     2.513905010995062e+00   4.355266429506336e+00   2.999131952912947e+00  1.38840920e-01   1.85473010e-01   4.68341700e-02
C     3.772580517355459e+00   5.088651229532908e+00   3.003896910810001e+00  5.87540200e-02  -1.29913850e-01  -3.18309400e-02
C     5.034117589048173e+00   4.361934803723678e+00   3.004378798291504e+00 -1.17062380e-01   3.00226500e-02  -6.14385800e-02
C     6.289958382570827e+00   5.089452956549230e+00   2.999954663097682e+00  1.93772950e-01  -1.00233740e-01   3.53063400e-02
C     7.553489592772443e+00   4.359938411556434e+00   3.000599140952326e+00 -3.21228440e-01  -9.07107000e-03  -2.97014400e-02
C     8.805562769088025e+00   5.085426238236935e+00   2.998289056895838e+00  1.90479630e-01   5.38352300e-02   1.56247900e-02
C     1.006625024399649e+01   4.358010010441874e+00   2.996858031534350e+00  8.31032300e-02   8.42355700e-02   1.27011900e-02
C     1.132639696744807e+01   5.085641659054987e+00   2.998562691073618e+00 -1.04177220e-01   3.54994200e-02  -3.21095000e-02
C     3.776836801630124e+00   6.540969197252117e+00   3.000630239045969e+00 -7.88614200e-02  -7.27294300e-02  -1.13257900e-02
C     5.034462667010635e+00   7.264447162844877e+00   2.995475120479454e+00  4.76951700e-02   9.50817700e-02   6.59031200e-02
C     6.293680013168107e+00   6.541197967462429e+00   2.999542424197134e+00 -1.11921490e-01  -1.10324590e-01  -2.47522900e-02
C     7.549162190216668e+00   7.264746874979107e+00   2.999249408079635e+00  6.22567800e-02   2.07463300e-01   1.55033800e-02
C     8.806108674831872e+00   6.541133850996292e+00   3.001352293735664e+00  1.39909670e-01  -1.34048130e-01  -1.56294900e-02
C     1.006970965962152e+01   7.263464706324489e+00   3.002645440519351e+00 -1.65849570e-01   1.74825500e-01  -4.05966800e-02
C     1.132634456946193e+01   6.543612632248732e+00   2.995972453718504e+00  1.04994910e-01  -2.43346520e-01   7.65094100e-02
C     1.258739358235204e+01   7.268355612143533e+00   3.000615202565450e+00 -6.82429000e-02  -6.98104900e-02  -3.02354000e-02
