32
Lattice="9.672 0 0 4.836 8.37619770540309 0 0 0 30 " PBC="1 1 1" Properties=species:S:1:pos:R:3:force:R:3 Energy="-257.07119519"
C    -6.995847330446564e-03   4.840330662152706e-03   2.992028169321145e+00  1.32438897e+00  -5.02698900e-01   1.39136540e-01
C     1.219388387426073e+00   7.086555048756679e-01   3.007642521852507e+00 -9.19949070e-01  -7.61786390e-01  -1.28375120e-01
C     2.411714045397827e+00  -9.339273850267048e-03   3.012979926557644e+00  2.51382520e-01   9.34039570e-01  -1.32700570e-01
C     3.615173337074201e+00   6.976451580214779e-01   2.993619448287268e+00  4.02180120e-01   1.07184050e-01   8.06230700e-02
C     4.824554681660033e+00   9.040938793161927e-03   2.994706577024868e+00  6.47751470e-01  -4.52172450e-01  -4.90888500e-02
C     6.048235018507612e+00   7.038675929974670e-01   3.001719297060253e+00 -6.76572470e-01  -2.75217170e-01  -1.09364000e-01
C     7.242594286539775e+00   3.357825302463631e-03   2.992425418436718e+00  9.27935760e-01  -5.39005600e-01   7.77769100e-02
C     8.474567623586495e+00   6.893787234697051e-01   3.002432789637280e+00 -1.24367239e+00   4.87062530e-01  -1.36045170e-01
C     1.211422630200337e+00   2.095506442908820e+00   2.992520139094378e+00 -9.89469900e-02   1.93257640e-01   2.33499740e-01
C     2.411992479638604e+00   2.792918224880886e+00   3.014076476791425e+00  8.26617170e-01  -1.37938000e-03  -2.37979810e-01
C     3.640348681874365e+00   2.095715130423677e+00   2.991557068978885e+00 -1.10501583e+00   4.12437700e-02   1.47409990e-01
C     4.844871006232149e+00   2.787581687973582e+00   2.994725133503497e+00 -1.17584470e-01   4.73363260e-01  -7.90078400e-02
C     6.047681648983493e+00   2.095017622370531e+00   2.995463146579304e+00 -1.07580410e-01  -2.17259020e-01   7.14398200e-02
C     7.246963887209064e+00   2.785195815195473e+00   3.002015197603237e+00  8.29769610e-01   9.90443100e-02  -7.70779500e-02
C     8.471139317907470e+00   2.091032909410897e+00   2.999107049556759e+00 -7.13176660e-01  -2.44321670e-01   7.64761000e-02
C     9.664588691185482e+00   2.789064848256205e+00   3.001651740351119e+00  4.21067930e-01  -7.84599000e-03  -7.37605800e-02
C     2.417936483800544e+00   4.193559532448866e+00   3.006760583653348e+00  6.91091000e-02  -8.46026190e-01   6.08092600e-02
C     3.620242433463086e+00   4.872436650910204e+00   2.999853121617472e+00  7.72953900e-01   1.25639743e+00   1.37043500e-02
C     4.845720839997417e+00   4.192489359972766e+00   2.989888351345293e+00 -1.14574331e+00  -7.28874850e-01   6.33781300e-02
C     6.034685050273976e+00   4.877848796473281e+00   2.993308569426925e+00  1.10918349e+00   6.65076970e-01   2.69825600e-02
C     7.248780057431197e+00   4.176983072913631e+00   2.994845760909424e+00  2.57138300e-01   3.82067540e-01   8.24928700e-02
C     8.469859985165648e+00   4.878632414933369e+00   3.005298523483910e+00 -1.11498056e+00   5.46979580e-01  -1.36731490e-01
C     9.658865076119991e+00   4.180235698987308e+00   3.002429684126713e+00  1.38635683e+00   3.79520320e-01   6.95487400e-02
C     1.089557839631965e+01   4.880816773792088e+00   3.006977410957856e+00 -1.51962746e+00   4.12641510e-01  -9.09556600e-02
C     3.619948828658799e+00   6.291773282560950e+00   3.003821953984859e+00  8.55783570e-01  -1.29210558e+00  -1.14309170e-01
C     4.845153485233299e+00   6.975290171774014e+00   2.996936923667260e+00 -4.80414910e-01   4.09769690e-01   6.20900800e-02
C     6.050884528108096e+00   6.279854544810637e+00   3.005477667091765e+00 -5.95757800e-02  -9.99661800e-02  -9.19942700e-02
C     7.262572022837959e+00   6.986693653653993e+00   3.002090003305601e+00 -7.79876490e-01  -6.77120310e-01   5.71913000e-02
C     8.454578798652674e+00   6.289232562248685e+00   2.992018768667353e+00  1.11950720e+00  -6.56312510e-01   6.39666200e-02
C     9.679129867363955e+00   6.980124132385959e+00   2.986655513616866e+00 -7.07618120e-01   3.55194730e-01   3.97199600e-02
C     1.088372573930387e+01   6.285634670792099e+00   2.989671445528165e+00 -5.50738400e-02  -7.94348470e-01   4.91083400e-02
C     1.209156097456656e+01   6.967636574894533e+00   2.990684659640626e+00 -3.55717160e-01   1.35359777e+00   4.20360900e-02
