32
Lattice="9.86 0 0 4.93 8.53901048131456 0 0 0 30 " PBC="1 1 1" Properties=species:S:1:pos:R:3:force:R:3 Energy="-256.10473535"
C     9.845228142399998e+00   2.313585116482640e-01   3.666117300000000e+00  8.93944240e-01  -9.40540900e-02   3.46947340e-01
C     1.250283397400000e+00   9.524224431161441e-01   3.637073700000000e+00 -1.51810786e+00   1.45685710e-01   6.55333990e-01
C     2.467677137900000e+00   2.182522406328264e-01   3.874153800000000e+00 -4.45884710e-01   3.15750251e+00  -1.23084096e+00
C     3.686550913700000e+00   1.001743511478310e+00   3.800178300000000e+00  2.54638600e-01  -3.91991999e+00   6.62783410e-01
C     4.924581683500000e+00   2.835174347533528e-01   3.829056000000000e+00 -6.29510880e-01  -2.22211255e+00  -4.13621510e-01
C     6.137463044300000e+00   9.729668753805000e-01   3.747913200000000e+00 -4.46087260e-01   1.23937919e+00   9.67829600e-01
C     7.369707374500000e+00   2.833239407758760e-01   3.761046600000000e+00 -1.47898786e+00  -1.82597010e+00  -3.92877120e-01
C     8.581785490400000e+00   9.112364046481696e-01   3.715132200000000e+00  2.67175466e+00   1.96437233e+00  -5.40650320e-01
C     1.105734816330000e+01   2.408616191065084e+00   3.529331400000000e+00  1.00396724e+00  -1.30748733e+00   1.43725200e-02
C     2.445744948300000e+00   3.110812837316985e+00   3.538150800000000e+00 -2.96321220e-01  -9.32566210e-01   2.07463060e-01
C     3.688024293500000e+00   2.347895629102223e+00   3.726903300000000e+00 -1.70133982e+00   4.50398662e+00  -7.57584920e-01
C     4.861145154999999e+00   3.131838698992203e+00   3.767011200000000e+00  2.18741198e+00   7.12495900e-02  -1.77505300e-02
C     6.090052072400000e+00   2.401305346462422e+00   3.841524900000000e+00  1.93491730e+00   3.68896610e-01  -8.18958670e-01
C     7.411798481999999e+00   3.070414010225162e+00   3.801420900000000e+00 -2.46873399e+00  -9.37011100e-02  -4.48767040e-01
C     8.612192300700000e+00   2.346330086920820e+00   3.668768700000000e+00 -2.34747320e-01   4.63466530e-01   3.32656640e-01
C     9.813026861399999e+00   3.109217835549426e+00   3.551673300000000e+00  1.07998905e+00  -1.64655247e+00   1.71994480e-01
C     1.227132063170000e+01   4.524786558018928e+00   3.476932200000000e+00  2.94560383e+00  -2.04945030e-01   8.15210880e-01
C     3.692309696000000e+00   5.256071428861053e+00   3.725017800000000e+00 -1.78082720e+00   9.86612370e-01  -7.66262290e-01
C     4.929421020800000e+00   4.601576086073367e+00   3.736541100000000e+00 -6.14514400e-01  -2.47146174e+00   1.03423752e+00
C     6.180180853400000e+00   5.258451763422458e+00   3.937440600000000e+00 -1.59567530e-01  -1.81942856e+00  -1.03898181e+00
C     7.406240695799999e+00   4.488402944435009e+00   3.793769700000000e+00 -5.01726390e-01   5.81309730e-01   1.58983112e+00
C     8.614773845899999e+00   5.196961068104405e+00   3.867852000000000e+00  8.86876240e-01   1.20434422e+00  -1.12034388e+00
C     9.879358877500000e+00   4.508450064729010e+00   3.624265800000000e+00 -3.51253457e+00   3.82226200e-02  -4.60135500e-02
C     1.104844813290000e+01   5.192658260723533e+00   3.447817200000000e+00  1.74088640e+00   2.97307406e+00   1.83157212e+00
C     1.353911504400000e+01   6.699367086870057e+00   3.817224000000000e+00 -6.19463710e-01  -1.38058225e+00  -1.31403698e+00
C     4.943360497200000e+00   7.340113939664105e+00   3.769127700000000e+00 -7.94811230e-01   1.25274174e+00   1.11835356e+00
C     6.166367535699999e+00   6.644197479449931e+00   3.984766200000000e+00 -3.17989800e-02   1.16460109e+00  -9.41190610e-01
C     7.385978297199999e+00   7.383213570380648e+00   3.965313900000000e+00 -8.01260000e-02  -1.56966157e+00   1.31726940e-01
C     8.584816454399999e+00   6.647489011819657e+00   3.908823600000000e+00  1.91425192e+00  -8.47693520e-01  -1.00764120e-01
C     9.851083651299998e+00   7.331955000540570e+00   3.798803100000000e+00 -8.99411460e-01   1.92911784e+00   5.45947050e-01
C     1.108613872240000e+01   6.652272907050971e+00   3.719380500000000e+00 -1.26269831e+00  -1.15785491e+00  -1.38333697e+00
C     1.226915493200000e+01   7.400363148248470e+00   3.701003100000000e+00  1.96295924e+00  -5.50571340e-01   9.05721050e-01
