32
Lattice="9.86 0 0 4.93 8.53901048131456 0 0 0 30 " PBC="1 1 1" Properties=species:S:1:pos:R:3:force:R:3 Energy="-252.52790674"
C     1.000456189700000e+00   1.336342758554804e+00   3.177501900000000e+00  2.29760634e+00  -3.41569224e+00   1.22457909e+00
C     2.367165037400000e+00   1.959343925159421e+00   3.071308200000000e+00 -3.31223363e+00  -8.43368750e-01   8.44385080e-01
C     3.552302379500000e+00   1.316313826353126e+00   3.466759800000000e+00  6.55326940e-01  -3.95687323e+00   1.36634980e-01
C     4.807992655800000e+00   1.930650971364315e+00   3.320911200000000e+00  1.61328070e-01  -1.24711088e+00   7.92658010e-01
C     6.047353095899999e+00   1.157719297048714e+00   3.474713700000000e+00 -3.24921706e+00   1.98349034e+00  -4.97428270e-01
C     7.205117007399999e+00   1.955364404715322e+00   3.455429100000000e+00  8.88444260e-01  -4.31876246e+00   8.12830920e-01
C     8.408150298799999e+00   1.173894146870245e+00   3.498746700000000e+00  2.16310741e+00   1.26723222e+00  -1.40540633e+00
C     9.577537819199998e+00   1.975465747725870e+00   3.195885000000000e+00  1.93108433e+00  -3.14336037e+00  -2.21085220e-01
C     2.323635602400000e+00   3.328022635550413e+00   2.811052800000000e+00 -3.58112590e-01   1.85568422e+00  -3.77959620e-01
C     3.573883503800000e+00   4.038187715602040e+00   2.904614100000000e+00 -1.13265673e+00   1.29191881e+00   1.40115480e-01
C     4.795774784700000e+00   3.320044723449053e+00   3.184079700000000e+00  4.11931390e-01   2.31053355e+00  -2.28632540e-01
C     6.015710531800000e+00   4.065688281973718e+00   3.430002300000000e+00 -1.66924000e-02  -1.24781106e+00   3.10194320e-01
C     7.254924353700000e+00   3.323614029829693e+00   3.544741200000000e+00 -9.89621620e-01   2.38466394e+00  -1.16777423e+00
C     8.459303682999998e+00   4.060291798130568e+00   3.351944400000000e+00 -1.25161092e+00   3.33692560e-01  -6.90726640e-01
C     9.604345975999999e+00   3.315677104978638e+00   2.907998400000000e+00  6.64156470e-01   3.74623694e+00   1.54624882e+00
C     1.087040956390000e+01   4.036860155642715e+00   2.737260000000000e+00  9.90330180e-01  -1.31983710e-01   6.75300480e-01
C     3.506089299000000e+00   5.523516140358216e+00   2.955918600000000e+00  1.53556177e+00  -2.04926544e+00   1.63361103e+00
C     4.742189283599999e+00   6.077664618369344e+00   3.445459800000000e+00 -1.28918310e-01   4.67019475e+00  -5.80982240e-01
C     5.965888444799999e+00   5.458960367228368e+00   3.601689300000000e+00  2.32718244e+00   2.57807600e-02   5.87809540e-01
C     7.277308920099999e+00   6.219249011847071e+00   3.889577100000000e+00 -4.14899290e+00   1.18559927e+00  -1.92145024e+00
C     8.381822521200000e+00   5.518966555574472e+00   3.476875800000000e+00  3.30068482e+00  -2.54446251e+00   6.96533540e-01
C     9.679991402999999e+00   6.105483348271507e+00   3.389854800000000e+00 -4.17456660e-01   3.39707248e+00   1.87821100e-01
C     1.087377009840000e+01   5.477273812224614e+00   2.954814000000000e+00  7.46654580e-01  -7.17300780e-01   2.38739400e-02
C     1.213189761880000e+01   6.237265726229137e+00   3.011966400000000e+00 -8.78465460e-01  -1.42850320e-01   1.31359398e+00
C     4.847478307600000e+00   7.598340960128318e+00   3.563896200000000e+00 -1.60566708e+00  -9.55962500e-01  -1.19942157e+00
C     6.023511024299999e+00   8.413947534779187e+00   3.492105000000000e+00  2.82714770e-01   1.47943980e-01   1.05917462e+00
C     7.279412600400000e+00   7.724766987592054e+00   3.844887900000000e+00 -1.79219164e+00  -2.49973501e+00  -4.92628470e-01
C     8.516527524099999e+00   8.318450144834429e+00   3.871418700000000e+00  8.08054000e-03   3.54505251e+00  -2.29156783e+00
C     9.713303560899998e+00   7.572071121337123e+00   3.667845600000000e+00 -1.41481051e+00  -1.79332786e+00  -7.93916560e-01
C     1.088496474800000e+01   8.264027530051093e+00   3.441092700000000e+00  1.39660125e+00   3.21322082e+00   1.44772487e+00
C     1.209721930860000e+01   7.642105267420623e+00   3.457932300000000e+00  4.59463048e+00  -3.76285601e+00  -2.38173078e+00
C     1.347150438310000e+01   8.278229356111115e+00   3.472701600000000e+00 -3.65877852e+00   1.41240598e+00   8.17620720e-01
