26
Lattice="8.88768389401873 1.33226762955019e-15 0 4.44384194700937 7.69696003302603 0 0 0 30 " PBC="1 1 1" Properties=species:S:1:pos:R:3:force:R:3 Energy="-209.09218632"
C     1.081379608737140e+00   1.197996576592563e+00   3.671764800000000e+00  3.72263170e-01   1.03161344e+00  -8.41375380e-01
C     3.461550414113617e+00   6.121095209201841e-01   3.736371900000000e+00  1.02256778e+00   3.64120950e-01  -7.32920630e-01
C     4.841810655419372e+00   1.001685457088212e+00   3.639097500000000e+00  3.77403140e-01  -6.22292050e-01   1.82300440e-01
C     5.896635418614093e+00   7.928869435703900e-03   3.575103300000000e+00 -1.41075565e+00   5.91660740e-01  -1.91562010e-01
C     7.250284867839745e+00   4.107772895402631e-01   3.515760300000000e+00 -4.63105010e-01   7.29675390e-01   2.06260560e-01
C     1.270622488508351e+01   7.145143183052414e+00   3.514345800000000e+00  1.04924957e+00  -8.58409020e-01   1.55796400e-01
C     5.186579604512420e+00   7.525447669046706e+00   3.602505900000000e+00  8.72631500e-01  -3.47169830e-01   2.73078310e-01
C     6.251572677961105e+00   6.519765719402117e+00   3.640857600000000e+00 -1.78552770e+00   1.50232905e+00  -3.44041250e-01
C     7.581877247862064e+00   6.927841222032649e+00   3.680524500000000e+00  1.13139287e+00   1.22422750e-01  -5.10879230e-01
C     8.621999471114172e+00   5.948334016483681e+00   3.514352400000000e+00 -1.69617282e+00  -1.11522680e-01   8.65891880e-01
C     9.965835450841455e+00   6.326607043817254e+00   3.535144800000000e+00  7.16800490e-01   7.99176830e-01   2.97256440e-01
C     1.097724485589655e+01   5.360238856917896e+00   3.591872700000000e+00  1.95639233e+00  -6.14546840e-01  -1.24982662e+00
C     3.501126073986645e+00   5.766275588775682e+00   3.513054300000000e+00 -1.50118825e+00  -7.58534550e-01   5.90479790e-01
C     4.522660728459561e+00   4.776142037178895e+00   3.535450500000000e+00  2.61923570e-01   5.10816600e-02   9.02579100e-02
C     5.900121927050740e+00   5.183144583581245e+00   3.535292700000000e+00 -6.43295840e-01  -2.16596368e+00   1.39766920e-01
C     6.898517140976834e+00   4.143977394174144e+00   3.515536200000000e+00 -7.68778990e-01   8.83396920e-01   7.64396000e-03
C     8.234780680747090e+00   4.572297979862784e+00   3.508936800000000e+00  1.69256370e+00  -6.83125860e-01  -3.15015580e-01
C     9.273396797072710e+00   3.570485753842878e+00   3.505539300000000e+00  6.30733580e-01   7.18137950e-01   1.44503650e-01
C     1.066512859417438e+01   3.970826889217664e+00   3.525513600000000e+00 -7.64191810e-01   2.64505190e-01   1.12639786e+00
C     2.809438873888816e+00   3.007102762027812e+00   3.697136400000000e+00  3.17855650e-01  -3.85664560e-01  -1.32069723e+00
C     4.196742649108846e+00   3.385951060154027e+00   3.616526100000000e+00 -9.45980310e-01   2.76792670e-01   1.77759480e-01
C     5.194507415195803e+00   2.373876169447721e+00   3.603615600000000e+00 -2.83333450e-01   2.13576650e-01  -1.42276140e-01
C     6.548370924276652e+00   2.759341851990129e+00   3.513491100000000e+00  5.78358840e-01   6.90030370e-01   1.62863990e-01
C     7.588068893950478e+00   1.798628852533612e+00   3.514689600000000e+00 -5.73279640e-01  -4.39557210e-01   7.85364700e-02
C     8.935909619616996e+00   2.202794530377706e+00   3.556181100000000e+00  7.33883140e-01  -6.39980680e-01   7.57893400e-02
C     2.466438132845001e+00   1.623860754457229e+00   3.662812500000000e+00 -8.78409860e-01  -6.11753580e-01   1.07401065e+00
