32
Lattice="9.984 0 0 4.992 8.64639763138383 0 0 0 30 " PBC="1 1 1" Properties=species:S:1:pos:R:3:force:R:3 Energy="-257.65534868"
C     7.026400504389424e-03  -1.248551274579245e-03   2.997165574145197e+00 -6.70748110e-01   3.55042440e-01   5.92205400e-02
C     1.248542513724435e+00   7.296180901035715e-01   2.997324209011504e+00  8.68892600e-02  -9.69822400e-01   3.14460500e-02
C     2.490570321636039e+00  -1.276144085216016e-02   2.996650246887022e+00  5.16484310e-01   5.87190990e-01   6.97762400e-02
C     3.742861010236614e+00   7.169444787447748e-01   2.996119073064861e+00 -8.22481900e-02   4.84550300e-02   3.78975000e-03
C     4.998601168872711e+00   3.746538053000865e-03   2.993275386771892e+00 -6.17809760e-01  -2.22789800e-02   1.51444960e-01
C     6.235444124827040e+00   7.210574001030232e-01   3.002585301800277e+00  6.72141200e-01  -2.71902900e-01  -6.92456200e-02
C     7.497862306443182e+00  -7.356432082362755e-04   3.005079605719088e+00 -7.13291900e-01   1.53622940e-01  -2.65942200e-02
C     8.726322709952763e+00   7.289896616878342e-01   3.004751566357402e+00  7.93566470e-01  -2.72134430e-01  -6.23627900e-02
C     1.257560889995024e+00   2.151711662661168e+00   3.005047069595001e+00 -4.58598790e-01   6.50815160e-01  -1.44485880e-01
C     2.501822281496839e+00   2.875602304800729e+00   3.000088713236849e+00 -2.22048780e-01   9.95243800e-02   8.12896400e-02
C     3.735773637701818e+00   2.162527816667667e+00   3.003631320150614e+00  5.66916680e-01  -3.12836480e-01  -6.31129200e-02
C     4.985963246399431e+00   2.890852725849400e+00   3.002411421202253e+00  2.91840360e-01  -1.10103509e+00  -1.10793800e-01
C     6.249657348156870e+00   2.146350408541692e+00   2.995144259706346e+00 -7.93543300e-01   1.06251389e+00   1.55487340e-01
C     7.482175296441780e+00   2.889454078743035e+00   3.008448657018551e+00  3.39675630e-01  -3.23243050e-01  -8.97219300e-02
C     8.731465093465641e+00   2.171061853902432e+00   3.001592180945272e+00  8.13520800e-02  -2.67239940e-01   4.28479000e-03
C     9.984867251388295e+00   2.875617376084516e+00   2.992850013433463e+00  1.03586730e-01   1.63327730e-01   2.19408540e-01
C     2.511085452121944e+00   4.311804466213813e+00   3.003330482385580e+00 -8.23964810e-01   5.38041220e-01  -7.62156700e-02
C     3.740454826234680e+00   5.045563432521826e+00   2.995489897630286e+00  2.23705290e-01  -2.04973810e-01  -5.29057600e-02
C     4.980867824237522e+00   4.309734491557866e+00   2.988009585850417e+00  4.93163590e-01   8.81685260e-01   1.14952730e-01
C     6.235626343320927e+00   5.041259568613817e+00   2.991918529698579e+00  1.00222300e-01  -4.73652000e-03   1.00625320e-01
C     7.493721986460851e+00   4.324035454402837e+00   3.008785135747633e+00 -4.32590470e-01   3.45048410e-01  -1.62210060e-01
C     8.742195258953618e+00   5.052341560690339e+00   2.996077188398797e+00 -1.07578620e-01  -6.75117690e-01   2.42470320e-01
C     9.982063187975259e+00   4.319364347828958e+00   3.013407969365291e+00  3.59728940e-01   7.27469200e-02  -2.74542810e-01
C     1.123486350045084e+01   5.040179592380266e+00   3.000117740371155e+00  4.27063100e-02   5.99270000e-04   1.94553870e-01
C     3.744996010945364e+00   6.486888993174552e+00   2.989205359854208e+00 -4.66883200e-01  -1.21209690e-01   9.97723700e-02
C     4.983778577615941e+00   7.202038031958343e+00   2.999918163466460e+00  5.47664250e-01   3.25916270e-01  -8.56382400e-02
C     6.236733564583818e+00   6.485332502661400e+00   3.002040497973128e+00  2.57188400e-01  -2.27562260e-01  -3.16435700e-02
C     7.502751849982588e+00   7.202062835514205e+00   3.008965464175589e+00 -8.76880070e-01  -2.40036410e-01  -1.02843810e-01
C     8.744589596235786e+00   6.479387258298330e+00   3.006597038396975e+00 -2.11090090e-01   4.75667360e-01  -6.41072000e-03
C     9.976166875107454e+00   7.213807214224647e+00   3.011778629015358e+00  5.31302090e-01  -3.18262400e-01  -8.52182000e-02
C     1.122409908081626e+01   6.489036460715087e+00   3.014351864937820e+00  2.45793610e-01  -1.90567020e-01  -1.65747180e-01
C     1.247561485622983e+01   7.209917390831311e+00   2.997350916962719e+00  2.23348590e-01  -2.37238230e-01   8.11707100e-02
