32
Lattice="9.86 0 0 4.93 8.53901048131456 0 0 0 30 " PBC="1 1 1" Properties=species:S:1:pos:R:3:force:R:3 Energy="-252.85572971"
C     4.984413938299999e+00   7.656844880360675e+00  -6.663728999999989e-01 -2.67501834e+00  -9.77106940e-01  -4.67627150e-01
C     6.174777425499999e+00   8.303153532240767e+00  -5.204960999999990e-01  3.58255476e+00   4.58286160e-01  -1.69969668e+00
C     7.479541020400000e+00   7.570863961425565e+00  -7.566050999999980e-01 -5.05524250e-01   6.29239710e+00   7.97739580e-01
C     8.720231032199999e+00   8.454948020549431e+00  -7.088573999999994e-01 -1.07044148e+00  -3.36162298e+00   1.69526176e+00
C     9.913330866599999e+00   7.716294752174008e+00  -3.551994000000001e-01 -1.86129770e-01  -3.67982400e-01  -1.65347904e+00
C     1.117566417000000e+01   8.439072633825434e+00  -4.277502000000020e-01 -1.46950830e+00  -5.40495390e+00   6.95122900e-02
C     1.230947123950000e+01   7.579328938684703e+00  -5.931674999999998e-01  2.61424715e+00   2.83109215e+00   3.51879930e-01
C     1.359138512250000e+01   8.398327635248751e+00  -6.668813999999976e-01 -3.71575240e-01  -2.63287447e+00   5.63704660e-01
C     1.308696748900000e+00   1.177721587537695e+00  -3.811491000000018e-01 -4.36562790e-01   6.79264360e-01   1.26568438e+00
C     2.545803094400000e+00   1.906688800155339e+00  -2.419295999999989e-01 -2.18926388e+00   1.73256238e+00  -1.54849472e+00
C     3.734255960100000e+00   1.354139081076382e+00  -5.841468000000027e-01  2.68579950e+00  -4.18340611e+00   6.01159050e-01
C     5.001216561500000e+00   1.963526759443049e+00  -5.000405999999984e-01 -6.62622540e-01   1.86422642e+00   9.60430230e-01
C     6.220798285299999e+00   1.239102727351289e+00  -4.787631000000019e-01  1.31737138e+00   2.79672303e+00  -2.17179740e+00
C     7.473090016800000e+00   1.915806926326093e+00  -7.753350000000019e-01 -1.09112049e+00   1.60546386e+00   2.63586533e+00
C     8.684910096499999e+00   1.289405184187921e+00  -5.825259000000003e-01  1.27405093e+00  -3.13992003e+00  -2.18477860e-01
C     9.952357288899998e+00   1.933459366521082e+00  -3.026492999999988e-01 -1.67031043e+00  -2.71656368e+00  -1.29078686e+00
C     2.517040192600000e+00   3.324724357362408e+00  -2.026485000000022e-01 -2.01437991e+00   7.90569930e-01   1.12340909e+00
C     3.735826214400000e+00   4.072950027266120e+00  -3.170276999999970e-01  1.07755268e+00   7.93818690e-01   5.37013730e-01
C     4.990818649200000e+00   3.400522250129805e+00  -3.551526000000003e-01  1.65457021e+00  -1.44145425e+00  -2.39642904e+00
C     6.304409162599999e+00   4.031247720224525e+00  -7.200434999999992e-01 -4.83608333e+00   1.43618460e+00   1.63357001e+00
C     7.502509249500000e+00   3.333078839825935e+00  -6.694476000000016e-01 -1.74056404e+00  -5.98108840e-01  -1.02689554e+00
C     8.645532954000000e+00   4.040234174853676e+00  -4.937027999999977e-01  3.51901147e+00   1.68615236e+00   7.53750160e-01
C     9.839287196600001e+00   3.287560705171142e+00  -2.146983000000020e-01  9.07238390e-01   2.50972274e+00  -7.57273000e-03
C     1.103830027020000e+01   3.979312604584117e+00  -5.894100000000080e-02  4.22814586e+00   2.73106937e+00  -7.33580250e-01
C     3.789881002200000e+00   5.528435805856163e+00  -3.832088999999996e-01 -2.85477243e+00  -1.77678233e+00  -1.94464169e+00
C     4.922940338599999e+00   6.208860366306999e+00  -8.011524000000030e-01  2.79094051e+00  -5.61216090e-01   1.77119627e+00
C     6.172014061899999e+00   5.424910123648215e+00  -8.150624999999998e-01  2.65238795e+00   3.17448694e+00  -4.05295140e-01
C     7.498816482300000e+00   6.249918063447459e+00  -8.478737999999986e-01 -2.15633380e-01  -5.62227557e+00   1.34580871e+00
C     8.777921941500001e+00   5.502760111414165e+00  -4.968851999999977e-01 -4.04460786e+00  -4.43546020e-01  -1.34917359e+00
C     9.934779472499999e+00   6.230761988897045e+00  -2.800218000000001e-01  9.43445060e-01   8.39255380e-01   1.64517310e-01
C     1.116451768650000e+01   5.452502569772658e+00  -1.277961000000012e-01 -1.90539506e+00  -4.96878140e-01  -9.08656530e-01
C     1.235164734020000e+01   6.142461362374937e+00  -4.590020999999993e-01  6.92197670e-01   1.50341628e+00   1.55210171e+00
