32
Lattice="9.86 0 0 4.93 8.53901048131456 0 0 0 30 " PBC="1 1 1" Properties=species:S:1:pos:R:3:force:R:3 Energy="-257.16148734"
C     9.819441284400000e+00   1.536671274629691e+00   3.496304100000000e+00 -3.05212150e-01   3.13773010e-01  -3.35811310e-01
C     1.104541850000000e+01   2.276443494938413e+00   3.426403500000000e+00  3.71249300e-02   4.91489780e-01   1.95659000e-02
C     2.434614339400000e+00   1.580188292178496e+00   3.434736600000000e+00 -1.87189403e+00  -1.97843669e+00  -2.45572070e-01
C     3.654961297800000e+00   2.216045536791486e+00   3.305827500000000e+00  2.36267350e-01   2.29665157e+00   3.29443980e-01
C     4.875498554200000e+00   1.500959425000235e+00   3.343743900000000e+00  6.64309280e-01   7.41999960e-01  -6.16481910e-01
C     6.118638282999999e+00   2.239185742851658e+00   3.339131100000000e+00 -1.74938607e+00   8.73377830e-01   6.70717870e-01
C     7.322155996199999e+00   1.534189838184203e+00   3.385221000000000e+00  1.25068396e+00   2.30491710e-01  -2.14528110e-01
C     8.565656995399999e+00   2.232461613659077e+00   3.493721400000000e+00  3.92507690e-01   7.96755180e-01  -3.50479790e-01
C     1.103211450060000e+01   3.716735470620973e+00   3.291111600000000e+00  2.24850370e-01  -2.05752300e+00  -8.13182900e-02
C     1.227506738240000e+01   4.382159039020963e+00   3.115940700000000e+00 -1.33357480e+00   6.08708510e-01   3.75292640e-01
C     3.606279125400000e+00   3.683918687104656e+00   3.215460300000000e+00  2.00567354e+00  -1.20301911e+00   4.77981300e-02
C     4.830822006800000e+00   4.425198725883935e+00   3.292523400000000e+00  1.10004140e+00  -1.72803502e+00  -1.32843000e-03
C     6.079525782899999e+00   3.693061661795906e+00   3.439911300000000e+00 -5.73983710e-01  -1.18202548e+00  -4.98424860e-01
C     7.306727511900000e+00   4.371862614794074e+00   3.530739300000000e+00  1.08391929e+00   4.75731670e-01  -6.54879000e-01
C     8.564737846200000e+00   3.667114597600855e+00   3.475266000000000e+00 -2.27964570e-01  -4.30682400e-01   3.42875810e-01
C     9.803113568099999e+00   4.385050262579386e+00   3.359718900000000e+00 -8.81250480e-01  -7.21076200e-02   4.25922900e-02
C     1.225467177520000e+01   5.802222098876403e+00   3.042780900000000e+00  2.98780060e-01   5.96835300e-01   4.07582090e-01
C     1.346616085470000e+01   6.539670769043412e+00   3.167172300000000e+00  1.54227489e+00  -7.87753500e-01  -1.41124530e-01
C     4.887044663499999e+00   5.822294665421634e+00   3.259699800000000e+00 -1.81227488e+00   6.32956120e-01   5.97961800e-01
C     6.107475579800000e+00   6.503361274070461e+00   3.477573600000000e+00 -5.47690300e-02   9.73351360e-01  -4.85949350e-01
C     7.332715711099999e+00   5.800489106699487e+00   3.498316800000000e+00  3.63631530e-01  -1.73902470e-01   4.76606100e-01
C     8.581682897099999e+00   6.512802943348301e+00   3.468163800000000e+00 -1.11033514e+00  -5.73601400e-02  -4.19697030e-01
C     9.792952049300000e+00   5.789449190830105e+00   3.306269100000000e+00  8.16724000e-03   1.12579416e+00  -1.99257170e-01
C     1.101151469280000e+01   6.512783047453883e+00   3.095610600000000e+00  4.56971750e-01  -1.11265319e+00   5.73938180e-01
C     1.350208635630000e+01   7.947152280077411e+00   3.277620300000000e+00  1.88363120e-01   6.28783910e-01  -1.34745500e-01
C     9.814828480599999e+00   1.145205974921008e-01   3.435156900000000e+00 -5.89553120e-01  -1.27574090e-01   2.17360170e-01
C     6.098113361899999e+00   7.943835216066350e+00   3.518696400000000e+00 -2.56544200e-02  -4.04958120e-01  -3.74873900e-01
C     2.373782280600000e+00   1.293381715978352e-01   3.496614000000000e+00  1.33110800e+00   3.03575430e-01   8.52506100e-02
C     8.534581479900000e+00   7.941707294654734e+00   3.434063700000000e+00  8.30435970e-01  -1.90021300e-01  -1.70221420e-01
C     4.857615373600000e+00   8.528849057528799e-02   3.297523800000000e+00  3.31734780e-01  -1.25800140e-01   2.94110810e-01
C     1.103407383050000e+01   7.901415632144435e+00   3.173887200000000e+00  1.65528510e-01   2.32857587e+00   8.03643900e-02
C     7.366625039900000e+00   1.395225640072264e-01   3.219950100000000e+00 -1.97652125e+00  -1.78699910e+00   3.63231900e-01
