32
Lattice="9.86 0 0 4.93 8.53901048131456 0 0 0 30 " PBC="1 1 1" Properties=species:S:1:pos:R:3:force:R:3 Energy="-255.5789325"
C     4.894761296700000e+00   8.374309789691445e+00  -7.277946000000028e-01  3.76778387e+00   1.43362241e+00  -3.31476470e-01
C     1.244693369000000e+00   5.668552087262064e-01  -7.207205999999999e-01  1.01807460e-01   1.10028170e-01  -7.21841140e-01
C     7.447515888299999e+00   8.400765351960581e+00  -7.869753000000017e-01 -2.60052285e+00   4.97285820e-01   2.36197000e-02
C     3.698452525300000e+00   6.148170374001656e-01  -8.181110999999994e-01  2.10759472e+00  -2.71950305e+00   1.56622289e+00
C     9.878161084700000e+00   8.400042439333344e+00  -6.149483999999994e-01  6.58375130e-01  -2.92754400e-01  -2.19677370e-01
C     6.207396523999999e+00   5.402831743541232e-01  -5.720649000000009e-01 -5.49596030e-01  -3.06679300e-02  -1.31127114e+00
C     1.238193947870000e+01   8.394152913025080e+00  -6.720936000000002e-01 -1.65520579e+00   5.93055520e-01   1.17955853e+00
C     8.651249190400000e+00   5.843618880123024e-01  -7.661133000000007e-01 -5.85934700e-02  -1.30335697e+00   3.98998690e-01
C     1.251457329000000e+00   2.007431875018169e+00  -6.793011000000000e-01  1.91307336e+00  -8.37237830e-01   1.47712200e+00
C     2.541463708400000e+00   2.713332914796504e+00  -3.767538000000030e-01 -2.03665686e+00  -7.86673440e-01  -2.53941709e+00
C     3.747835891600000e+00   1.988115096290523e+00  -6.287406000000004e-01 -4.26776680e-01   1.38165091e+00   7.93445030e-01
C     5.008242156600000e+00   2.657514257189792e+00  -5.951465999999996e-01  7.04606900e-02  -6.12433390e-01  -1.42804160e-01
C     6.231291741000000e+00   1.934310278915414e+00  -6.837885000000021e-01  3.32443810e-01   1.16367250e+00   2.03103420e-01
C     7.481525838400000e+00   2.658005933413230e+00  -7.528563000000013e-01 -2.66625553e+00   1.83937963e+00  -1.33816560e-01
C     8.695279119000000e+00   1.989283574484606e+00  -7.676045999999985e-01 -2.07519096e+00  -1.65480269e+00  -2.88104520e-01
C     9.860431374999999e+00   2.662552102592783e+00  -6.949389000000004e-01  2.40369005e+00   2.13525867e+00   5.32559390e-01
C     2.510220572900000e+00   4.152816160796503e+00  -3.470154000000001e-01  5.15253970e-01  -2.89039887e+00   3.60874770e-01
C     3.749443564600000e+00   4.777211235471875e+00  -4.014501000000017e-01  1.11780752e+00   3.32612570e+00   9.09904600e-02
C     5.022768007200000e+00   4.050229257400726e+00  -5.350593000000003e-01 -3.80397430e+00   1.22317054e+00   1.20855590e-01
C     6.155337942499999e+00   4.789516547304289e+00  -7.027223999999990e-01  2.31894800e+00   1.98843697e+00  -5.60856670e-01
C     7.380957141500000e+00   4.118325560445896e+00  -7.916640000000008e-01  2.04308517e+00  -1.12448237e+00   6.97486650e-01
C     8.620848098900000e+00   4.852303208242891e+00  -6.656772000000011e-01  3.96660520e-01  -6.54524180e-01   1.37324650e-01
C     9.817445127399999e+00   4.066235120204857e+00  -5.347094999999982e-01  2.02461913e+00   1.97861139e+00  -1.51650350e-01
C     1.112532630640000e+01   4.778011169973641e+00  -3.658691999999988e-01 -2.23818404e+00   7.60360030e-01  -6.36398140e-01
C     3.743909097300000e+00   6.299378744630972e+00  -4.109450999999993e-01  6.34593100e-01  -2.20737736e+00  -1.16652217e+00
C     5.004401489399999e+00   6.978078851915371e+00  -6.874214999999992e-01 -2.46677817e+00  -1.14154839e+00   6.04525680e-01
C     6.212883170300000e+00   6.242350963140292e+00  -8.089364999999979e-01 -9.59651520e-01  -2.18952540e-01   1.07316485e+00
C     7.417704917800000e+00   6.976131274405093e+00  -7.715700000000005e-01  1.57582404e+00  -1.33260210e-01   1.85309200e-02
C     8.670672798800000e+00   6.292859807860226e+00  -6.150558000000004e-01 -5.10969520e-01  -1.33864975e+00  -4.37665990e-01
C     9.927657348000000e+00   6.956073821908412e+00  -4.985919000000010e-01 -1.74702286e+00   4.84554340e-01  -8.24119830e-01
C     1.112096853150000e+01   6.183787526004889e+00  -4.427241000000031e-01  8.46795890e-01   2.89001018e+00   8.27869220e-01
C     1.235120339370000e+01   7.027327509468667e+00  -4.226481000000000e-01  9.66562150e-01  -3.85859942e+00  -6.40630850e-01
