26
Lattice="8.88768389401873 1.33226762955019e-15 0 4.44384194700937 7.69696003302603 0 0 0 30 " PBC="1 1 1" Properties=species:S:1:pos:R:3:force:R:3 Energy="-208.02174235"
C     1.250307189500618e+01   6.560717318272131e+00   7.362720000000000e-02 -2.87356040e-01   8.07159240e-01   7.90815700e-02
C     8.659272329072030e+00   6.454659520565957e+00  -1.034733000000010e-01  2.65712346e+00   4.92008000e-03   1.29699256e+00
C     1.006476332682707e+01   6.038477117814226e+00   1.458924000000000e-01  8.28387180e-01   5.75313120e-01  -1.93294320e+00
C     1.041327705193605e+01   4.630220836811746e+00   1.030440000000000e-01  6.48142620e-01   1.07760346e+00   8.55660700e-02
C     6.299970826750323e+00   5.805034785550751e+00   5.641920000000000e-02  1.02616188e+00   5.62258590e-01  -1.05441113e+00
C     7.668120220680059e+00   5.448173623446234e+00  -3.060389999999913e-02  1.10791750e-01  -1.30757530e-01   4.41163090e-01
C     8.036211958067064e+00   4.059977236643540e+00   8.738100000000000e-02 -2.47495420e-01   1.93664860e+00   7.13289100e-02
C     9.372261615206080e+00   3.690234596172016e+00   1.040040000000000e-01  1.73357409e+00  -2.51386857e+00  -6.64875840e-01
C     9.760231635230589e+00   2.259384119910272e+00  -7.624799999998544e-03 -8.00218390e-01   1.74018161e+00   1.01303392e+00
C     3.965177068325288e+00   5.168365650627642e+00   1.175115000000000e-01 -7.16599670e-01   1.51384270e-01  -5.32947660e-01
C     5.351416587340797e+00   4.781961169870376e+00   1.277550000000000e-01 -2.50715135e+00   1.80018562e+00   1.91196660e-01
C     5.669378543615975e+00   3.443630693166042e+00   1.711740000000000e-01  2.09710090e-01  -3.06203500e-01  -5.35913910e-01
C     7.035186077295372e+00   3.111793810541460e+00   1.687275000000000e-01 -5.03520770e-01  -2.35769699e+00   3.61768300e-02
C     7.348444493470098e+00   1.723916616671211e+00   1.761888000000000e-01  9.23996410e-01  -8.87255560e-01  -1.23247394e+00
C     8.738755060492457e+00   1.279962966374438e+00   4.014599999999999e-02 -1.53079635e+00   4.97235010e-01   1.96368150e-01
C     2.917207641055299e+00   4.176090265963308e+00   5.277090000000000e-02 -3.36686580e-01   2.21485323e+00   1.60931969e+00
C     3.267089447384479e+00   2.827882742270076e+00   1.988055000000000e-01  4.56173450e-01   1.43047000e-03  -2.19851767e+00
C     4.652260489065865e+00   2.477089170726809e+00   5.897280000000000e-02 -7.54893340e-01  -2.22122450e-01   1.72437128e+00
C     4.982173269464096e+00   1.108529191383051e+00   7.168590000000000e-02 -1.45290287e+00  -1.99548310e-01  -1.30457264e+00
C     6.314428596591045e+00   7.299392032354421e-01   3.642180000000000e-02  2.88896186e+00  -7.65070640e-01   1.16039738e+00
C     1.117561098457957e+01   7.038292136645548e+00   7.135770000000000e-02 -3.43348780e+00  -1.53088648e+00   2.71519290e-01
C     2.237552010004393e+00   1.872721483113599e+00   2.394660000000000e-02 -1.40066370e+00  -2.30645760e-01   3.98681900e-02
C     2.477061180720399e+00   4.961881459051640e-01  -1.021785000000008e-01  3.95294575e+00  -1.07440100e-01   3.58065000e-03
C     3.939554761188507e+00   1.648802753434444e-01  -1.200285000000001e-01 -2.31698025e+00  -1.74829607e+00   6.76992870e-01
C     4.589197931345793e+00   7.590061031532145e+00   9.781800000000000e-03  8.36992800e-01  -5.58915060e-01  -2.05336850e-01
C     5.941823652175786e+00   7.181975061035972e+00  -9.541619999999895e-02  1.57912000e-02   1.89533710e-01   7.65035740e-01
