2
Lattice="2.448 0 0 1.224 2.12003018846431 0 0 0 30 " PBC="1 1 1" Properties=species:S:1:pos:R:3:force:R:3 Energy="-16.1236291"
C     0.000000000000000e+00   0.000000000000000e+00   3.000000000000000e+00  0.00000000e+00   0.00000000e+00   0.00000000e+00
C     1.224000000000000e+00   7.066767294881019e-01   3.000000000000000e+00 -0.00000000e+00  -0.00000000e+00  -0.00000000e+00
