32
Lattice="9.86 0 0 4.93 8.53901048131456 0 0 0 30 " PBC="1 1 1" Properties=species:S:1:pos:R:3:force:R:3 Energy="-246.83722104"
C     1.193777610800000e+00   1.014418391684297e+00   3.680934600000000e+00  2.20848310e-01   1.19356156e+00   2.96421960e-01
C     2.424368813400000e+00   1.773232946923839e+00   3.433621200000000e+00 -1.23760020e-01  -2.65641059e+00   1.71838234e+00
C     3.676669024500000e+00   1.170470601398498e+00   3.929699400000000e+00 -5.16873863e+00  -5.49495325e+00   4.84644150e-01
C     4.874291394400000e+00   1.669489434558546e+00   3.910174800000000e+00  1.54917348e+00   6.34539078e+00   4.01672480e-01
C     6.034785983599999e+00   9.925419591751663e-01   4.278309000000000e+00  3.78491273e+00   2.91548726e+00  -1.55067053e+00
C     7.282788122099999e+00   1.792397304314417e+00   4.015092000000000e+00 -1.25686761e+00  -1.76753234e+00   1.51912403e+00
C     8.446052582500000e+00   9.940462766514280e-01   3.830838600000000e+00  3.00059052e+00   5.27161009e+00  -2.27621390e-01
C     9.816904010600000e+00   1.695530684039192e+00   3.603127200000000e+00 -3.62456755e+00   1.40429888e+00  -9.84377570e-01
C     2.304742757800000e+00   3.073030021475815e+00   3.041835600000000e+00  2.41779702e+00   4.28948008e+00   2.07863260e-01
C     3.629988974400000e+00   3.846018650991317e+00   3.122979000000000e+00  9.80614050e-01   2.40813692e+00   1.71818583e+00
C     4.788709651000000e+00   3.288026764363141e+00   3.726162300000000e+00  2.03666783e+00  -3.30571198e+00   5.02187210e-01
C     6.008431189600000e+00   3.983259847568601e+00   4.269164400000000e+00 -2.90184800e-02  -1.97805887e+00  -2.51568979e+00
C     7.311053833400000e+00   3.206736750835218e+00   4.188525300000000e+00 -3.51191435e+00  -2.08438910e+00  -9.00940240e-01
C     8.459928806999999e+00   3.802688637772024e+00   3.823185300000000e+00  3.54805993e+00   3.33756988e+00  -1.55022599e+00
C     9.691548654100000e+00   3.158908984625794e+00   3.309285300000000e+00  5.27249700e-02  -2.22631214e+00   2.52347438e+00
C     1.093377243820000e+01   3.874888703863777e+00   3.152279400000000e+00 -7.63734310e-01  -5.65419490e-01   5.08628290e-01
C     3.801890383600000e+00   5.396624907603529e+00   3.169045200000000e+00 -4.70711960e+00  -3.78270010e-01   2.86730263e+00
C     4.785589207499999e+00   6.091105447815387e+00   3.949684800000000e+00  2.34525715e+00  -1.34090370e+00  -5.51146540e-01
C     6.087585889200000e+00   5.360763112950044e+00   4.288293300000000e+00 -1.34216044e+00   1.28754709e+00   2.65780040e-01
C     7.401482358399999e+00   5.974093252455329e+00   4.530849900000000e+00 -2.84977123e+00   2.40933133e+00  -1.80300444e+00
C     8.490281732400000e+00   5.269827603964123e+00   3.944825400000000e+00  1.39651168e+00   1.60271182e+00   3.68494331e+00
C     9.761680171900000e+00   6.040735703576173e+00   4.121085000000000e+00  4.98459540e-01  -3.55557756e+00  -3.09478285e+00
C     1.092329544870000e+01   5.237923555278013e+00   3.542560500000000e+00  1.89079237e+00   4.40248745e+00   3.61471200e-02
C     1.217817074670000e+01   6.147910531912749e+00   3.411151800000000e+00  1.07029231e+00  -7.14529090e+00  -2.81025740e-01
C     4.744269398499999e+00   7.518137023343347e+00   4.176480300000000e+00  3.90500589e+00   3.07001650e-01  -1.37272898e+00
C     6.119173730300000e+00   8.264953585737649e+00   4.191752999999999e+00 -1.25628773e+00  -3.45256110e+00   1.39525364e+00
C     7.368690266200000e+00   7.558180798379411e+00   4.634988000000000e+00 -2.23219413e+00  -3.06947107e+00  -2.17306253e+00
C     8.564399253800000e+00   8.176392690176110e+00   4.483107000000000e+00  1.74007746e+00   3.04707504e+00  -2.13599833e+00
C     9.819982351899998e+00   7.438458662653418e+00   4.362006300000000e+00 -4.55479230e-01   5.64484960e-01   1.32070480e-01
C     1.108680915310000e+01   8.170109088534193e+00   4.286576699999999e+00 -3.19209761e+00  -3.81640074e+00   1.71731700e-01
C     1.220506877740000e+01   7.315964934905828e+00   4.020005400000000e+00  1.43420753e+00   6.82889183e+00  -4.31518830e-01
C     1.343710880840000e+01   8.205855350375883e+00   3.921902700000000e+00 -1.35828185e+00  -4.77780378e+00   1.13898090e+00
