32
Lattice="9.86 0 0 4.93 8.53901048131456 0 0 0 30 " PBC="1 1 1" Properties=species:S:1:pos:R:3:force:R:3 Energy="-255.68591276"
C     5.011990041200000e+00   8.308128615916729e+00  -4.442039999999992e-02 -2.42233731e+00  -1.81046091e+00   5.01937120e-01
C     1.265873980100000e+00   4.808329609803720e-01  -3.280320000000003e-02  1.64398823e+00  -2.83587853e+00  -4.68415410e-01
C     7.393969728599999e+00   8.194085690670880e+00  -4.507499999999709e-02  2.20488637e+00   4.25155636e+00   6.68226620e-01
C     3.761145659100000e+00   3.920079538246872e-01   5.261970000000000e-02 -1.61824148e+00   2.52664050e-01  -1.01636877e+00
C     9.918284974300001e+00   8.260779546634815e+00   1.202940000000000e-02 -2.39825300e-02  -1.00469847e+00   8.26663710e-01
C     6.239229879100000e+00   4.188636541249160e-01   3.261270000000000e-02 -1.18074645e+00  -1.24488977e+00   3.17939490e-01
C     1.237600203320000e+01   8.192036157375471e+00   9.431039999999999e-02  9.99464520e-01   1.81010389e+00  -1.08735442e+00
C     8.656663612199999e+00   3.959832901536512e-01  -6.644879999999986e-02  1.19237343e+00   1.19112911e+00   5.57806840e-01
C     1.304586016300000e+00   1.856677267405761e+00  -1.149810000000073e-02  8.39641400e-02   6.07820620e-01   6.26648880e-01
C     2.530507818700000e+00   2.542231723792561e+00   6.683280000000000e-02  4.51076900e-01  -4.58560530e-01  -4.47774140e-01
C     3.760644820400000e+00   1.803312806801106e+00   1.571670000000000e-02  9.44655350e-01   1.95424995e+00   6.91893660e-01
C     5.052041607700000e+00   2.581362934778628e+00   3.519720000000000e-02 -3.70467180e+00  -2.14575352e+00   3.26760450e-01
C     6.215957123899999e+00   1.836890159980876e+00   5.245800000000000e-02  1.30836861e+00  -6.31922460e-01  -7.66170400e-01
C     7.443436954199999e+00   2.505186166116234e+00  -2.529750000000064e-02  1.47014165e+00   2.65441421e+00   3.08604940e-01
C     8.684152749899999e+00   1.855265768973417e+00  -1.034064000000008e-01  3.63280700e-02  -2.23055592e+00   1.16375256e+00
C     9.937886210600000e+00   2.534784767362848e+00   5.909040000000000e-02 -1.67868493e+00   1.41339563e+00  -1.76696137e+00
C     2.493609923900000e+00   3.959247723148317e+00   1.099701000000000e-01  6.20591330e-01  -6.61220630e-01  -2.22852960e-01
C     3.693713168400000e+00   4.634536495745957e+00   1.313466000000000e-01  4.52103949e+00   2.54123605e+00  -1.37899030e-01
C     4.988741147199999e+00   3.978767303374864e+00   7.384350000000001e-02 -1.08331496e+00  -6.26150460e-01  -5.18174820e-01
C     6.203324984900000e+00   4.662913079202779e+00  -6.219090000000094e-02  8.86717820e-01   1.28879222e+00   1.30472732e+00
C     7.484446074599999e+00   3.959077540669451e+00   3.666480000000000e-02 -3.56809192e+00  -4.03779320e-01  -8.78933100e-01
C     8.622100368200000e+00   4.726188256930941e+00   5.842500000000000e-02  3.83051695e+00  -2.69477473e+00  -3.71825080e-01
C     9.898744229100000e+00   3.962828813363420e+00  -2.142719999999798e-02  4.73551860e-01   1.00873076e+00   1.30259002e+00
C     1.116917338130000e+01   4.664547104248231e+00   3.932400000000000e-02 -3.36480943e+00   2.30758615e+00   4.27499600e-01
C     3.857763651200000e+00   6.095384943697650e+00   1.286691000000000e-01 -4.87284856e+00  -9.00461430e-01  -9.49931600e-02
C     5.013782145500000e+00   6.855807309220470e+00   7.430760000000000e-02  6.28130210e-01   8.35328300e-02  -9.10850380e-01
C     6.181332550700000e+00   6.102301456796345e+00  -4.675350000000122e-02  2.91881090e+00   4.59322500e-02   2.67126700e-01
C     7.461442793200000e+00   6.844351628930816e+00  -3.981599999999830e-02 -1.65790977e+00  -3.25431716e+00   3.13532700e-01
C     8.698078570200000e+00   6.102529192205846e+00   8.651160000000001e-02 -2.71832313e+00   1.43125486e+00  -6.86185070e-01
C     9.867928228800000e+00   6.817204748373220e+00   9.810450000000000e-02  2.89462419e+00   1.55017174e+00  -3.20173340e-01
C     1.111981003080000e+01   6.169659476995414e+00   1.151763000000000e-01  2.30704148e+00  -3.76071324e+00  -3.61753910e-01
C     1.243628326310000e+01   6.787788967340981e+00   1.061160000000000e-01 -1.52230924e+00   2.71566400e-01   4.50974730e-01
