26
Lattice="8.88768389401873 1.33226762955019e-15 0 4.44384194700937 7.69696003302603 0 0 0 30 " PBC="1 1 1" Properties=species:S:1:pos:R:3:force:R:3 Energy="-208.57323102"
C     8.023210435207067e-01   9.097125574497344e-01   3.402552000000000e+00  3.08921800e-02  -2.24776940e-01  -8.66929050e-01
C     3.195988596780664e+00   3.314693527831491e-01   3.484623900000000e+00  8.78632470e-01   5.62531850e-01  -7.92322940e-01
C     4.592886449031826e+00   7.496549663522871e-01   3.442230600000000e+00 -5.80051600e-01   3.53923670e-01   3.57053840e-01
C     1.007223018206982e+01   7.482161659169193e+00   3.398115300000000e+00 -5.10815630e-01  -1.50146072e+00  -9.39189400e-02
C     7.001707192239354e+00   1.468697737212459e-01   3.333700800000000e+00 -1.57410559e+00   7.93617300e-01   1.92950650e-01
C     1.240944392266760e+01   6.833070015605665e+00   3.331152000000000e+00  1.58491504e+00  -8.27351920e-01  -3.57879110e-01
C     4.892485877756330e+00   7.209145560850673e+00   3.327181800000000e+00  4.60358710e-01   1.02373201e+00   5.97539790e-01
C     5.926299178602488e+00   6.234820102733101e+00   3.345318600000000e+00 -1.75688310e-01   6.48362070e-01  -3.78604000e-02
C     7.293259356503318e+00   6.669199273539755e+00   3.380229600000000e+00  1.19384407e+00  -1.53909961e+00   2.64821800e-01
C     8.380447287431284e+00   5.676046589371201e+00   3.358816800000000e+00 -2.53293093e+00   2.54805030e-01  -5.98088970e-01
C     9.730439099205014e+00   6.042214222817591e+00   3.371782800000000e+00 -2.53072800e-01   1.87248673e+00   6.74531900e-02
C     1.071297668537632e+01   5.055150295850369e+00   3.344169300000000e+00  2.11827681e+00  -1.12985413e+00   7.59851600e-02
C     3.220881402881481e+00   5.423819980093712e+00   3.315656400000000e+00 -2.38920902e+00   1.49234707e+00   6.11573690e-01
C     4.190880333499180e+00   4.439167972521490e+00   3.394015800000000e+00  1.85868215e+00   1.02857746e+00  -1.04453778e+00
C     5.556309830040211e+00   4.870711198405091e+00   3.334670700000000e+00  1.21510294e+00  -4.97842360e-01  -3.50830790e-01
C     6.624160382769579e+00   3.916147223346942e+00   3.223860900000000e+00 -9.05030690e-01  -2.22497730e-01   1.18538465e+00
C     7.987049023773345e+00   4.304012587117903e+00   3.219627000000000e+00  1.50698210e+00  -1.32484030e-01   9.76375350e-01
C     9.030966954614259e+00   3.311398151364247e+00   3.347788800000000e+00 -4.87378000e-02  -1.27722702e+00  -8.47459170e-01
C     1.043645426446012e+01   3.633571038853562e+00   3.391958100000000e+00 -2.67677098e+00   2.54659473e+00  -7.33893200e-02
C     2.541170356830434e+00   2.672354581241483e+00   3.447537600000000e+00  2.33494550e-01  -3.07225540e-01  -9.07164020e-01
C     3.901899823916378e+00   3.070094682913332e+00   3.329120700000000e+00 -2.19879717e+00   1.52744760e+00   1.40596269e+00
C     4.909933597806416e+00   2.185632464659614e+00   3.442060200000000e+00  1.23288586e+00  -4.22082933e+00  -3.71904920e-01
C     6.257960475985286e+00   2.548658891748162e+00   3.400963500000000e+00  2.12563963e+00  -3.65374270e-01  -1.23978777e+00
C     7.311217229544950e+00   1.547566562399861e+00   3.312819000000000e+00 -5.06683750e-01  -3.97526860e-01   3.12926740e-01
C     8.678989430632699e+00   1.902371712541165e+00   3.283061700000000e+00  1.60392900e-02   1.37094170e+00   9.18503850e-01
C     2.172727287516418e+00   1.316061939823939e+00   3.427774500000000e+00 -1.03851530e-01  -8.31816750e-01   6.15541750e-01
