32
Lattice="9.86 0 0 4.93 8.53901048131456 0 0 0 30 " PBC="1 1 1" Properties=species:S:1:pos:R:3:force:R:3 Energy="-254.35422318"
C     4.949004903500000e+00   7.823887223513161e+00   1.311534000000000e-01  2.95944355e+00   1.63380201e+00   6.35949320e-01
C     1.297540356100000e+00   2.129057100009840e-02   2.281866000000000e-01 -5.69869610e-01  -1.04642911e+00  -1.52487647e+00
C     7.435971553800000e+00   7.902227094310349e+00   1.072719000000000e-01  2.17477049e+00  -3.18097705e+00   7.37931400e-01
C     3.782168263700000e+00   3.710823401325040e-02   1.441698000000000e-01 -3.06225650e-01   1.99202120e+00   2.28111540e-01
C     9.985572424400001e+00   7.898615775998147e+00   2.699346000000000e-01 -1.96074719e+00  -4.22904320e-01  -2.00758787e+00
C     6.250588845599999e+00   4.838152103905120e-02   6.625470000000000e-02  2.19381040e+00   1.05894829e+00   1.51717658e+00
C     1.244402439840000e+01   7.898603821383475e+00   9.373440000000000e-02 -1.76040297e+00  -2.78053545e+00   1.29811080e-01
C     1.365183781780000e+01   8.532833872159397e+00   3.040065000000000e-01 -9.13781710e-01   3.68461116e+00  -1.73845536e+00
C     1.384017929800000e+00   1.395767867237744e+00   8.865540000000000e-02 -4.01715369e+00   3.06575720e+00   2.14536810e-01
C     2.500086957900000e+00   2.188348146228244e+00   6.793530000000000e-02  4.91606845e+00   7.53110790e-01  -8.39667680e-01
C     3.806069840400000e+00   1.509944854948130e+00   7.744799999999999e-02 -3.80753070e-01  -1.74514102e+00   7.51854970e-01
C     5.104791523099999e+00   2.176729627008737e+00   1.478538000000000e-01 -3.28267895e+00   1.98044610e-01  -3.97750630e-01
C     6.308658625400001e+00   1.481635131943366e+00   1.574736000000000e-01 -6.24749850e-01  -9.87545160e-01  -3.71608300e-01
C     7.515147797499999e+00   2.220006186022425e+00   1.522194000000000e-01  1.20405229e+00  -7.08451993e+00   4.38342350e-01
C     8.746313739500000e+00   1.480174875761182e+00   2.112411000000000e-01  5.83677970e-01  -1.10344178e+00  -4.23882280e-01
C     9.979445864099999e+00   2.179460231780031e+00   1.843800000000000e-02 -7.68083020e-01  -1.12916253e+00   2.15928336e+00
C     2.555492910800000e+00   3.655658831921096e+00  -5.932980000000043e-02 -5.43160420e-01  -1.56960594e+00   1.03656372e+00
C     3.803364059200000e+00   4.367745701671352e+00  -4.250850000000028e-02  2.50256370e-01  -3.28358974e+00   1.21504982e+00
C     5.047238505899999e+00   3.579416654438425e+00   1.131399000000000e-01  7.79060670e-01   2.12300195e+00  -9.60871430e-01
C     6.329904509700000e+00   4.278513810666295e+00   7.385939999999999e-02 -2.70007670e+00   3.16503260e-01   7.02405580e-01
C     7.551511871899999e+00   3.506505288773687e+00   1.092249000000000e-01 -1.45213411e+00   8.58122205e+00  -1.24693900e-01
C     8.727739619399999e+00   4.318675765607403e+00   1.358052000000000e-01 -5.28539620e-01  -4.94978900e-01   5.65713100e-02
C     9.909616900400000e+00   3.605193109204087e+00   1.779309000000000e-01  3.13288577e+00  -4.32473240e-01  -1.56315133e+00
C     1.116347918200000e+01   4.320469128588413e+00   7.075919999999999e-02  2.49436580e-01  -1.45061490e-01  -4.22760590e-01
C     3.786053251600000e+00   5.765190118226739e+00   8.929740000000000e-02 -1.72805580e-01  -2.71101369e+00  -1.76107171e+00
C     4.923866340499999e+00   6.461735903513290e+00  -4.927830000000100e-02  5.62750133e+00  -7.39446120e-01   2.16078828e+00
C     6.229860118300000e+00   5.732686118664304e+00   1.312941000000000e-01 -9.42932570e-01  -1.55971225e+00  -1.75653350e+00
C     7.443075042900000e+00   6.384990009802404e+00   9.973230000000000e-02  5.26318900e-01   4.04593771e+00   2.46490940e-01
C     8.683743461299999e+00   5.741993640087505e+00   1.051512000000000e-01  1.89501920e+00   1.42945770e-01   5.86995490e-01
C     9.959616418100000e+00   6.500224980911262e+00   1.655592000000000e-01 -1.34189900e-02  -2.64565073e+00  -2.60663730e-01
C     1.120675240490000e+01   5.715099514240116e+00   4.075950000000000e-02 -1.07836202e+00   2.16345472e+00   5.21367070e-01
C     1.247353271620000e+01   6.410623692312839e+00   3.884100000000000e-03 -4.47642622e+00   3.30282774e+00   8.14345140e-01
