32
Lattice="9.98 0 0 4.99 8.6429335297687 0 0 0 30 " PBC="1 1 1" Properties=species:S:1:pos:R:3:force:R:3 Energy="-257.69487426"
C     2.105829540953027e-04   4.332518413763396e-03   2.989786277122989e+00  1.46163560e-01  -1.42230670e-01   6.99997200e-02
C     1.260767250146264e+00   7.124145022421059e-01   2.990115138128933e+00 -5.83189470e-01   6.85934300e-01   9.15561200e-02
C     2.503935371436951e+00   2.852865034511386e-03   3.001118311391519e+00 -2.94222300e-01  -7.45504840e-01  -2.15166100e-02
C     3.742455432903612e+00   7.085954342093073e-01   2.990454910438681e+00  2.60631600e-01   8.08335380e-01   1.50554780e-01
C     4.996663030270414e+00   3.219133797906722e-03   3.006070998516523e+00 -4.47858030e-01  -1.39117260e-01  -9.56363300e-02
C     6.229708985897466e+00   7.266674299319705e-01   2.994775056197827e+00  4.20472920e-01   1.91564800e-01   2.38980870e-01
C     7.481223486299699e+00   1.258117067019799e-02   3.008206658141470e+00 -1.35025320e-01  -6.33514730e-01  -2.03793270e-01
C     8.727003173040410e+00   7.171557851423952e-01   2.987860487047347e+00  1.66556010e-01   4.01735890e-01   2.35632450e-01
C     1.242923644143458e+00   2.167993783603187e+00   2.999674220180397e+00  2.96107450e-01  -6.41306620e-01  -1.83355870e-01
C     2.497706836005977e+00   2.881129656202927e+00   2.995923220621067e+00 -3.64035070e-01  -8.94722000e-03   1.17662300e-02
C     3.734430281771596e+00   2.162407303906280e+00   2.993966408719550e+00  3.80042470e-01  -3.40971420e-01   4.56412200e-02
C     4.984658161090080e+00   2.888558198867997e+00   3.006427587730258e+00 -7.16420000e-03  -3.51560360e-01  -1.21219300e-01
C     6.230168498770086e+00   2.169422954600889e+00   3.009443671174413e+00  1.03267740e-01  -1.44645560e-01  -2.11220250e-01
C     7.485751741923996e+00   2.884179306935189e+00   2.989737376922479e+00 -2.42791490e-01  -3.74663580e-01   2.35703660e-01
C     8.725847611613117e+00   2.161263216583716e+00   3.008481155096845e+00  1.40210930e-01  -1.95107650e-01  -3.42875380e-01
C     9.973236018155896e+00   2.873638434952100e+00   2.986808932824983e+00  1.80727340e-01   5.41709530e-01   2.55245990e-01
C     2.499981409955349e+00   4.319867450584521e+00   2.996884313528625e+00  6.12101000e-02  -1.00783100e-01  -4.02923500e-02
C     3.741609510763778e+00   5.035608182007591e+00   2.998762587541654e+00  1.31237820e-01   6.19195970e-01  -4.72498300e-02
C     4.995123115585494e+00   4.321786451412836e+00   2.991967035302911e+00 -4.80972580e-01   2.48117100e-02   1.03947780e-01
C     6.234729813906254e+00   5.031463739623803e+00   2.992604468766739e+00  2.73095460e-01   4.21049070e-01   3.12008400e-02
C     7.485075891413241e+00   4.310212629601470e+00   2.993535603963144e+00 -3.52892100e-02   7.13945580e-01   5.81885800e-02
C     8.725983585129089e+00   5.048521099318149e+00   3.010521048778491e+00  6.09702500e-01  -6.26048230e-01  -2.22609130e-01
C     9.988874656491321e+00   4.325848247652478e+00   3.000526281550385e+00 -5.74411400e-01  -3.19487960e-01  -7.64514800e-02
C     1.123628171590515e+01   5.032787347606862e+00   2.989566975034244e+00 -2.36676440e-01   6.00185430e-01   1.08347520e-01
C     3.730722651969574e+00   6.492078601681614e+00   3.000424069843509e+00  5.14296960e-01  -6.39244400e-01   2.75552500e-02
C     4.983016974263654e+00   7.210248685070252e+00   3.006946633696530e+00  1.10381190e-01  -2.62128430e-01  -1.37853240e-01
C     6.234221276884741e+00   6.480333833612397e+00   3.002427206204320e+00 -7.17011400e-02  -1.11004690e-01   6.81216000e-02
C     7.482664516828992e+00   7.192519143893523e+00   3.014822602681546e+00  1.59102570e-01   3.52756760e-01  -2.33978070e-01
C     8.737575142849204e+00   6.476286172260695e+00   2.994349951503573e+00 -3.63266790e-01   4.56385380e-01   3.01892030e-01
C     9.979430776807929e+00   7.210298165904803e+00   3.010154138431612e+00  3.31730190e-01  -4.56829420e-01  -1.76176860e-01
C     1.123276340399591e+01   6.486091337081759e+00   2.995300850551042e+00 -4.27018350e-01  -3.64877000e-01   8.10686600e-02
C     1.247057942352629e+01   7.197983668171899e+00   3.001603574128585e+00 -2.13150500e-02   7.80363350e-01  -1.17531000e-03
