32
Lattice="9.86 0 0 4.93 8.53901048131456 0 0 0 30 " PBC="1 1 1" Properties=species:S:1:pos:R:3:force:R:3 Energy="-257.19524614"
C     4.980820954300000e+00   8.441825183853663e+00  -2.659722000000002e-01 -1.56564372e+00  -7.80265890e-01  -4.70428900e-02
C     1.272598401500000e+00   6.012914155800552e-01  -2.449623000000010e-01 -2.46021340e-01  -3.71930860e-01  -5.97524650e-01
C     7.416686872800000e+00   8.429563933315325e+00  -2.323686000000009e-01  1.86028135e+00   4.04775970e-01  -1.29663900e-02
C     3.753890720400000e+00   6.259815374324512e-01  -3.036240000000028e-01 -1.68497472e+00  -7.40181560e-01  -3.27282190e-01
C     9.892256595599999e+00   8.414297378038551e+00  -3.770924999999998e-01 -2.80999800e-02   1.45870834e+00   6.41265600e-02
C     6.187073880800000e+00   6.069858254988528e-01  -3.575541000000015e-01 -4.18659500e-02   2.35578830e-01  -1.07407170e-01
C     1.235017248140000e+01   8.471036711755218e+00  -3.908066999999988e-01  7.92034770e-01  -1.10557282e+00   2.46566200e-02
C     8.668950059600000e+00   6.264327387462144e-01  -2.620991999999980e-01 -3.41942180e-01  -1.69196630e-01  -3.43825800e-01
C     1.244745873500000e+00   1.991398772770607e+00  -4.605168000000006e-01  5.47878090e-01   1.55404966e+00   1.01081735e+00
C     2.462672201900000e+00   2.737420353289222e+00  -5.350305000000013e-01  1.07460544e+00   8.53702900e-02  -4.13232090e-01
C     3.703684980799999e+00   2.052476009201218e+00  -4.288881000000018e-01  1.04150346e+00  -8.50341770e-01   1.54238060e-01
C     4.960158584800000e+00   2.749574695416349e+00  -4.064346000000008e-01 -8.69687530e-01  -1.01681410e-01  -2.36593300e-02
C     6.189474544299999e+00   2.027892283419402e+00  -3.160935000000009e-01 -8.14582790e-01   3.24557540e-01  -9.38082000e-03
C     7.400325040900000e+00   2.749684421701017e+00  -2.721062999999972e-01  1.03335711e+00  -1.12470220e-01   2.89379990e-01
C     8.634122370400000e+00   2.046795005528874e+00  -2.360310000000005e-01  1.24121930e+00  -1.42852920e-01  -4.28695360e-01
C     9.906692424399999e+00   2.736045487211836e+00  -3.623607000000000e-01 -1.67223537e+00  -2.11302800e-01  -4.60785990e-01
C     2.523735428400000e+00   4.158994391049098e+00  -7.101123000000023e-01 -1.34673642e+00   2.86469450e-01   6.14155290e-01
C     3.757306569500000e+00   4.910088399963146e+00  -6.628241999999993e-01 -1.16738151e+00  -1.57816157e+00   8.46831720e-01
C     4.940995329700000e+00   4.166372693834551e+00  -4.370049000000016e-01  1.67303725e+00   6.47765580e-01   5.45972300e-02
C     6.198850319700000e+00   4.874322413007246e+00  -2.387939999999986e-01 -6.71482860e-01  -2.02031760e-01  -6.41672320e-01
C     7.443569965600000e+00   4.168676433471950e+00  -2.428017000000011e-01 -1.28647176e+00   1.23130770e-01  -1.61284880e-01
C     8.651164147899999e+00   4.882770397635531e+00  -3.565500000000021e-01  1.10020334e+00  -5.32363900e-01   1.00702150e-01
C     9.883931748300000e+00   4.151026384199895e+00  -4.974863999999997e-01  3.99031160e-01   2.70197600e-01   3.11773810e-01
C     1.111712426540000e+01   4.852529748190925e+00  -6.496083000000006e-01  5.58314420e-01   1.16558150e+00  -2.41380480e-01
C     3.720049080500000e+00   6.313633085605446e+00  -5.295650999999992e-01 -4.42848090e-01   3.34925020e-01  -4.30850260e-01
C     4.922000088999999e+00   6.997751536599824e+00  -3.587367000000015e-01  2.27274416e+00   1.15143416e+00   7.67619660e-01
C     6.179744449799999e+00   6.287719835891894e+00  -2.234516999999983e-01  3.42567050e-01   6.14969070e-01  -2.93542890e-01
C     7.445713924000000e+00   7.012489356347675e+00  -1.918938000000026e-01 -9.63203970e-01  -4.40787580e-01  -3.46945400e-01
C     8.684287585400000e+00   6.297831390541891e+00  -3.269273999999989e-01 -1.47143862e+00   9.31926900e-02  -5.34093000e-03
C     9.882428098300000e+00   7.012199798502298e+00  -4.719684000000015e-01  8.09217440e-01  -4.41198100e-01   1.58390520e-01
C     1.111196334420000e+01   6.308665174698286e+00  -6.325608000000003e-01  6.33296120e-01  -3.14249590e-01   3.75705400e-01
C     1.235623342340000e+01   7.047617308440508e+00  -5.628183000000000e-01 -7.64673660e-01  -6.56117090e-01   1.19825520e-01
