32
Lattice="9.86 0 0 4.93 8.53901048131456 0 0 0 30 " PBC="1 1 1" Properties=species:S:1:pos:R:3:force:R:3 Energy="-257.13885823"
C     1.250935685700000e+00   2.673614561449832e-01   3.625671300000000e+00 -1.38110874e+00  -9.20977470e-01  -8.43089400e-01
C     2.454032475500000e+00   9.561581748110393e-01   3.465053400000000e+00  4.04149940e-01   2.88648560e-01   4.65090880e-01
C     3.677674892400000e+00   2.683126165223504e-01   3.490378500000000e+00  1.84128465e+00   8.44297700e-02  -5.70833290e-01
C     4.940011794699999e+00   9.645153043678152e-01   3.357557400000000e+00 -6.69213530e-01  -5.26342520e-01   8.76782640e-01
C     6.155823498200000e+00   2.154554585303120e-01   3.422249100000000e+00  1.10248080e-01   1.89888457e+00  -6.48762180e-01
C     7.372848622600000e+00   9.909934950147232e-01   3.474164100000000e+00  7.77399630e-01  -1.38858169e+00  -1.31755460e-01
C     8.632304531499999e+00   2.712079388058040e-01   3.483015900000000e+00 -1.39151442e+00  -9.85928240e-01   1.60418820e-01
C     9.857552353599999e+00   9.733510454619952e-01   3.546596400000000e+00  2.37155010e-01  -1.22154292e+00  -3.83331920e-01
C     2.452271035800000e+00   2.349287060859939e+00   3.287239800000000e+00  4.44003070e-01   1.96120693e+00  -1.66991090e-01
C     3.700851512600000e+00   3.107750662768752e+00   3.268972500000000e+00 -4.62762540e-01  -6.12009200e-01  -2.75848150e-01
C     4.946963242600000e+00   2.376075644537795e+00   3.341524800000000e+00 -3.88008120e-01   1.42706116e+00  -3.71528110e-01
C     6.170898846600000e+00   3.134477765571152e+00   3.341506800000000e+00 -5.71500280e-01  -1.21108498e+00   8.73763730e-01
C     7.386807178099999e+00   2.409374796756127e+00   3.469375800000000e+00  7.62573400e-02   6.10718300e-02  -5.31372100e-01
C     8.632556355900000e+00   3.098580363243965e+00   3.399346200000000e+00 -5.40486640e-01   6.50113300e-02  -1.24184620e-01
C     9.836132686799999e+00   2.354472631144234e+00   3.347376300000000e+00  6.85176790e-01   1.44930791e+00   2.87119770e-01
C     1.106872315230000e+01   3.055636654858788e+00   3.183577500000000e+00  4.50184940e-01   7.46732360e-01   4.88744970e-01
C     3.687200687699999e+00   4.549725592026815e+00   3.191370000000000e+00 -9.53729000e-03  -7.22747770e-01   2.57731160e-01
C     4.937133167700000e+00   5.251068337230716e+00   3.337767300000000e+00 -1.05047059e+00   5.44102510e-01   6.01945900e-02
C     6.152051900300000e+00   4.537944490047769e+00   3.412046400000000e+00  9.03273940e-01   5.83548040e-01  -3.45054550e-01
C     7.416488292400000e+00   5.244869442572759e+00   3.454956300000000e+00 -1.06014012e+00  -1.40132380e-01   9.38448600e-02
C     8.627628377200001e+00   4.527178420244480e+00   3.360878700000000e+00  3.48900560e-01  -1.46653500e-01  -3.37082080e-01
C     9.842327774099999e+00   5.249087969920194e+00   3.190428000000000e+00  2.91141040e-01  -9.01353290e-01   4.16408670e-01
C     1.107004182870000e+01   4.501130937286184e+00   3.106921800000000e+00 -9.45933500e-02   2.43216690e-01   2.87276000e-03
C     1.228639154310000e+01   5.247817023600351e+00   3.106896900000000e+00  1.04128118e+00  -3.69602370e-01   6.74033790e-01
C     4.905379925100000e+00   6.689351766868170e+00   3.449210700000000e+00  1.08156044e+00  -1.47140483e+00  -1.45609040e-01
C     6.166376360399999e+00   7.369975030092875e+00   3.587307300000000e+00 -1.53944010e-01   4.43016560e-01   2.76494300e-02
C     7.415779506300000e+00   6.658382995999935e+00   3.547109700000000e+00  7.87990400e-02   6.77695540e-01  -1.26611860e-01
C     8.667835189400000e+00   7.404427204896322e+00   3.502901100000000e+00 -1.67678216e+00  -1.50220906e+00  -4.46385960e-01
C     9.862391493699999e+00   6.664269619044638e+00   3.270248400000000e+00 -4.65705610e-01  -3.92529500e-02   4.07804480e-01
C     1.108446109270000e+01   7.351698900572427e+00   3.272250900000000e+00 -4.29575400e-02   1.09220271e+00   4.81811790e-01
C     1.230266414200000e+01   6.683501776178428e+00   3.261828300000000e+00 -9.26242000e-03  -2.23928074e+00  -7.43372320e-01
C     1.352122126390000e+01   7.342582823764188e+00   3.377705100000000e+00  1.19717172e+00   2.83296747e+00   6.17539790e-01
