32
Lattice="9.86 0 0 4.93 8.53901048131456 0 0 0 30 " PBC="1 1 1" Properties=species:S:1:pos:R:3:force:R:3 Energy="-251.85033194"
C     1.070404360800000e+00   1.179279700779981e+00   3.581601300000000e+00 -3.77564368e+00   8.09267006e+00   1.26037713e+00
C     2.254410366500000e+00   1.969061062915346e+00   3.651454200000000e+00 -8.49018180e-01  -8.30919030e-01  -9.43811460e-01
C     3.446835629000000e+00   1.259462375428858e+00   3.461964600000000e+00  1.62592524e+00  -5.19604720e-01  -5.32188060e-01
C     4.725988219000000e+00   1.870747080363762e+00   3.316152300000000e+00  8.64444980e-01   9.86017890e-01  -1.33345070e-01
C     6.007961902899999e+00   1.086495410635034e+00   3.360369300000000e+00 -2.10681847e+00   3.65952372e+00   8.05570620e-01
C     7.163927942000000e+00   1.919691151413235e+00   3.485411100000000e+00 -9.13354770e-01  -8.50978800e-01  -8.49374110e-01
C     8.374762120300000e+00   1.170257638477127e+00   3.553269600000000e+00  1.79995713e+00   1.43808006e+00   4.71070590e-01
C     9.608956955700000e+00   1.929219918597972e+00   3.581885700000000e+00  1.28066217e+00   5.85072770e-01   6.68010510e-01
C     2.174949168800000e+00   3.376791656885046e+00   3.593752800000000e+00  3.08623177e+00   1.49172240e-01  -1.05661094e+00
C     3.461325046900000e+00   3.978302354254228e+00   3.217620900000000e+00 -7.25585840e-01   3.55845554e+00   2.66726393e+00
C     4.696870998100000e+00   3.384215728766673e+00   3.201945300000000e+00  5.18302500e-02  -4.13261810e+00   1.13630023e+00
C     5.851892350600000e+00   4.154552910138031e+00   3.418689600000000e+00  2.14273351e+00  -4.02853251e+00  -9.36347850e-01
C     7.090471582899999e+00   3.366334699261134e+00   3.380955600000000e+00  1.27892910e+00  -1.03728353e+00   7.94010000e-02
C     8.368626883199999e+00   3.993891598737040e+00   3.281277000000000e+00 -5.08954060e-01   2.78885381e+00   2.43173384e+00
C     9.620881393199999e+00   3.420367422825954e+00   3.643510200000000e+00 -4.08093240e-01  -3.43071845e+00  -1.52215853e+00
C     1.087441435080000e+01   4.136596737340267e+00   3.685899300000000e+00 -3.39952203e+00  -1.96790070e-01  -1.07120131e+00
C     3.595019399800000e+00   5.459841593109903e+00   3.430481100000000e+00 -5.99063762e+00  -2.14486048e+00  -5.11486260e-01
C     4.691508982200000e+00   6.244259858933097e+00   3.408111300000000e+00  3.04203829e+00   2.98664000e-03   1.84038330e-01
C     5.905971739100000e+00   5.496029663353830e+00   3.529162500000000e+00  1.23513112e+00   3.17995981e+00  -2.07247179e+00
C     7.211182632899999e+00   6.163138490862153e+00   3.329857200000000e+00 -5.95334167e+00   3.95326230e+00   1.65130214e+00
C     8.324531484200000e+00   5.462821195426796e+00   3.327198600000000e+00  4.79325458e+00  -1.27206192e+00  -1.00894611e+00
C     9.573324542600000e+00   6.240339086881099e+00   3.321525000000000e+00 -9.88594390e-01   5.21317910e-01   1.04977399e+00
C     1.077135028510000e+01   5.553921251144666e+00   3.477503100000000e+00  4.51604180e+00  -2.26312328e+00   8.28003420e-01
C     1.215334198490000e+01   6.102104547214676e+00   3.558252300000000e+00 -2.02770787e+00   2.13821023e+00  -2.07690076e+00
C     4.662652854100000e+00   7.681767861028861e+00   3.372371700000000e+00  2.59914852e+00  -2.71810385e+00   1.76847216e+00
C     5.810937953200000e+00   8.453997970243426e+00   3.563939700000000e+00  5.31091652e+00  -8.47677212e+00  -1.86347972e+00
C     7.133753433300000e+00   7.674279831958740e+00   3.410755500000000e+00 -1.06582412e+00  -2.15873914e+00  -3.32345000e-03
C     8.350126565200000e+00   8.347852263449900e+00   3.355396800000000e+00 -2.90593700e-01   2.19720064e+00   1.12450901e+00
C     9.577208051500000e+00   7.698558288115895e+00   3.432252900000000e+00  2.05397457e+00  -4.01294737e+00  -1.17673156e+00
C     1.093594775140000e+01   8.227277507527479e+00   3.461987700000000e+00 -3.72912526e+00   1.92511242e+00  -7.68205880e-01
C     1.209836439970000e+01   7.516114131760633e+00   3.385138800000000e+00  3.30792660e+00  -7.47453720e-01   2.82840596e+00
C     1.336993489620000e+01   8.247004500318583e+00   3.614701200000000e+00 -6.25633124e+00   3.64561106e+00  -2.42764998e+00
