32
Lattice="9.86 0 0 4.93 8.53901048131456 0 0 0 30 " PBC="1 1 1" Properties=species:S:1:pos:R:3:force:R:3 Energy="-253.84770803"
C     5.038665630300000e+00   8.398049946627941e+00  -3.550514999999983e-01 -3.77203665e+00  -3.81416197e+00  -3.24879220e-01
C     1.300370964900000e+00   4.933610555962088e-01  -2.481864000000016e-01  1.90279971e+00   2.20426168e+00  -1.41588493e+00
C     7.461135062599999e+00   8.302264365079484e+00  -3.020577000000024e-01  2.03534921e+00   4.58525513e+00   1.06076492e+00
C     3.823621084100000e+00   5.500814327096087e-01  -2.877489000000004e-01 -4.38386424e+00   6.41672340e-01  -2.35497609e+00
C     9.898591793500000e+00   8.303915895096422e+00  -4.942166999999991e-01  6.61062590e-01   3.72551601e+00   5.01432450e-01
C     6.200232593100001e+00   4.575211208095528e-01  -4.792355999999991e-01  3.68673850e-01   4.66946433e+00   1.48516834e+00
C     1.237689924390000e+01   8.406126142739925e+00  -3.798975000000020e-01  7.00545890e-01  -3.56997051e+00  -2.53052157e+00
C     8.714558869999999e+00   5.443487680238609e-01  -3.076164000000006e-01 -7.02243850e-01   1.82723020e-01  -6.12129200e-02
C     1.290377953500000e+00   1.944902323685121e+00  -5.078946000000002e-01 -2.15111908e+00  -7.22559910e-01   1.01426059e+00
C     2.435446868500000e+00   2.673310145726220e+00  -7.448675999999992e-01  2.83980760e+00  -3.75471910e-01   5.48114030e-01
C     3.672852317100000e+00   2.043606453625537e+00  -5.888630999999975e-01  2.39225566e+00  -4.69305632e+00   1.17426056e+00
C     4.921458134100000e+00   2.690680542405055e+00  -5.560790999999980e-01  7.65078410e-01   4.01636310e-01   6.15228290e-01
C     6.163325380599999e+00   1.993427043929922e+00  -3.312147000000003e-01  2.85778800e-02  -1.81282036e+00  -1.64261042e+00
C     7.402995079600000e+00   2.733316931803058e+00  -3.790478999999998e-01  1.11564228e+00  -4.97226653e+00   1.10384778e+00
C     8.687090241099998e+00   1.939298683447726e+00  -2.889248999999978e-01 -5.07622800e-01   2.79320994e+00  -6.41431800e-01
C     9.928916469999999e+00   2.687288078931456e+00  -4.411157999999986e-01 -6.38815760e-01  -1.14940140e+00  -1.01233843e+00
C     2.555658065800000e+00   4.049557066495741e+00  -8.824290000000019e-01 -2.52542042e+00   3.23557224e+00  -1.21544000e-02
C     3.775905684700000e+00   4.840472580003060e+00  -8.272446000000002e-01 -1.87393294e+00  -3.29626644e+00   8.56686700e-02
C     4.932042646899999e+00   4.101310557383239e+00  -5.843039999999995e-01  3.33567293e+00   1.98279513e+00  -3.01609480e-01
C     6.228225478199999e+00   4.869544922033792e+00  -4.277367000000005e-01 -4.54418440e-01  -3.30658990e+00   6.84684820e-01
C     7.477193502300000e+00   4.076397311187001e+00  -3.570539999999980e-01 -4.55974350e-01   4.63326567e+00  -7.80722130e-01
C     8.731467488200000e+00   4.826357168729096e+00  -4.967457000000017e-01 -1.29733983e+00  -3.95729680e-01   5.13493500e-02
C     9.949471858500001e+00   4.110656333573390e+00  -7.309938000000002e-01 -2.11800330e+00  -1.57278560e+00   1.82126325e+00
C     1.113883544310000e+01   4.774090483311750e+00  -8.422068000000031e-01  2.10758556e+00   2.29779802e+00  -3.62731900e-01
C     3.709604333200000e+00   6.213334807798518e+00  -8.123445000000018e-01  4.69258100e-01   2.08886662e+00   4.98801000e-01
C     4.924803582800000e+00   6.894330286490047e+00  -5.588361000000006e-01  3.03093303e+00   2.79254821e+00   1.91304245e+00
C     6.224320178699999e+00   6.245411344496324e+00  -2.540202000000029e-01 -1.29291241e+00   3.04191940e-01  -2.03936248e+00
C     7.509021089300000e+00   6.959550650805553e+00  -2.260419000000020e-01 -2.87796797e+00  -2.20597768e+00  -2.63326970e-01
C     8.693700040000000e+00   6.266591933041441e+00  -4.245021000000015e-01 -5.14540730e-01  -2.87947763e+00  -1.83621000e-01
C     9.860705877400001e+00   6.957415129674610e+00  -6.206457000000007e-01  1.48708318e+00  -1.83204354e+00   3.85189700e-01
C     1.107336864200000e+01   6.254753790472387e+00  -7.622162999999986e-01  2.37738268e+00  -1.54837181e+00  -1.00227490e+00
C     1.233437809250000e+01   6.939714017119884e+00  -8.024214000000001e-01 -5.14957700e-02   1.60817460e+00   1.98658243e+00
