32
Lattice="9.86 0 0 4.93 8.53901048131456 0 0 0 30 " PBC="1 1 1" Properties=species:S:1:pos:R:3:force:R:3 Energy="-257.03107872"
C     9.814425946100000e+00   1.735227092128931e+00   3.312454200000000e+00 -5.89425030e-01  -4.46912750e-01  -4.73475470e-01
C     1.105513360730000e+01   2.439142470410246e+00   3.323978700000000e+00 -1.14753201e+00  -4.52823980e-01   6.02949290e-01
C     2.376552102500000e+00   1.726654608727849e+00   3.448136700000000e+00  2.35585426e+00  -1.12998315e+00  -5.26604740e-01
C     3.616860828099999e+00   2.469157263027655e+00   3.564386100000000e+00 -1.29743620e-01  -2.19235504e+00  -2.08987980e-01
C     4.828299030000000e+00   1.699376825139594e+00   3.539148000000000e+00  3.26490730e-01  -5.59712400e-02  -6.40233780e-01
C     6.068367664599999e+00   2.385149538634263e+00   3.429921000000000e+00  6.55120280e-01   6.90693150e-01  -7.47237100e-02
C     7.310134536300000e+00   1.684631918013044e+00   3.360225000000000e+00  1.24015401e+00   9.36513760e-01  -1.41098470e-01
C     8.583793873799999e+00   2.436875277737701e+00   3.266960400000000e+00 -2.06495674e+00  -7.91110490e-01   3.86517170e-01
C     1.104067219180000e+01   3.849894507848189e+00   3.420882600000000e+00  1.80960010e-01  -1.03063430e-01   2.15858550e-01
C     1.223343792010000e+01   4.591443952408113e+00   3.592352700000000e+00  1.42264031e+00  -8.28519140e-01  -2.77255990e-01
C     3.658947153500000e+00   3.869664964202638e+00   3.581133000000000e+00 -2.46950133e+00   2.85102970e-01  -3.30973260e-01
C     4.852214262800000e+00   4.543790723572902e+00   3.401822400000000e+00  1.16382907e+00   1.31062505e+00   6.11048620e-01
C     6.094388993399999e+00   3.814687142957891e+00   3.358563300000000e+00 -7.87242670e-01   1.10268722e+00  -7.63071200e-02
C     7.297784344000000e+00   4.591455138511842e+00   3.289808700000000e+00  5.07256460e-01  -1.93235382e+00  -1.03504580e-01
C     8.525064805100000e+00   3.850071009194810e+00   3.258488400000000e+00  1.21621324e+00   1.49671450e-01   4.58169880e-01
C     9.805415631600001e+00   4.513263931887111e+00   3.376613700000000e+00 -1.37382493e+00   6.87609470e-01  -3.14970250e-01
C     1.222908660350000e+01   6.001515345320696e+00   3.632197800000000e+00  1.32098540e+00   4.16385000e-03  -4.26765860e-01
C     1.349757230040000e+01   6.710553873719696e+00   3.611799000000000e+00 -8.75068620e-01  -4.48088460e-01  -6.93487690e-01
C     4.824452841200000e+00   6.007258427599229e+00   3.401047800000000e+00  1.51124876e+00  -1.54456412e+00   6.01686350e-01
C     6.068990422199999e+00   6.705056629552882e+00   3.342263700000000e+00  3.00430520e-01   2.97086010e-01  -5.08629310e-01
C     7.316386072100000e+00   6.000472902921297e+00   3.297402000000000e+00 -1.02313775e+00  -4.22624750e-01   2.68251660e-01
C     8.552250550600000e+00   6.657887989562409e+00   3.368619300000000e+00  8.86443930e-01   1.24352490e-01  -3.45684000e-01
C     9.784955638600000e+00   5.912898092289988e+00   3.425617500000000e+00  5.50009330e-01   2.32000827e+00  -4.35926000e-03
C     1.102789225140000e+01   6.695615216445355e+00   3.495330300000000e+00 -1.61850988e+00  -7.11151430e-01   5.45402280e-01
C     1.353235586610000e+01   8.114593395019311e+00   3.524509200000000e+00 -2.09119424e+00   7.06388590e-01  -5.80221700e-01
C     9.783381243099999e+00   2.969212902840184e-01   3.355591200000000e+00  1.73104856e+00   7.56546640e-01   1.47024590e-01
C     6.101949986499999e+00   8.130498839060197e+00   3.297617700000000e+00 -9.54022700e-02  -4.74275770e-01   3.89451700e-01
C     2.436975661500000e+00   2.568376380690120e-01   3.309022500000000e+00 -1.46738332e+00   1.92622574e+00   6.17389260e-01
C     8.579007238199999e+00   8.082049091327411e+00   3.360147300000000e+00 -1.98493250e-01  -1.57328040e-01   1.96747040e-01
C     4.860150034500000e+00   2.587373971206024e-01   3.446198400000000e+00 -1.63897680e-01   1.16920766e+00   4.36950860e-01
C     1.102100548510000e+01   8.114878427189133e+00   3.507349500000000e+00  4.76817360e-01  -1.60924920e-01  -6.27565960e-01
C     7.334730749999999e+00   2.848128880332736e-01   3.434325900000000e+00  2.49811100e-01  -6.14831780e-01   8.77401880e-01
