32
Lattice="9.86 0 0 4.93 8.53901048131456 0 0 0 30 " PBC="1 1 1" Properties=species:S:1:pos:R:3:force:R:3 Energy="-255.9766867"
C     4.995462659900000e+00   8.078218576616189e+00   7.542989999999999e-02  6.38857540e-01  -2.68930609e+00  -2.51173950e-01
C     1.300830983200000e+00   1.743836720225600e-01   6.779789999999999e-02  1.38540379e+00   2.80030272e+00  -9.06269990e-01
C     7.493918034300000e+00   8.058681320637948e+00   7.662690000000001e-02 -2.18782180e-01  -2.74968202e+00  -5.41022150e-01
C     3.776779625800000e+00   1.973744453993312e-01  -8.735400000000126e-02  1.86422855e+00   1.13109153e+00  -8.56396550e-01
C     1.002381581480000e+01   8.086293321096390e+00  -1.742916000000001e-01 -3.92388312e+00  -2.76909041e+00   1.11240516e+00
C     6.252770518499999e+00   2.639554156447208e-01   1.414080000000000e-02  1.53266277e+00  -2.38892838e+00  -1.09587461e+00
C     1.239913487500000e+01   8.008998710572058e+00  -1.103969999999777e-02  8.17958810e-01   1.02701160e+00  -7.36227120e-01
C     8.707206613099999e+00   1.986306192310440e-01  -8.763000000016063e-04 -1.14029182e+00   8.92759390e-01   6.87412740e-01
C     1.314278692100000e+00   1.619341277641287e+00  -1.833200999999995e-01  9.17391000e-02  -8.95987800e-02   1.93942580e+00
C     2.561060852800000e+00   2.345528700787272e+00  -2.602677000000000e-01 -1.54511070e-01  -1.28438722e+00  -9.03712970e-01
C     3.803854791400000e+00   1.610477699372942e+00  -2.984349000000002e-01 -1.48325400e-02   9.86016440e-01   1.54318907e+00
C     5.060117440700000e+00   2.348860537286463e+00  -1.894077000000003e-01 -2.34145471e+00   1.00564075e+00  -1.28128230e-01
C     6.257139040799999e+00   1.652129284692286e+00  -9.786600000001755e-03 -1.78482540e-01   5.02110120e-01   4.15412100e-02
C     7.468029174600000e+00   2.337270965312483e+00   5.758350000000000e-02  1.26958116e+00  -1.64195140e-01   1.98152880e-01
C     8.690176914099998e+00   1.621826642031596e+00   2.865570000000000e-02  1.01479358e+00   5.24407890e-01   4.78588660e-01
C     9.948003211500000e+00   2.369011064997377e+00  -1.502099999999729e-03 -6.56393300e-02  -2.45517427e+00  -2.00656432e+00
C     2.521863606000000e+00   3.747415793715194e+00  -3.968615999999976e-01  1.56880502e+00   1.70466204e+00   2.74805700e-02
C     3.742386220300000e+00   4.558795216618043e+00  -3.656496000000011e-01  2.33589630e+00  -4.55622600e+00   6.02242060e-01
C     5.019716041400000e+00   3.809178456517034e+00  -1.758771000000010e-01 -2.24119230e-01  -7.55719850e-01  -7.64628660e-01
C     6.291438332600000e+00   4.478401201459786e+00  -6.667949999999934e-02 -1.85133047e+00  -1.54877400e-02   7.33259070e-01
C     7.509206161500000e+00   3.733124308045132e+00   9.916259999999999e-02 -7.44214530e-01   1.56355515e+00  -1.28387333e+00
C     8.720029493800000e+00   4.450232372127942e+00  -5.827769999999788e-02  8.30510200e-01  -1.46019500e-02  -1.30379850e-01
C     9.946818236699999e+00   3.734381421167998e+00  -2.705246999999993e-01 -2.50344530e-01   1.85540002e+00   1.31968578e+00
C     1.118062128500000e+01   4.468736578618311e+00  -4.132071000000010e-01 -8.40946500e-01  -3.34900970e-01   2.37112630e-01
C     3.825031803600000e+00   5.919479449227343e+00  -2.711556000000002e-01 -4.34260120e-01   1.47849492e+00   5.63990320e-01
C     5.022113599000000e+00   6.638876053508899e+00   6.726600000000000e-03  2.78953220e-01  -3.80239140e-01  -8.04617010e-01
C     6.238853276400000e+00   5.904203842599462e+00  -1.382579999999933e-02  2.09865052e+00   3.28456260e-01   5.28682890e-01
C     7.534460727400001e+00   6.574570985726744e+00   5.432580000000000e-02 -2.43372224e+00   2.22086211e+00   2.25919670e-01
C     8.732450382300000e+00   5.877700205701323e+00  -3.800670000000039e-02  1.04507488e+00   2.58207900e-02  -6.55683640e-01
C     9.970654343000000e+00   6.599699585767287e+00  -2.008343999999980e-01  9.78584740e-01   1.30105340e+00  -3.10648600e-02
C     1.121132340230000e+01   5.895062575710307e+00  -3.654270000000004e-01 -4.18728020e-01   9.90863200e-02   4.29638980e-01
C     1.246675657910000e+01   6.604484420289755e+00  -2.689118999999991e-01 -2.51615724e+00   1.20080651e+00   4.26889720e-01
