32
Lattice="9.86 0 0 4.93 8.53901048131456 0 0 0 30 " PBC="1 1 1" Properties=species:S:1:pos:R:3:force:R:3 Energy="-256.68688942"
C     9.817081786399999e+00   1.103799800762859e+00   3.814484700000000e+00 -1.56497155e+00  -7.11832780e-01  -6.01834400e-01
C     1.149175654300000e+00   1.798818640195377e+00   3.697273500000000e+00  2.02679945e+00   5.02522850e-01  -4.93633110e-01
C     2.409397044300000e+00   1.103538592432276e+00   3.675621600000000e+00 -6.50488580e-01  -3.59267840e-01   6.98038590e-01
C     3.619320996700000e+00   1.838398661572273e+00   3.712375500000000e+00  7.41389700e-02   9.23172400e-02  -8.47173820e-01
C     4.833817080399999e+00   1.122254310212235e+00   3.701307300000000e+00  1.62002453e+00  -2.17857950e-01  -1.01604590e+00
C     6.100537886600000e+00   1.783900903496712e+00   3.583200600000000e+00 -1.46151290e-01   2.30139567e+00   1.01462869e+00
C     7.341593950899998e+00   1.130380288755318e+00   3.634144200000000e+00  4.98023220e-01  -1.31676391e+00  -4.53155900e-01
C     8.581805802000000e+00   1.808716975753688e+00   3.747182700000000e+00 -6.65552550e-01   1.69937873e+00   1.19185680e-01
C     1.101306892460000e+01   3.196157087630707e+00   3.487729500000000e+00  1.56389418e+00   8.60981560e-01   1.51668030e-01
C     2.439981236000000e+00   3.937331584240455e+00   3.354052500000000e+00 -2.06245156e+00   8.20486070e-01   8.20939670e-01
C     3.653413622900000e+00   3.258573753245210e+00   3.529221000000000e+00  6.07422440e-01  -8.91668650e-01   1.98581740e-01
C     4.937048273100000e+00   3.927780957188889e+00   3.580687200000000e+00 -2.29427734e+00   4.76464920e-01  -1.50618490e-01
C     6.142624852899999e+00   3.235992681591270e+00   3.649480500000000e+00  2.50706480e-01  -7.73904240e-01   4.31987610e-01
C     7.354039637300000e+00   3.988466509208782e+00   3.801513300000000e+00 -5.97587860e-01  -3.92025130e-01  -3.98557020e-01
C     8.563916409599999e+00   3.284635240180695e+00   3.757209300000000e+00  2.63440750e-01  -2.94113747e+00  -2.02385180e-01
C     9.789808779900000e+00   3.901910829478262e+00   3.566882400000000e+00  1.20622016e+00   2.42677495e+00   6.34899470e-01
C     1.227677114110000e+01   5.398357216659607e+00   3.334295400000000e+00 -9.32782510e-01  -4.34358950e-01  -2.68292980e-01
C     3.638119136000000e+00   6.101534055924507e+00   3.410315700000000e+00  8.23249080e-01  -1.23032627e+00   7.91098590e-01
C     4.887489694600000e+00   5.332922010840424e+00   3.578078700000000e+00 -3.84183230e-01   1.88064240e+00  -3.82518670e-01
C     6.097520628000000e+00   6.072499541710202e+00   3.703014900000000e+00  3.20887820e-01   1.43606170e-01   6.61058010e-01
C     7.345467550499999e+00   5.411624277242383e+00   3.848356500000000e+00  6.69742900e-02  -7.72545080e-01  -9.11973850e-01
C     8.597368037199999e+00   6.100581956255986e+00   3.758499900000000e+00  1.48384410e-01  -1.04585632e+00  -1.87684700e-02
C     9.817256456299999e+00   5.347247481772196e+00   3.607114800000000e+00  3.14753700e-02   1.47043718e+00  -7.43819000e-01
C     1.101694129170000e+01   6.149567612286498e+00   3.381282900000000e+00  5.58061240e-01  -2.61356709e+00   1.22759560e-01
C     1.347114705670000e+01   7.510351324367892e+00   3.564948300000000e+00  2.12428788e+00   6.81719090e-01  -1.14735720e-01
C     4.880718142399999e+00   8.221709389573679e+00   3.767874000000000e+00 -6.92197930e-01  -8.87352590e-01  -3.52085800e-01
C     6.111099524199999e+00   7.487081923079159e+00   3.770113500000000e+00 -2.84714150e-01   1.01030042e+00  -3.79764170e-01
C     7.354766417900000e+00   8.209499373098224e+00   3.733273800000000e+00  3.76748400e-02   8.42049700e-02   3.40842620e-01
C     8.610806970699999e+00   7.506807464238483e+00   3.712923000000000e+00 -7.81557990e-01   6.61616810e-01  -1.38973100e-01
C     9.814916333199999e+00   8.249046519284772e+00   3.589287000000000e+00 -7.31330180e-01  -1.08837420e-01  -6.22024000e-03
C     1.103039693790000e+01   7.563654901827825e+00   3.354468000000000e+00  3.03617960e-01  -2.70546320e-01   1.13053329e+00
C     1.228343349380000e+01   8.251493799688339e+00   3.460317900000000e+00 -7.37036360e-01  -1.45001010e-01   3.64334280e-01
