2
Lattice="2.496 0 0 1.248 2.16159940784596 0 0 0 30 " PBC="1 1 1" Properties=species:S:1:pos:R:3:force:R:3 Energy="-16.11009855"
C     0.000000000000000e+00   0.000000000000000e+00   3.000000000000000e+00 -0.00000000e+00  -0.00000000e+00   0.00000000e+00
C     1.248000000000000e+00   7.205331359486529e-01   3.000000000000000e+00  0.00000000e+00   0.00000000e+00  -0.00000000e+00
