32
Lattice="10.036 0 0 5.018 8.69143095238062 0 0 0 30 " PBC="1 1 1" Properties=species:S:1:pos:R:3:force:R:3 Energy="-257.43282971"
C    -8.833671535106554e-04  -6.816994222870841e-04   3.000771500845385e+00  4.10438100e-02   3.37384600e-02  -8.62006000e-03
C     1.253994372710030e+00   7.234973509143159e-01   3.000682792504077e+00  1.55718400e-02   5.74867600e-02  -4.72865000e-03
C     2.508762747762777e+00   1.244224485850180e-03   2.999964436142752e+00 -3.08166000e-03  -8.76853900e-02  -5.99423000e-03
C     3.763879913075775e+00   7.245381820401644e-01   2.998804268482980e+00 -3.65279000e-02  -1.56533400e-02   9.27540000e-03
C     5.017569602017739e+00   8.035540506770192e-04   2.999852732404629e+00  2.16323100e-02  -7.74634300e-02   9.75035000e-03
C     6.271839339258663e+00   7.240803108110238e-01   3.001080698770838e+00  2.60702000e-02   3.15901300e-02  -1.72764500e-02
C     7.526164760796645e+00   6.513240309653134e-04   2.999054614239524e+00  4.40144600e-02  -3.82117200e-02   3.11615200e-02
C     8.781923654366940e+00   7.247912065622036e-01   3.000396186749534e+00 -6.81188800e-02  -3.87324100e-02  -3.99898000e-03
C     1.255179898993644e+00   2.173949280836111e+00   2.999822760368431e+00 -3.30706900e-02  -9.88221200e-02  -1.25109000e-03
C     2.508410717074824e+00   2.896423059020968e+00   2.999282720581223e+00  4.44862200e-02   4.71412800e-02   1.48382000e-03
C     3.763557763874292e+00   2.171866629122660e+00   2.998804362659231e+00 -2.87787300e-02   4.24626800e-02  -1.01570000e-04
C     5.017028097189596e+00   2.896409216039871e+00   2.998893347186850e+00  5.04195900e-02   9.28340000e-03   1.93031700e-02
C     6.272854184836149e+00   2.173126870788154e+00   3.001082168192983e+00 -4.46886000e-02  -1.11440700e-02  -1.43635100e-02
C     7.526440395712294e+00   2.897432455030809e+00   3.000387617849737e+00  4.12863200e-02  -6.36385000e-03   3.74109000e-03
C     8.781045898530476e+00   2.171790251458288e+00   3.000514092273690e+00  3.07799800e-02   6.94609900e-02  -5.49291000e-03
C     1.003689158862560e+01   2.896653068916313e+00   2.999319507439768e+00 -4.91115400e-02   1.27517900e-02   1.11296400e-02
C     2.508477651080860e+00   4.346416447336392e+00   2.999811889127347e+00  3.01991900e-02  -7.17999800e-02  -1.01391700e-02
C     3.762416035576743e+00   5.069047972600852e+00   2.999667034270235e+00  4.46481600e-02   4.49706900e-02   1.17169900e-02
C     5.017583971114059e+00   4.344654543498762e+00   3.000535590510987e+00 -2.03690700e-02   3.14535400e-02  -1.89916400e-02
C     6.271582133318098e+00   5.070080252490542e+00   2.999679371933171e+00  3.53803000e-02  -7.75429000e-03   1.38990900e-02
C     7.527497198921616e+00   4.346517348031839e+00   2.999901829750898e+00 -5.04645600e-02  -1.63586400e-02   7.54250000e-04
C     8.781182303085435e+00   5.070994997757303e+00   3.000055329977679e+00  5.37697500e-02  -7.94711700e-02  -1.18877600e-02
C     1.003710386831886e+01   4.344476196170740e+00   2.999555631529195e+00 -4.39348000e-02   7.43033600e-02  -3.30900000e-03
C     1.129166005397466e+01   5.070383953793767e+00   2.998908291828012e+00 -6.14740200e-02  -4.50426200e-02   8.42510000e-03
C     3.762732486465111e+00   6.518747262552457e+00   3.000660028670704e+00  5.84644800e-02  -3.57074500e-02  -9.35491000e-03
C     5.017786322720649e+00   7.243492483490484e+00   2.999430283087122e+00 -1.15092500e-02  -4.21759600e-02   2.24580700e-02
C     6.272807645511183e+00   6.519174474702863e+00   3.000817424639159e+00 -5.18932700e-02  -3.29357000e-02  -2.20802300e-02
C     7.526438127646039e+00   7.241871634570317e+00   2.999325873343337e+00  2.62673800e-02   8.63707700e-02   8.14858000e-03
C     8.780773788632251e+00   6.518071540027314e+00   2.998768804176160e+00  5.12354700e-02   3.66731000e-02   2.04616100e-02
C     1.003673275011049e+01   7.242280332525950e+00   3.001190403892451e+00 -3.18437100e-02   2.58559000e-02  -3.13435000e-02
C     1.129145827777363e+01   6.517669188544124e+00   2.999281973087780e+00 -2.49031100e-02   5.42733600e-02   2.11071400e-02
C     1.254597862786477e+01   7.242375345659168e+00   3.001141570056887e+00 -5.54996700e-02   4.75059200e-02  -2.38821500e-02
