26
Lattice="8.88768389401873 1.33226762955019e-15 0 4.44384194700937 7.69696003302603 0 0 0 30 " PBC="1 1 1" Properties=species:S:1:pos:R:3:force:R:3 Energy="-206.78914293"
C     1.263586006941255e+01   6.790803698992926e+00  -1.813409999999749e-02 -1.15255154e+00   3.26244231e+00  -1.85674090e-01
C     8.966326209668290e+00   6.580869268113877e+00  -5.761199999998468e-03 -5.63734455e+00   8.55925400e-02   2.68906770e-01
C     1.021622323632593e+01   6.197393634587225e+00   8.550300000000000e-02  4.93091001e+00  -8.42876000e-03  -7.93616270e-01
C     1.057719473910089e+01   4.841795181994788e+00   1.738230000000000e-02 -1.29594468e+00  -1.07063634e+00   2.41503050e-01
C     6.473631415223180e+00   6.071561345959177e+00  -1.573095000000002e-01  1.84879658e+00  -4.50598534e+00   1.75477198e+00
C     7.944656016752807e+00   5.626377721449610e+00   5.243430000000000e-02 -3.68041070e+00  -2.11701842e+00  -1.73373154e+00
C     8.234664829518694e+00   4.158371094278245e+00  -2.725500000000380e-03 -2.35947070e+00   2.79992664e+00   6.55327910e-01
C     9.577711982384830e+00   3.801599601758077e+00  -3.450929999999985e-02  1.19897740e-01   1.37738520e-01   3.98035800e-02
C     9.868112386558119e+00   2.418579574514759e+00  -7.665569999999988e-02  3.24998034e+00   2.27697490e+00   5.35499990e-01
C     4.059753756851265e+00   5.466456597453495e+00  -7.454099999996799e-03  2.87868280e-01  -3.09995684e+00  -3.41570090e-01
C     5.403324483106561e+00   5.003773549467721e+00  -6.983460000000008e-02  1.81138028e+00   4.14404162e+00   2.24743240e-01
C     5.767519815489983e+00   3.695952128991101e+00   7.002270000000001e-02  5.12159920e-01  -3.66925004e+00  -1.30121858e+00
C     7.126839250961121e+00   3.222922211576199e+00   4.614990000000000e-02  1.43944538e+00   1.14798230e-01  -5.49798530e-01
C     7.510920864861231e+00   1.816541371854629e+00  -4.021769999999947e-02 -2.49535597e+00   2.49535228e+00   7.69857520e-01
C     8.860299603761757e+00   1.507725326983774e+00  -4.570650000000143e-02 -8.16445650e-01  -2.73679860e+00  -2.94144750e-01
C     3.010078338669000e+00   4.490206745389221e+00   7.686599999999999e-03  2.52110251e+00  -2.60839215e+00   1.39915550e-01
C     3.382329112111757e+00   3.011196313250167e+00   9.892800000000000e-03  3.24262970e-01   3.45765753e+00  -7.60447770e-01
C     4.759207144834683e+00   2.664190107859261e+00  -8.672759999999968e-02 -5.43328850e-01  -1.75887854e+00   1.70172350e+00
C     5.036818616225650e+00   1.206039745884712e+00  -3.479370000000159e-02  3.60465059e+00   2.69245494e+00  -2.80802330e-01
C     6.505125141866991e+00   8.183834315481662e-01   1.954410000000000e-02 -3.03414354e+00   2.64421320e+00  -7.08978230e-01
C     1.124245023367914e+01   7.198814162311205e+00  -1.965000000001993e-03  1.44185242e+00  -2.89449122e+00   6.79038110e-01
C     2.376999281542912e+00   2.068274221146194e+00  -1.164629999999889e-02 -6.89912160e-01  -3.09546337e+00   3.67763300e-02
C     2.731750116542887e+00   6.099977059967531e-01   1.574940000000000e-02  6.78705070e-01   4.01392406e+00  -9.56550480e-01
C     4.070982897647346e+00   2.098337546418570e-01  -8.218619999999888e-02  8.26337990e-01   1.73813418e+00   8.88109060e-01
C     2.678868353458284e-01   1.378640226077447e-01  -5.775180000000191e-02  3.13768425e+00  -2.07793409e+00  -1.29649400e-02
C     6.183441382496666e+00   7.407011081433082e+00  -8.239740000000140e-02 -5.03012600e+00  -2.20017230e-01  -1.64790000e-02
