32
Lattice="9.86 0 0 4.93 8.53901048131456 0 0 0 30 " PBC="1 1 1" Properties=species:S:1:pos:R:3:force:R:3 Energy="-256.8908188"
C     9.844465520700000e+00   4.982709866222088e-01   1.598010000000000e-02 -3.65104450e-01   1.95595600e-02  -5.63503250e-01
C     1.209040742900000e+00   1.209481924677426e+00   6.238500000000000e-03  4.28776680e-01  -8.01218820e-01   7.14814970e-01
C     2.439194260100000e+00   4.725378246396808e-01  -1.154760000000010e-02  2.58508580e-01   1.84659753e+00   9.07478000e-03
C     3.674510276099999e+00   1.236479372551623e+00   3.066180000000000e-02 -1.86812800e-01  -1.79615943e+00   4.57324860e-01
C     4.909902016900000e+00   5.180346971583784e-01   1.621800000000000e-02 -4.23353610e-01  -1.17809880e+00  -8.02333800e-02
C     6.148281879999999e+00   1.202454746002910e+00  -2.971800000000968e-03 -6.73615660e-01  -9.56625200e-01  -3.58914970e-01
C     7.360994585499999e+00   4.931052268422280e-01  -5.579189999999912e-02  1.06513095e+00  -4.77765690e-01   6.02058800e-01
C     8.606030885299999e+00   1.180050858816430e+00  -2.753339999999938e-02 -8.07023800e-02   1.44359518e+00   3.00239630e-01
C     1.107366882970000e+01   2.605966044114233e+00   1.708107000000000e-01  2.63372720e-01   8.28581370e-01   1.40876930e-01
C     2.452177760200000e+00   3.308985765586301e+00   2.982315000000000e-01 -3.73210250e-01   2.03111001e+00  -5.39324110e-01
C     3.653581686600000e+00   2.624699693816200e+00   2.191368000000000e-01  2.82196696e+00   9.37856540e-01  -9.17612480e-01
C     4.971569661399999e+00   3.366155123870739e+00   9.684660000000000e-02 -2.64410451e+00  -1.60022394e+00   2.70415700e-02
C     6.155332765999999e+00   2.588793496308219e+00  -5.927430000000200e-02 -8.56674260e-01   1.51529606e+00   6.37371560e-01
C     7.365771903399999e+00   3.275974975751879e+00  -8.184390000000263e-02  1.49404829e+00   1.69007151e+00   1.68608160e-01
C     8.606505742900000e+00   2.629013858081010e+00   3.082950000000000e-02  8.17427520e-01  -1.71832453e+00  -5.11328350e-01
C     9.854007289199998e+00   3.324190327646989e+00   1.477230000000000e-01 -1.15629070e+00   8.42925500e-01  -3.25435320e-01
C     1.234934029740000e+01   4.782732901208663e+00   2.770917000000000e-01 -1.53597703e+00  -8.10728260e-01   1.54302940e-01
C     3.689475143200000e+00   5.521550460145720e+00   1.627647000000000e-01  1.29078327e+00  -1.11494320e+00   6.06723300e-02
C     4.960027348200000e+00   4.775456981158864e+00   7.256430000000000e-02 -1.16529399e+00   1.07360920e-01   2.21371270e-01
C     6.193161888500000e+00   5.443512357978896e+00  -3.908699999999854e-02 -3.66781740e-01   1.17023926e+00  -2.92927240e-01
C     7.414811500799999e+00   4.699289690798103e+00  -1.102290000000004e-01 -1.69040382e+00   8.32383560e-01   1.18224160e-01
C     8.605760622699998e+00   5.440843917203895e+00  -9.121860000000126e-02  7.40483490e-01   9.73789670e-01   5.04495690e-01
C     9.813943397699999e+00   4.772990146421296e+00   1.242921000000000e-01  2.22578708e+00  -1.16314368e+00   2.22991810e-01
C     1.107511341830000e+01   5.479425045134841e+00   2.613954000000000e-01  2.43648560e-01   1.15733040e-01  -5.35310980e-01
C     1.355795237680000e+01   6.954269870554406e+00   8.524890000000000e-02 -1.04647943e+00  -2.30745076e+00   2.48625900e-02
C     4.888328238300000e+00   7.629101976871575e+00  -3.018900000000713e-03  2.72696851e+00  -3.09740780e-01   3.58068700e-02
C     6.139797645800000e+00   6.890648948291909e+00  -4.750169999999798e-02  1.03031450e-01  -1.30964600e-01   4.55502700e-02
C     7.358032592199999e+00   7.617540583632180e+00  -6.192720000000307e-02  1.34271345e+00  -1.41097379e+00  -4.71123540e-01
C     8.637681928999999e+00   6.882412218782901e+00  -1.047185999999982e-01 -2.00275424e+00   6.87836900e-02   5.99801680e-01
C     9.836639244299999e+00   7.596672864431050e+00   2.013990000000000e-02  1.02746625e+00   1.06026081e+00   1.26850280e-01
C     1.109926267820000e+01   6.908531685599544e+00   1.807128000000000e-01 -7.89979260e-01  -5.29677640e-01  -7.74772270e-01
C     1.233178969460000e+01   7.613133771103661e+00   6.648480000000000e-02 -1.49257562e+00   8.21894920e-01   1.98144740e-01
