32
Lattice="9.86 0 0 4.93 8.53901048131456 0 0 0 30 " PBC="1 1 1" Properties=species:S:1:pos:R:3:force:R:3 Energy="-253.50855093"
C     9.827919602600000e+00   1.908125574058704e-01   4.257504300000000e+00 -3.07898503e+00  -1.61677265e+00   7.11469200e-02
C     1.127674050900000e+00   8.816624811418423e-01   4.298422800000000e+00  3.48682060e+00  -2.53640820e-01   9.00498760e-01
C     2.412435748400000e+00   2.160767569328368e-01   4.241039100000000e+00 -1.71820416e+00  -2.35803474e+00  -1.21782037e+00
C     3.572876748500000e+00   9.649200534645671e-01   4.211677500000000e+00  1.75981505e+00  -2.70181630e-01   6.13144900e-02
C     4.801289827800000e+00   2.233624114545824e-01   4.046232000000000e+00  2.90472707e+00   1.29474625e+00  -1.61899900e-02
C     6.134587572499999e+00   8.297082381179592e-01   4.112414700000000e+00 -4.30805690e-01   4.08548218e+00   5.62371000e-02
C     7.397943407200000e+00   2.488501622759152e-01   4.269694200000000e+00 -2.06258315e+00  -3.89079438e+00  -7.14124710e-01
C     8.597943811899999e+00   9.393407644508888e-01   4.364006400000000e+00  5.47585360e-01   6.55087980e-01  -8.84570500e-02
C     1.098634689490000e+01   2.230762777524081e+00   4.562114700000000e+00  1.87108937e+00   4.06051780e+00  -1.18385500e-01
C     2.390876907700000e+00   3.043128541527474e+00   4.602756600000000e+00 -1.03031993e+00   1.53545564e+00  -9.36920360e-01
C     3.580552117600000e+00   2.390737808652794e+00   4.343259300000000e+00  3.44739809e+00  -1.68415163e+00  -9.22991640e-01
C     4.982667190000000e+00   3.007713422512198e+00   4.042699800000000e+00 -3.61592477e+00  -3.35840566e+00   1.08801153e+00
C     6.247183250900000e+00   2.314434321074876e+00   4.051740600000000e+00 -4.66566052e+00  -2.60164847e+00   8.35738910e-01
C     7.340339463100000e+00   3.053294745844543e+00   4.321985400000000e+00  2.64552719e+00   2.77656410e+00  -1.00268443e+00
C     8.597315877800000e+00   2.401133712351775e+00   4.432956900000000e+00 -1.95143992e+00  -3.39929543e+00  -4.09478500e-02
C     9.799474389999999e+00   3.003352379079852e+00   4.522768500000000e+00  1.35961063e+00   3.21489857e+00  -5.22973950e-01
C     1.227971770350000e+01   4.556068881351988e+00   4.520265300000000e+00 -1.57519799e+00  -2.25987915e+00  -7.99967970e-01
C     3.652255960300000e+00   5.177336201878640e+00   4.199203500000000e+00 -6.55652070e-01  -2.56605976e+00   1.12069150e-01
C     4.886427427500000e+00   4.314392341780321e+00   3.968987400000000e+00 -7.01611880e-01   7.16453428e+00   9.35045640e-01
C     6.074514980200000e+00   5.126794225798045e+00   3.968768700000000e+00  2.57044390e-01   5.11122510e-01  -4.40755970e-01
C     7.302366433900000e+00   4.538373831494703e+00   4.172101800000000e+00  2.25495896e+00  -2.34883753e+00  -8.57581900e-02
C     8.596310256399999e+00   5.232320171210933e+00   4.134430200000001e+00 -6.88708060e-01  -1.68931267e+00   2.03545750e-01
C     9.783349592499999e+00   4.472087371720768e+00   4.303670100000001e+00  7.66472040e-01  -1.80267740e-01   1.25823290e+00
C     1.097396278420000e+01   5.266421392683651e+00   4.386030300000000e+00  2.13378427e+00  -3.10174911e+00  -7.23968320e-01
C     1.343939253230000e+01   6.581356168844256e+00   4.168516200000000e+00  3.69265908e+00   7.50291710e-01   1.49302500e-01
C     4.870567666800000e+00   7.299486523261733e+00   4.150954799999999e+00 -2.62573400e-02  -6.00586550e-01  -1.15106620e+00
C     6.102327328699999e+00   6.537730705862356e+00   3.911381100000000e+00  8.98806700e-02   2.79168461e+00   1.57644355e+00
C     7.392560142999999e+00   7.291063301763842e+00   4.004784000000000e+00 -1.05829565e+00   8.07372090e-01   4.09581630e-01
C     8.697546327400000e+00   6.638529540463621e+00   4.001980500000000e+00 -5.13926408e+00  -9.04020750e-01  -2.45949380e-01
C     9.833474332200000e+00   7.377617615252685e+00   3.944051700000000e+00  4.93483340e-01  -6.52129280e-01   4.89259080e-01
C     1.103073562890000e+01   6.601846207611856e+00   4.042611900000000e+00  2.06548020e-01   2.63446175e+00   1.19257947e+00
C     1.225644046200000e+01   7.299273389560152e+00   4.201242600000000e+00  4.81506090e-01   1.45354849e+00  -3.10045480e-01
