32
Lattice="9.86 0 0 4.93 8.53901048131456 0 0 0 30 " PBC="1 1 1" Properties=species:S:1:pos:R:3:force:R:3 Energy="-257.39858437"
C     4.993506485200000e+00   6.862466456543298e+00   6.202260000000000e-02 -6.64915300e-01   1.23360592e+00  -1.64979860e-01
C     6.192233717399999e+00   7.596449227746579e+00   1.170669000000000e-01  1.61782876e+00   4.70586150e-01  -2.53436630e-01
C     7.456920947899999e+00   6.912731939464551e+00   1.439208000000000e-01  3.19594050e-01  -1.71245550e-01   1.14886900e-02
C     8.716708202100000e+00   7.616722802598510e+00   8.542440000000000e-02 -8.20845260e-01   5.51922980e-01   4.76212810e-01
C     9.954820021100000e+00   6.882559687493890e+00   4.754190000000000e-02 -8.01056730e-01   1.86114930e+00  -2.62950510e-01
C     1.118198556390000e+01   7.636461066883449e+00  -4.429380000000194e-02 -4.67868800e-01  -1.26730417e+00  -7.18417600e-02
C     1.240051374670000e+01   6.936265281567222e+00  -1.298759999999994e-01  1.01451800e-01  -1.64283616e+00   6.62602780e-01
C     1.363453267970000e+01   7.608779644269804e+00  -3.607859999999974e-02 -1.69842970e-01  -1.68374450e-01  -1.81364720e-01
C     1.269963563000000e+00   4.942112848697024e-01   4.693890000000000e-02  7.13868370e-01  -1.73305450e-01   1.29068330e-01
C     2.498510689000000e+00   1.238560756356123e+00   9.545700000000000e-02  1.38559134e+00  -1.85420275e+00   1.27796830e-01
C     3.771682696000000e+00   5.419636516165871e-01   1.374792000000000e-01 -9.35291860e-01  -2.35704507e+00  -2.20820110e-01
C     5.010837801599999e+00   1.178851042453885e+00   1.758765000000000e-01  1.91739360e-01   2.03717224e+00  -7.24379560e-01
C     6.257161423000000e+00   4.928195969416720e-01   1.868520000000000e-02 -1.28285188e+00   4.32504830e-01   6.97216330e-01
C     7.466549829499999e+00   1.203686669044860e+00   3.966540000000000e-02  1.43120470e-01   3.38572570e-01  -2.02699470e-01
C     8.674159590599999e+00   4.808788154666496e-01  -1.165170000000160e-02  1.50167591e+00   7.33344570e-01  -7.62487000e-02
C     9.925299871299998e+00   1.207190737385433e+00  -1.150410000000335e-02 -1.07898213e+00   3.56731200e-02   6.82005520e-01
C     2.546792496100000e+00   2.626292304660825e+00   6.851580000000000e-02 -7.05074120e-01   9.23080580e-01  -1.22754860e-01
C     3.780020361300000e+00   3.354611662553352e+00   1.050477000000000e-01 -6.96270550e-01  -1.14035645e+00  -2.44645640e-01
C     5.003214887700000e+00   2.628837442124493e+00   1.696488000000000e-01  3.55956630e-01  -2.48286040e-01   3.47471060e-01
C     6.235609977299999e+00   3.339865986915858e+00   2.180739000000000e-01 -4.67522000e-03   2.21806080e-01  -6.70529610e-01
C     7.474800381699999e+00   2.630008823582140e+00   1.112661000000000e-01 -7.49824000e-01  -2.32302580e-01   3.94676610e-01
C     8.685419710600000e+00   3.338999191962034e+00   9.986430000000000e-02  5.81856590e-01   3.22900830e-01  -7.21970900e-02
C     9.933006940300000e+00   2.633532190086397e+00   7.019040000000000e-02 -4.73741480e-01  -4.62802610e-01  -6.73209570e-01
C     1.116257896400000e+01   3.315844640364256e+00   8.058600000000001e-03  1.85800100e-01   1.86619236e+00   3.06723700e-02
C     3.728524391399999e+00   4.754150100648748e+00  -1.159499999999980e-03  1.35788777e+00   6.78269350e-01   3.87833260e-01
C     4.972673833500000e+00   5.461915462585181e+00   8.796750000000000e-02  2.21926690e-01  -4.20852340e-01   8.94300900e-02
C     6.216386477600000e+00   4.776112777163728e+00   2.006403000000000e-01 -1.54158010e-01  -8.75695950e-01  -5.15169500e-02
C     7.454431248600000e+00   5.473966653465711e+00   1.971420000000000e-01 -7.06276050e-01   9.52289070e-01  -4.15449580e-01
C     8.653209013300000e+00   4.762418851447057e+00   1.052160000000000e-01  1.86595157e+00   1.72831920e-01   3.36282600e-01
C     9.915065092700001e+00   5.488373074216833e+00   4.304700000000000e-02 -7.41081700e-02  -1.43161204e+00  -4.25625760e-01
C     1.114829443690000e+01   4.771052815723595e+00  -7.587090000000174e-02  6.65915700e-02  -6.08451580e-01   7.39255830e-01
C     1.238700525090000e+01   5.487214842835326e+00  -8.648099999999914e-02 -8.25058440e-01   2.22771330e-01  -2.77362720e-01
