32
Lattice="9.86 0 0 4.93 8.53901048131456 0 0 0 30 " PBC="1 1 1" Properties=species:S:1:pos:R:3:force:R:3 Energy="-257.58583339"
C     1.252666559400000e+00   8.349104594726896e-01   3.389990400000000e+00  8.18300150e-01   1.14097370e+00   1.10654520e-01
C     2.508017454500000e+00   1.577347961122534e+00   3.390432000000000e+00 -1.29424486e+00  -8.61556610e-01   5.31015500e-02
C     3.732029572100000e+00   8.533601016860920e-01   3.361581900000000e+00 -8.68551700e-02   1.33464859e+00   9.96632000e-03
C     4.945845956699999e+00   1.633324248862706e+00   3.360460200000000e+00  3.13875070e-01  -3.35769335e+00   2.25521000e-02
C     6.176452343699999e+00   8.802415897979704e-01   3.335179800000000e+00 -2.91582600e-01  -7.65362700e-01   1.51984760e-01
C     7.407823127200000e+00   1.568620153120821e+00   3.385956300000000e+00 -1.12240600e-01   1.53658840e-01  -1.65139740e-01
C     8.640025059399999e+00   8.994064595291775e-01   3.413401500000000e+00 -5.76270100e-02  -1.62987281e+00  -2.86487350e-01
C     9.881319686399999e+00   1.566608533031942e+00   3.385536900000000e+00  3.33834510e-01  -2.87978810e-01   5.41920640e-01
C     2.476019831800000e+00   2.998938735342950e+00   3.421607100000000e+00  2.25403900e-02  -1.06050070e-01  -8.47716700e-02
C     3.703134053299999e+00   3.717510215041823e+00   3.398638800000000e+00  3.65718140e-01  -7.34759800e-02   2.49667150e-01
C     4.943774222800000e+00   3.007079657154373e+00   3.404043600000000e+00  1.69002100e-01   1.46407906e+00  -2.79601530e-01
C     6.195935654399999e+00   3.698976890525717e+00   3.382226400000000e+00 -5.56709850e-01   9.06900390e-01   1.91815700e-02
C     7.420783949300001e+00   2.967789364403063e+00   3.371266500000000e+00 -4.69855360e-01   1.72059793e+00   2.91002770e-01
C     8.642638698900001e+00   3.700076458905226e+00   3.406485600000000e+00  1.72062470e-01  -1.09823840e-01  -1.05575510e-01
C     9.872156739099999e+00   2.975643717022777e+00   3.438002400000000e+00 -6.34200600e-02   7.55654990e-01  -3.17325500e-01
C     1.108630141240000e+01   3.694725487987935e+00   3.438423900000000e+00  8.03292590e-01   1.97102040e-01  -3.84852150e-01
C     3.704784765200000e+00   5.132678970260442e+00   3.399443400000000e+00  1.12158064e+00  -2.77953890e-01  -1.51550880e-01
C     4.955881464699999e+00   5.865836275320621e+00   3.363439200000000e+00 -9.29841650e-01  -1.02756700e-01   3.17537020e-01
C     6.178853303000000e+00   5.150494078605075e+00   3.379207500000000e+00  6.10634840e-01  -8.99918570e-01  -2.79171920e-01
C     7.430005366400000e+00   5.850768593597928e+00   3.337947600000000e+00 -6.68141540e-01  -7.51720740e-01   3.27878790e-01
C     8.650931451900000e+00   5.131617315087464e+00   3.373125600000000e+00  1.05809180e-01  -4.48660480e-01  -2.39508020e-01
C     9.880182039599999e+00   5.844088354919214e+00   3.331067700000000e+00  9.40217000e-03  -2.08934140e-01   3.98732750e-01
C     1.110945979160000e+01   5.120935439927507e+00   3.354120900000000e+00 -9.45289130e-01  -6.69319200e-01   4.45741850e-01
C     1.233289549360000e+01   5.790533901331379e+00   3.382495500000000e+00  5.13415770e-01   2.35651084e+00  -3.98846630e-01
C     4.949548337400000e+00   7.302699069784519e+00   3.379904100000000e+00 -6.81246890e-01  -1.13196254e+00   1.97911190e-01
C     6.194758518300000e+00   7.954417099413584e+00   3.406230300000000e+00 -3.05686640e-01   1.01912257e+00  -5.04326150e-01
C     7.417071116999999e+00   7.249442456882226e+00   3.344065500000000e+00  7.57058390e-01   9.32614290e-01   1.95133430e-01
C     8.656362882200000e+00   7.982410793640483e+00   3.343245900000000e+00 -4.65228830e-01  -4.47089230e-01   1.17639530e-01
C     9.875668328800000e+00   7.266275920582078e+00   3.358005900000000e+00  1.82837460e-01  -2.39702820e-01  -6.20101470e-01
C     1.110416817610000e+01   7.963884300332761e+00   3.311972100000000e+00  6.53559790e-01   7.60072090e-01   3.06583270e-01
C     1.235205441030000e+01   7.236524897998396e+00   3.329867100000000e+00 -7.84374840e-01   9.03661560e-01   4.16932840e-01
C     1.355506038950000e+01   8.015568369065056e+00   3.399197400000000e+00  7.59421370e-01  -1.27576441e+00  -3.56863530e-01
