32
Lattice="9.86 0 0 4.93 8.53901048131456 0 0 0 30 " PBC="1 1 1" Properties=species:S:1:pos:R:3:force:R:3 Energy="-256.95563507"
C     4.962275280300000e+00   8.217756083891754e+00  -1.403096999999995e-01  2.91740840e-01   2.65578090e+00  -3.07458270e-01
C     1.291211517900000e+00   4.303617732966552e-01  -1.752719999999997e-01 -1.15643147e+00  -9.28563320e-01   9.88540600e-02
C     7.442541321099999e+00   8.243056488823155e+00  -1.498787999999998e-01 -3.20670110e-01   4.39784810e-01  -3.53368190e-01
C     3.717490607700000e+00   4.223912901344136e-01  -2.604609000000018e-01  8.31186870e-01   2.50782280e-01   5.22767100e-01
C     9.909508834800000e+00   8.237689806126580e+00  -2.396613000000016e-01 -1.80651186e+00   4.97596810e-01  -1.18961100e-02
C     6.171540140999999e+00   4.418261633769984e-01  -2.081157000000005e-01  4.37380790e-01  -1.51032809e+00  -6.93611010e-01
C     1.233748073870000e+01   8.259945626871339e+00  -2.968571999999980e-01  8.05301600e-01   1.24857290e-01   8.85466160e-01
C     8.665017595799998e+00   3.917291551325152e-01  -1.604223000000005e-01 -7.00941020e-01   2.13768640e+00  -2.89071950e-01
C     1.257672925100000e+00   1.836156658980644e+00  -3.074900999999990e-01  8.97423600e-02   7.99549470e-01  -3.43444120e-01
C     2.477327119900000e+00   2.595731015372695e+00  -4.217772000000011e-01 -1.98326010e-01  -2.29368668e+00   6.00081630e-01
C     3.671854830200000e+00   1.853136737490438e+00  -3.055905000000010e-01  2.40893102e+00   6.13981980e-01  -1.61274210e-01
C     4.969223770199999e+00   2.586476008863947e+00  -2.393907000000013e-01 -3.14785452e+00  -2.95777360e-01  -6.58572290e-01
C     6.130598906700000e+00   1.835535019017700e+00  -2.072018999999976e-01  2.02878271e+00   1.45913713e+00   5.61374720e-01
C     7.369370852699999e+00   2.570042085464454e+00  -1.539986999999989e-01  1.89013546e+00  -3.20711600e-02  -2.72276150e-01
C     8.650271324899999e+00   1.888214053251126e+00  -1.432670999999992e-01 -8.40476030e-01  -2.50066386e+00  -6.51650670e-01
C     9.881276548899999e+00   2.546033120478048e+00  -3.216974999999991e-01 -4.05947460e-01   1.56615827e+00   9.00626280e-01
C     2.500686889600000e+00   3.986063717049814e+00  -4.832462999999976e-01 -7.87139730e-01   6.04319160e-01   1.74450870e-01
C     3.678091526699999e+00   4.714553940542045e+00  -4.051986000000021e-01  2.82951627e+00   3.95437800e-02   4.61935000e-02
C     4.953479026400000e+00   4.020417522452531e+00  -2.948883000000002e-01 -6.90130980e-01  -7.07888420e-01   5.51736710e-01
C     6.173031515300000e+00   4.712443097151390e+00  -1.309497000000022e-01  1.20123846e+00   5.79110850e-01  -1.04606943e+00
C     7.442824007300000e+00   3.993651908712867e+00  -1.807941000000000e-01 -1.62707402e+00   2.63523880e-01   6.10930910e-01
C     8.684476650899999e+00   4.732898296756230e+00  -2.053125000000016e-01 -1.44211668e+00  -2.71087152e+00  -1.86505280e-01
C     9.878337874500000e+00   4.010704824982056e+00  -3.210966000000006e-01  1.84448803e+00  -1.29780496e+00  -4.40726530e-01
C     1.115016699880000e+01   4.695518009869087e+00  -4.427000999999997e-01 -2.31388360e+00   3.32631320e-01   8.89692300e-02
C     3.713327814299999e+00   6.136348882503039e+00  -3.700730999999990e-01 -3.54352600e-02  -3.30036750e-01   3.17075760e-01
C     4.942265987899999e+00   6.844614203503076e+00  -2.117108999999999e-01  5.67240600e-01  -1.55860810e+00  -6.27071100e-02
C     6.184893637600000e+00   6.151156636746721e+00  -1.508883000000019e-01  9.93835900e-02  -1.07311873e+00   3.34030620e-01
C     7.437901747400000e+00   6.830294880658849e+00  -1.003019999999992e-01 -1.08303350e+00  -1.50273240e-01  -3.46894930e-01
C     8.642830278700000e+00   6.100929750152837e+00  -1.857399000000015e-01  4.32954610e-01   1.97723594e+00   1.32339480e-01
C     9.861486838699999e+00   6.809779139469706e+00  -2.673537000000010e-01  1.13372793e+00   6.18474050e-01  -2.89096910e-01
C     1.109431212010000e+01   6.115773795191060e+00  -4.251536999999992e-01  1.27701794e+00   1.01320980e-01   5.82825120e-01
C     1.235679115430000e+01   6.838224632741102e+00  -3.783857999999967e-01 -1.61279682e+00   3.28216890e-01  -2.93098990e-01
