26
Lattice="8.88768389401873 1.33226762955019e-15 0 4.44384194700937 7.69696003302603 0 0 0 30 " PBC="1 1 1" Properties=species:S:1:pos:R:3:force:R:3 Energy="-208.9098752"
C     5.297639523835311e-01   6.190647249120931e-01   3.439069200000000e+00  5.10321120e-01   1.44272880e+00   5.33614620e-01
C     2.946429809721082e+00   1.433858987028670e-02   3.428304300000000e+00 -3.76654270e-01   1.27299627e+00   2.54598170e-01
C     4.308554954261357e+00   4.346522589485192e-01   3.562515300000000e+00  4.16587100e-02   2.84229000e-02   3.92639500e-02
C     9.770067727041573e+00   7.144000415396761e+00   3.744837000000000e+00 -6.82556450e-01   6.55584960e-01  -1.34930730e-01
C     1.112897997383653e+01   7.534940483790906e+00   3.754571400000000e+00  1.73446050e-01   4.42994230e-01  -1.91460490e-01
C     1.215693033626379e+01   6.580340486959816e+00   3.687042300000000e+00  7.19420750e-01  -1.25142646e+00  -1.63843630e-01
C     4.630228190262824e+00   6.987125055454117e+00   3.513395100000000e+00  1.36189360e-01  -2.51178464e+00   1.51638340e-01
C     5.676460340655763e+00   5.967303790234418e+00   3.488119800000000e+00 -1.03670807e+00   4.45779950e-01  -1.35592420e-01
C     7.038661741498899e+00   6.349265046875166e+00   3.487599600000000e+00  5.29893770e-01  -4.21460400e-01   5.64533160e-01
C     8.068860021347758e+00   5.354218525691230e+00   3.676280400000000e+00 -1.06720659e+00   1.91857846e+00  -5.47462090e-01
C     9.402243151643587e+00   5.778664461700769e+00   3.793181400000000e+00  5.26127350e-01   3.81570600e-02  -4.13096330e-01
C     1.042046625511994e+01   4.820631235848298e+00   3.745019100000000e+00  1.95521163e+00  -1.87399712e+00  -1.01935350e-01
C     1.182512061125719e+01   5.182142670294141e+00   3.684007200000000e+00 -7.36590000e-01   3.76252200e-02  -3.21027340e-01
C     3.941862139840110e+00   4.164989556268841e+00   3.520715400000000e+00  8.32460500e-01   1.27755450e+00   2.60627890e-01
C     5.335217094671599e+00   4.597641606214364e+00   3.507427500000000e+00 -1.78841050e-01  -1.35006333e+00   3.77967720e-01
C     6.407808382396324e+00   3.596917191555498e+00   3.586054800000000e+00 -3.26424263e+00   4.31109870e-01  -6.11122540e-01
C     7.714197794740805e+00   4.017944060950110e+00   3.619659900000000e+00  1.93809501e+00  -1.68997998e+00   4.50616090e-01
C     8.742395412499150e+00   3.009884058534653e+00   3.611563500000000e+00  1.19158460e-01  -3.50462490e-01   2.16885360e-01
C     1.011316587377480e+01   3.407184894697589e+00   3.635564100000000e+00 -6.37282050e-01   3.35624680e-01  -7.97909140e-01
C     2.215962004207267e+00   2.406707398516486e+00   3.396991500000000e+00  1.12876624e+00  -1.29820630e-01   1.05791806e+00
C     3.610876791967655e+00   2.789768627715121e+00   3.446314200000000e+00 -5.21333900e-01   1.89958810e-01   9.06958600e-02
C     4.647754032964079e+00   1.824722470670516e+00   3.527071500000000e+00  6.74696720e-01  -2.95119120e-01  -1.75884530e-01
C     6.044856879630642e+00   2.222094965531332e+00   3.590269200000000e+00 -6.89629350e-01  -4.93279690e-01   4.24901150e-01
C     7.055408089898451e+00   1.208213598305985e+00   3.691834200000000e+00 -8.17909950e-01   7.36760510e-01  -4.79220070e-01
C     8.407372878641464e+00   1.609079897263618e+00   3.589193400000000e+00  1.23233380e-01   8.32072130e-01  -1.84370800e-01
C     1.894348096845281e+00   1.010452063653581e+00   3.379195800000000e+00  6.00275270e-01   2.81445530e-01  -1.65404910e-01
