26
Lattice="8.88768389401873 1.33226762955019e-15 0 4.44384194700937 7.69696003302603 0 0 0 30 " PBC="1 1 1" Properties=species:S:1:pos:R:3:force:R:3 Energy="-207.99363329"
C     2.937152002918994e-01   3.050425332465468e-01   3.891582300000000e+00 -2.61622809e+00   2.17343288e+00  -4.58228220e-01
C     7.040813672710051e+00   7.502708770938878e+00   3.652176600000000e+00  3.20778227e+00  -2.43736646e+00   9.60970600e-01
C     4.026046056860882e+00   1.730235051159838e-01   3.665842800000000e+00 -5.93842630e-01   4.89793140e-01   1.62303330e-01
C     9.549033250476619e+00   6.925979558310194e+00   3.661266300000000e+00 -1.61717880e+00  -2.50053887e+00   8.00200100e-02
C     1.090753288651691e+01   7.270630647871120e+00   3.812514300000000e+00 -1.29323731e+00   1.89484927e+00  -5.76283650e-01
C     1.186312305956160e+01   6.267316360101360e+00   3.848290200000000e+00  5.04148130e-01  -1.28590425e+00   5.00578470e-01
C     4.316709985975158e+00   6.661913100266557e+00   3.977698200000000e+00  2.83609396e+00  -1.22053660e+00  -7.79138420e-01
C     5.397494562848340e+00   5.662393259852386e+00   3.941573400000000e+00 -9.27576610e-01   7.22028650e-01  -2.28913850e-01
C     6.764011112000023e+00   6.084799578423574e+00   3.841300200000000e+00 -6.01756990e-01   1.11470243e+00  -1.11476424e+00
C     7.810416794470290e+00   5.140986332287328e+00   3.702705600000000e+00 -2.20868930e-01  -2.39112366e+00   7.98759220e-01
C     9.198602716709781e+00   5.450497874466492e+00   3.611805000000000e+00 -1.07439799e+00   3.21848567e+00   3.96135940e-01
C     1.017755550002648e+01   4.469599751270503e+00   3.682877700000000e+00  9.56609800e-02  -1.77628071e+00   5.80301300e-02
C     1.151797527625788e+01   4.846848852011285e+00   3.809396700000000e+00  9.15099490e-01   1.61432247e+00  -4.58154320e-01
C     3.659125406651477e+00   3.885446204936081e+00   3.810498300000000e+00  3.76519260e-01   1.06538690e-01   9.68344310e-01
C     5.029137081921909e+00   4.293360302314785e+00   3.876546900000000e+00  6.11742500e-02  -1.88787030e-01   4.97100610e-01
C     6.042259454715711e+00   3.302625310261253e+00   3.930257100000000e+00  2.09706074e+00   6.27490750e-01  -4.16016110e-01
C     7.458582939893748e+00   3.724168953552280e+00   3.849283500000000e+00 -2.76029460e-01  -5.57055830e-01  -9.56601940e-01
C     8.498707251709527e+00   2.679940705047051e+00   3.718175100000000e+00 -6.01748940e-01   2.14891012e+00   8.37181760e-01
C     9.869416343499433e+00   3.033401888997517e+00   3.691787700000000e+00 -3.87314030e-01   2.76040108e+00   3.03598000e-01
C     2.019065099435812e+00   2.095189643705500e+00   3.791151600000000e+00 -2.24452126e+00   6.75549670e-01  -5.87980260e-01
C     3.340857445643393e+00   2.488933329790573e+00   3.877358700000000e+00 -1.31703180e-01   2.52447214e+00  -8.40462950e-01
C     4.345396493336198e+00   1.581617451754980e+00   3.816393300000000e+00  1.82363307e+00  -3.77940941e+00  -1.23228900e-02
C     5.718394563660345e+00   1.914744421850190e+00   3.903502800000000e+00  6.48016760e-01   1.57880108e+00  -5.30946080e-01
C     6.796193056559130e+00   1.005995600765811e+00   3.822851100000000e+00 -1.21010562e+00  -2.81464995e+00   7.41160730e-01
C     8.146234061644630e+00   1.343588501009628e+00   3.843616500000000e+00  6.33663410e-01  -1.17681654e+00  -1.69897430e-01
C     1.607103441532798e+00   7.647687170671952e-01   3.718788000000000e+00  5.97657520e-01  -1.52130874e+00   8.25527250e-01
