32
Lattice="9.86 0 0 4.93 8.53901048131456 0 0 0 30 " PBC="1 1 1" Properties=species:S:1:pos:R:3:force:R:3 Energy="-256.15557881"
C     1.150704348700000e+00   4.633385778693672e-01   3.559049400000000e+00  1.87885150e+00  -1.88762690e+00   4.66709490e-01
C     2.419246346200000e+00   1.082794176542478e+00   3.507645300000000e+00  4.58864030e-01   2.88829325e+00   1.53720570e-01
C     3.688374816500000e+00   3.794221354980056e-01   3.509918100000000e+00 -3.28052882e+00  -3.28027190e-01   6.66557970e-01
C     4.852167378499999e+00   1.087332746002703e+00   3.555327000000000e+00  1.94273054e+00   2.92678447e+00  -1.05701410e-01
C     6.099610701500000e+00   4.486412330311912e-01   3.526405500000000e+00  1.96018499e+00  -6.51418010e-01   5.67112130e-01
C     7.385044012899999e+00   1.081561911940109e+00   3.656402700000000e+00 -7.76049360e-01   2.42619250e+00  -8.69577480e-01
C     8.627929698800001e+00   4.304359772977264e-01   3.629766900000000e+00 -1.11414417e+00   4.07753330e-01   5.45856730e-01
C     9.805520492699999e+00   1.182844139924647e+00   3.654135600000000e+00  1.48660405e+00   2.22709010e-01  -4.94881250e-01
C     2.429245569400000e+00   2.555109661667764e+00   3.508632900000000e+00  1.35506543e+00  -5.06595770e-01  -2.62127690e-01
C     3.722884915100000e+00   3.257200168019398e+00   3.504535500000000e+00 -3.22325737e+00   2.72750440e-01  -6.58228610e-01
C     4.894879863200000e+00   2.549806253038845e+00   3.582131400000000e+00  1.65571664e+00  -1.77567795e+00  -5.43577200e-02
C     6.184492532799999e+00   3.205175307378845e+00   3.616505100000000e+00 -6.97652450e-01  -1.34331000e-02   2.21744190e-01
C     7.417876974800000e+00   2.522739809959969e+00   3.620509500000000e+00  3.10390220e-01  -3.51202070e-01  -1.20708290e-01
C     8.645099261900000e+00   3.296563640090520e+00   3.535923000000000e+00 -1.37568233e+00  -3.47547990e-01   1.18568579e+00
C     9.880422426399999e+00   2.604711065743988e+00   3.610329600000000e+00 -1.64878165e+00  -2.57158870e-01  -6.29022730e-01
C     1.107341587140000e+01   3.327696445350077e+00   3.494343600000000e+00  1.48412466e+00  -2.21998072e+00   4.88788450e-01
C     3.677062487799999e+00   4.675517427182201e+00   3.349389300000000e+00  8.19225510e-01   8.54275610e-01   1.82996305e+00
C     4.908816628099999e+00   5.380982038134904e+00   3.535674600000000e+00  5.20755690e-01  -7.85547850e-01   3.05287790e-01
C     6.210230189400000e+00   4.599360042073597e+00   3.677339100000000e+00 -3.57399148e+00   3.19238880e+00  -1.58053903e+00
C     7.333204126200000e+00   5.419731299182200e+00   3.550536900000000e+00  2.29529617e+00  -1.30839981e+00   1.03813183e+00
C     8.591359155999999e+00   4.721090980015009e+00   3.574416600000000e+00  1.11040656e+00  -1.66636700e-02  -8.41807490e-01
C     9.870774465699999e+00   5.415945358105683e+00   3.497565000000000e+00 -2.03336586e+00   5.45767920e-01   4.21709840e-01
C     1.108237471670000e+01   4.718876558427231e+00   3.479082300000000e+00  1.07979950e-01   5.46563160e-01  -4.85286810e-01
C     1.230460966790000e+01   5.424823025741319e+00   3.416219400000000e+00  7.33106680e-01  -5.79660210e-01  -3.16811470e-01
C     4.870988393000000e+00   6.815958565183768e+00   3.636122700000000e+00  3.39575617e+00   1.22735030e-01  -5.39093890e-01
C     6.164699913900000e+00   7.565441945941079e+00   3.597383700000000e+00 -2.94532654e+00  -5.65873610e-01   1.80571440e-01
C     7.369843886200000e+00   6.837554576588736e+00   3.571309500000000e+00 -1.62268883e+00  -4.59971820e-01   2.76841000e-01
C     8.579349676000000e+00   7.499114071966316e+00   3.624077400000000e+00  1.86306192e+00   1.13089685e+00  -1.41543025e+00
C     9.821481121199998e+00   6.837493437273699e+00   3.505779900000000e+00  1.69008252e+00   5.02081800e-02   3.92305800e-02
C     1.108485258400000e+01   7.601788329439304e+00   3.442171500000000e+00 -1.32409194e+00  -3.06982641e+00   5.17156130e-01
C     1.231174426530000e+01   6.829244155419286e+00   3.462861900000000e+00  3.13294530e-01   2.26163987e+00   3.63265660e-01
C     1.356859890900000e+01   7.581596131357248e+00   3.624449100000000e+00 -1.76593695e+00  -2.72434645e+00  -8.94758490e-01
