26
Lattice="8.88768389401873 1.33226762955019e-15 0 4.44384194700937 7.69696003302603 0 0 0 30 " PBC="1 1 1" Properties=species:S:1:pos:R:3:force:R:3 Energy="-208.97837497"
C     9.739741709739380e-02   1.392691796308215e-01   3.573851100000000e+00 -3.32150100e-01  -1.83732269e+00   1.65570120e-01
C     6.893398859156600e+00   7.248558460441091e+00   3.501913200000000e+00  1.12003280e+00  -1.44173804e+00   5.57861400e-02
C     8.266843891154197e+00   7.659615611448044e+00   3.495150300000000e+00  5.56366000e-01  -3.53380319e+00  -5.43957400e-02
C     9.326377038153062e+00   6.586050091910070e+00   3.470983800000000e+00 -1.30416275e+00   1.95515034e+00   1.09129037e+00
C     1.068839108663009e+01   6.983856772286178e+00   3.617408100000000e+00 -1.14004744e+00   6.93576580e-01  -7.09212100e-01
C     1.170252705534801e+01   6.016029087825932e+00   3.635903400000000e+00  1.54694362e+00   5.69932260e-01  -2.19222670e-01
C     4.192472252300912e+00   6.443110693858543e+00   3.646194600000000e+00 -1.91323730e-01  -1.91741930e-01  -5.61115870e-01
C     5.201343379256219e+00   5.447154699877462e+00   3.568794900000000e+00 -1.35152250e-01  -6.99260070e-01   6.40697560e-01
C     6.560468041692634e+00   5.832684113248918e+00   3.542981400000000e+00  9.80920290e-01   3.09187410e-01  -2.82964740e-01
C     7.598511480101019e+00   4.821971969315924e+00   3.536776800000000e+00 -7.14129690e-01   4.63522220e-01   2.55385270e-01
C     8.971404275852581e+00   5.221434496703286e+00   3.538735200000000e+00  1.35800180e-01  -4.56715760e-01  -5.94759740e-01
C     1.002047208625172e+01   4.236517174918830e+00   3.513009300000000e+00 -8.14381500e-02   4.48607990e-01   6.58719600e-02
C     1.140551070193892e+01   4.648923679988643e+00   3.530895600000000e+00 -1.92563796e+00  -6.62667380e-01   4.19538250e-01
C     3.498952856141207e+00   3.640907088427755e+00   3.555669000000000e+00  4.47372710e-01   9.41391820e-01   2.45353310e-01
C     4.851010254552008e+00   4.044319541763312e+00   3.619567800000000e+00  6.51773740e-01   1.04640920e-01  -1.02608154e+00
C     5.858669145853773e+00   3.033947218615642e+00   3.525473700000000e+00  5.40974780e-01   8.05189210e-01   1.38296579e+00
C     7.231546254844854e+00   3.435850990815720e+00   3.582145200000000e+00  1.00993588e+00  -7.72725300e-02  -7.30591180e-01
C     8.289346259104601e+00   2.451342146700056e+00   3.545984700000000e+00 -1.79370990e-01   2.25873110e-01   5.46559100e-02
C     9.686614994395221e+00   2.855252824258355e+00   3.501923100000000e+00 -1.65649768e+00   6.81117360e-01   3.70980840e-01
C     1.817669338029294e+00   1.896379398249009e+00   3.532737000000000e+00 -9.90131100e-01  -5.00147630e-01  -3.94818470e-01
C     3.146122203417252e+00   2.284539709528319e+00   3.546729600000000e+00  9.51757220e-01  -7.09787600e-02  -1.01425400e-02
C     4.161764678980866e+00   1.298116554483594e+00   3.558074700000000e+00  7.23165500e-02   3.23508680e-01   9.83235000e-02
C     5.514500207645381e+00   1.659823645653399e+00   3.621300600000000e+00  1.17425566e+00   4.27256550e-01  -9.29126370e-01
C     6.552945680457832e+00   6.849814136394128e-01   3.594178200000000e+00  4.61109620e-01  -6.17459930e-01   4.20847280e-01
C     7.937282880103476e+00   1.052804971066658e+00   3.576958200000000e+00 -5.32131010e-01   2.29334560e+00  -2.40921000e-02
C     1.456325750601091e+00   5.315906984111506e-01   3.514480800000000e+00 -4.67386200e-01  -1.53192130e-01   2.69256790e-01
