32
Lattice="10 0 0 5 8.66025403784439 0 0 0 30 " PBC="1 1 1" Properties=species:S:1:pos:R:3:force:R:3 Energy="-257.67133139"
C    -6.779912811077471e-04  -7.732799534395427e-04   3.000965899177456e+00  7.10422100e-02   2.70946500e-02  -2.22890500e-02
C     1.250547314738974e+00   7.217702949456174e-01   3.000923655250010e+00 -3.68848100e-02  -1.25293700e-02  -6.55097000e-03
C     2.500560594190998e+00  -4.478252215208866e-05   3.000640192991972e+00  2.95673000e-03  -1.22189200e-02   5.42277000e-03
C     3.751186849986367e+00   7.217087542388245e-01   3.001146228381614e+00 -5.41725300e-02   2.89588700e-02  -1.91079900e-02
C     4.999985658402555e+00   4.291833418018560e-05   2.999610155776500e+00  3.59613600e-02   4.12654000e-03   5.90123000e-03
C     6.251174375580203e+00   7.210780576641128e-01   2.999758188050632e+00 -3.23734300e-02   4.06597000e-03  -8.11781000e-03
C     7.500823726559077e+00  -2.862821333477988e-04   2.999329272263057e+00 -9.52234000e-03  -2.40584900e-02   5.29069000e-03
C     8.750079929014214e+00   7.212222521016478e-01   2.998875573238684e+00 -4.03937000e-03   2.65323300e-02   1.87811000e-02
C     1.249507631355743e+00   2.165813329142736e+00   2.999409952947581e+00  3.20610700e-02  -6.51997400e-02   2.68334000e-02
C     2.499284176087020e+00   2.886600436294923e+00   3.001222101847586e+00  2.20831700e-02   6.71867000e-03  -2.34715700e-02
C     3.749623932186165e+00   2.166078369767479e+00   2.999667419377505e+00  6.78689000e-03  -5.67064100e-02   1.28663500e-02
C     4.999636238825583e+00   2.886635359951176e+00   2.998763005584256e+00  3.28366500e-02  -2.15603700e-02   1.30918800e-02
C     6.250211693354334e+00   2.163975914736185e+00   2.999109272881589e+00 -7.14930000e-03   4.64359800e-02  -9.96700000e-04
C     7.499532879597698e+00   2.887800860136253e+00   2.999447865888605e+00  7.95619000e-03  -3.98847100e-02   1.29995000e-02
C     8.749344672138811e+00   2.165005726409502e+00   3.000339576958139e+00  3.64543600e-02   1.27124600e-02  -9.69831000e-03
C     1.000087997937962e+01   2.886474545970612e+00   3.000755493552369e+00 -7.75642600e-02   1.14726700e-02  -1.67962500e-02
C     2.499532932097496e+00   4.329143927749961e+00   3.000236545832941e+00  2.44919000e-03   7.58932900e-02   1.18413300e-02
C     3.748862281472727e+00   5.052975631176160e+00   3.000484410210962e+00  7.56961800e-02  -1.33786550e-01  -8.27259000e-03
C     5.001002275498158e+00   4.328921829800339e+00   3.000276336496168e+00 -9.09670100e-02   9.00730700e-02  -1.64793200e-02
C     6.248871131160277e+00   5.053056850556072e+00   2.999012836509943e+00  5.30473200e-02  -6.51292100e-02   2.29644300e-02
C     7.499988125139716e+00   4.331300616515572e+00   3.001146975138335e+00 -3.71946000e-02  -2.53501500e-02  -1.86737900e-02
C     8.749897811966100e+00   5.051110555351907e+00   3.001054029272813e+00  1.10807800e-02   1.99606100e-02  -1.57527000e-02
C     1.000014577837588e+01   4.329716023402433e+00   2.999315466673808e+00  7.15308000e-03   1.52082300e-02   2.47426400e-02
C     1.125008588562980e+01   5.052202765435506e+00   3.000742889936998e+00 -2.38818700e-02  -1.37830200e-02  -9.71391000e-03
C     3.750546459303758e+00   6.494044797618665e+00   2.999186072114364e+00 -8.64026000e-03   5.66303700e-02   1.28800200e-02
C     5.001187341598262e+00   7.216246941950895e+00   2.998879985773731e+00 -7.64705900e-02   2.53566700e-02   1.71522300e-02
C     6.249210145243204e+00   6.495462163318059e+00   3.000047236046429e+00  4.64971400e-02  -5.11137000e-03  -1.15821200e-02
C     7.500126329410327e+00   7.215873635023205e+00   3.000228737704119e+00 -1.49346400e-02   4.46570800e-02  -1.94762000e-03
C     8.749200834097994e+00   6.494334776491465e+00   2.999376922639675e+00  5.04633500e-02   2.69202200e-02   1.16722400e-02
C     9.999859074313937e+00   7.217513527060807e+00   2.999241181458044e+00 -3.17666400e-02  -3.27345200e-02   1.02040200e-02
C     1.124941239616358e+01   6.496103775473147e+00   3.001057051287933e+00  4.73330800e-02  -3.10337400e-02  -8.93083000e-03
C     1.250099137827574e+01   7.216354075143500e+00   3.000921121750164e+00 -3.62971000e-02   1.62689000e-02  -1.42622900e-02
