26
Lattice="8.88768389401873 1.33226762955019e-15 0 4.44384194700937 7.69696003302603 0 0 0 30 " PBC="1 1 1" Properties=species:S:1:pos:R:3:force:R:3 Energy="-208.48352258"
C     1.527911956796957e-01   1.757725513602986e-01   3.788353200000000e+00 -3.94866970e-01   2.03940191e+00  -9.24611490e-01
C     7.014438937366183e+00   7.288334117757722e+00   3.538107300000000e+00 -9.52705620e-01   7.21760420e-01  -4.13265690e-01
C     8.380898116506568e+00   7.692592313061376e+00   3.466821000000000e+00 -1.12368237e+00   1.95838880e+00   1.03422870e+00
C     9.360663411898388e+00   6.733090507235181e+00   3.498135600000000e+00  1.15063756e+00  -2.68301341e+00   6.65987980e-01
C     1.071326260346263e+01   7.049540397063789e+00   3.753776400000000e+00  1.49858992e+00   1.76413899e+00   2.15373560e-01
C     1.179087116653525e+01   6.107790090154784e+00   3.889218900000000e+00 -1.79539133e+00  -7.92979400e-02  -1.55922238e+00
C     4.241129077660847e+00   6.545948622275368e+00   3.886858500000000e+00  6.03635310e-01  -2.33867453e+00  -2.04059040e-01
C     5.253536658452085e+00   5.515634091446771e+00   3.769798200000000e+00  9.21842910e-01   1.98192974e+00   1.79612210e-01
C     6.641419244110216e+00   5.932604431996772e+00   3.607089300000000e+00 -4.39458160e-01  -1.38664525e+00   3.06797320e-01
C     7.658585068677992e+00   4.923732785146151e+00   3.583605900000000e+00  5.65937870e-01   1.23500200e-02  -2.46114610e-01
C     9.027983093801183e+00   5.311549888977723e+00   3.494148600000000e+00  6.58585000e-03   1.52742111e+00   1.60829870e-01
C     1.008344217103423e+01   4.377976447556588e+00   3.531009900000000e+00 -8.00411430e-01  -1.52829048e+00  -4.63768890e-01
C     1.145505887310730e+01   4.738086419520167e+00   3.621383100000000e+00 -2.56225550e-01   1.93533660e-01   1.47025404e+00
C     3.549406415668220e+00   3.731239458005438e+00   3.742558200000000e+00  4.02935480e-01  -3.07196370e-01  -6.08840290e-01
C     4.921290637074026e+00   4.164693300277286e+00   3.809239800000000e+00  1.95784790e-01  -1.71176707e+00  -7.00405090e-01
C     5.971405416630807e+00   3.172698007988443e+00   3.713393700000000e+00  1.38478540e-01  -1.36663900e-01   1.01638949e+00
C     7.353595796232081e+00   3.539382723209649e+00   3.672933300000000e+00 -9.73929970e-01   1.99235420e-01  -2.80990420e-01
C     8.377410052737007e+00   2.535490085863235e+00   3.641247000000000e+00 -1.34327835e+00   1.90329934e+00  -4.47566820e-01
C     9.708284367634610e+00   2.975703552372629e+00   3.484647600000000e+00  1.04351023e+00  -5.81287280e-01   1.15939698e+00
C     1.804708162013454e+00   1.944815136204195e+00   3.569718600000000e+00  1.91070974e+00   7.95234500e-01  -8.31876500e-01
C     3.210094730001996e+00   2.327906306577347e+00   3.620953500000000e+00 -6.28281740e-01   1.63095166e+00   4.54696350e-01
C     4.261431077319427e+00   1.410401038914839e+00   3.670532400000000e+00  5.92626300e-02  -1.91983027e+00  -6.15758580e-01
C     5.636337333405515e+00   1.790876474391396e+00   3.790603500000000e+00 -5.80984560e-01  -5.42260140e-01  -6.41614180e-01
C     6.635916786773004e+00   7.539758088043282e-01   3.824335800000000e+00 -3.13820690e-01   9.21974390e-01  -5.17441100e-01
C     7.990880724473117e+00   1.198590243119676e+00   3.735221100000000e+00  1.14134134e+00  -2.45171606e+00   7.57076490e-01
C     1.507410246768808e+00   5.624300311937512e-01   3.555172200000000e+00 -3.62154300e-02   1.70227600e-02   1.03489207e+00
