32
Lattice="9.692 0 0 4.846 8.39351821347878 0 0 0 30 " PBC="1 1 1" Properties=species:S:1:pos:R:3:force:R:3 Energy="-257.40443378"
C     2.790682111786186e-03   2.011798033155669e-03   3.003123741728142e+00 -1.39862260e-01  -1.48820140e-01  -2.69416000e-02
C     1.208486487253498e+00   7.014671026157914e-01   3.000871144971311e+00  2.36679410e-01   5.60607900e-02  -1.73221800e-02
C     2.423228200788300e+00   2.253552226419874e-03   2.999325856180887e+00 -2.56739000e-02   1.96731400e-02   4.06446000e-02
C     3.633643084782192e+00   7.028352297736639e-01   3.000518476618224e+00  1.05807870e-01  -1.92737030e-01  -3.97175300e-02
C     4.847566232148480e+00  -4.097629707601845e-04   2.997287846190709e+00 -1.42347100e-01   1.47571820e-01   3.32156900e-02
C     6.058893854334674e+00   7.002115270496558e-01   2.999360219099451e+00  2.98076600e-02  -1.65591970e-01  -3.45775200e-02
C     7.270938191754340e+00  -3.168953435285551e-03   2.998980446161891e+00 -1.98394600e-02   2.19948940e-01  -1.74252000e-03
C     8.483696038003181e+00   7.000552370845807e-01   3.001371682263393e+00 -1.35657970e-01  -5.88451500e-02  -8.58476000e-03
C     1.207264386297783e+00   2.102307879718238e+00   2.997190674567424e+00  3.84486910e-01  -1.57535060e-01   1.06623500e-02
C     2.424393257880526e+00   2.799946870733437e+00   2.998206263151562e+00 -1.87632690e-01  -5.57556300e-02   1.76847100e-02
C     3.633297870717758e+00   2.098235874799994e+00   2.999319950923633e+00  1.49989880e-01   1.86567150e-01  -2.60320000e-04
C     4.848585237789185e+00   2.798530096964868e+00   2.999537421815688e+00 -1.57480860e-01  -1.35960300e-02   8.88527000e-03
C     6.057402855633225e+00   2.096999284892695e+00   2.996740100120541e+00  1.24343560e-01   1.15440860e-01   3.85936800e-02
C     7.271472649597710e+00   2.797816324532322e+00   2.998603888692271e+00 -1.34855350e-01  -1.01497770e-01  -1.86002000e-02
C     8.481779930194534e+00   2.099314296533234e+00   2.999038003808912e+00  2.90492300e-02  -7.20946100e-02  -4.33360000e-03
C     9.693976133411322e+00   2.797782749062502e+00   2.996781831485808e+00 -2.44881400e-01   1.69025690e-01   4.60356000e-02
C     2.424103890350286e+00   4.198361916749474e+00   3.001937913957160e+00 -1.01905700e-02  -3.88006000e-03  -3.19182100e-02
C     3.635241653790132e+00   4.895042737539921e+00   2.999801549560377e+00  7.25132400e-02   2.43551800e-01   4.89871700e-02
C     4.847406826301628e+00   4.198984877004116e+00   3.003817647419563e+00  3.65305000e-02  -1.51622560e-01  -4.52161100e-02
C     6.060661351913522e+00   4.895091004044808e+00   3.001717338045053e+00 -1.44709110e-01   2.03311760e-01  -3.22952700e-02
C     7.268526852247020e+00   4.193852149936245e+00   2.997134105283662e+00  2.13169100e-01   2.09834710e-01   3.49390000e-02
C     8.483076243307002e+00   4.897962497649289e+00   2.999634365602406e+00 -2.20777800e-01  -1.32183890e-01   1.50143000e-02
C     9.690337228155101e+00   4.197221139044001e+00   3.004007615516005e+00  2.64929840e-01   9.67341700e-02  -6.45900600e-02
C     1.090588783547300e+01   4.900206740720719e+00   3.002381053122575e+00 -2.06833940e-01  -2.38572890e-01   2.63433000e-02
C     3.638210783177938e+00   6.298180383090070e+00   3.001438956904384e+00 -2.54234800e-01  -2.68215320e-01  -4.42914700e-02
C     4.847686256602874e+00   6.993061608082212e+00   2.999696308680645e+00 -2.90262400e-02   2.78808850e-01   2.30080300e-02
C     6.055784827217832e+00   6.298549957547466e+00   2.998478115170834e+00  3.74803460e-01  -2.38404860e-01   4.95192600e-02
C     7.273582053081276e+00   6.996586115173350e+00   3.003497018764455e+00 -3.53030260e-01   1.51567900e-02  -6.32833300e-02
C     8.480907380488794e+00   6.296292988900487e+00   3.000572286642974e+00 -5.76544000e-03  -5.24672400e-02   1.50901500e-02
C     9.688591984228646e+00   6.995741970822747e+00   2.999431686112670e+00  2.27998710e-01  -9.57135000e-03   1.29726800e-02
C     1.090186587768037e+01   6.295622962833661e+00   3.002515986583614e+00  3.16543000e-03   7.99222900e-02  -4.41966800e-02
C     1.211353176785322e+01   6.993473212793533e+00   2.997012283759138e+00  1.59524360e-01   1.97828000e-02   5.62755600e-02
