32
Lattice="9.86 0 0 4.93 8.53901048131456 0 0 0 30 " PBC="1 1 1" Properties=species:S:1:pos:R:3:force:R:3 Energy="-256.92537495"
C     4.929945819299999e+00   8.302216290450483e+00  -3.738843000000003e-01  7.84915760e-01   1.19077247e+00  -1.64349250e-01
C     1.252791830700000e+00   4.714648125827640e-01  -3.847103999999995e-01 -2.24534450e-01   9.44571630e-01  -2.03221200e-01
C     7.422089166799999e+00   8.287677173476501e+00  -3.589446000000009e-01 -1.89666116e+00   7.22176800e-02  -5.03367540e-01
C     3.678058052000000e+00   4.533222331862224e-01  -4.499205000000011e-01  1.73279487e+00   1.17675691e+00   9.85854950e-01
C     9.852480369599999e+00   8.321822456243297e+00  -4.127586000000001e-01  1.12932775e+00   1.96058120e-01  -3.20033820e-01
C     6.172810601999999e+00   5.068307468976753e-01  -4.191071999999991e-01 -3.85226100e-01  -3.23589890e-01  -2.56233740e-01
C     1.232882341220000e+01   8.298495416633822e+00  -4.299639000000006e-01 -4.83441520e-01   1.23487570e-01   3.52452550e-01
C     8.610156407899998e+00   4.751382948912600e-01  -3.686019000000016e-01  1.26004919e+00  -1.81232000e-03   3.86503000e-03
C     1.271830406100000e+00   1.929080903507358e+00  -4.816667999999993e-01 -1.38979480e-01  -1.06644241e+00   1.31282665e+00
C     2.519100291700000e+00   2.641397814199945e+00  -3.895818000000020e-01 -1.89325968e+00  -1.63295014e+00  -6.81804030e-01
C     3.729189941400000e+00   1.879409394155093e+00  -3.648851999999998e-01 -1.51353433e+00   9.98847810e-01  -6.93256480e-01
C     4.895078098499999e+00   2.637866079465417e+00  -3.970815000000023e-01  2.93567211e+00   5.39761800e-02  -5.62171100e-02
C     6.170299457200001e+00   1.936973937844546e+00  -4.581225000000018e-01  2.55396180e-01  -9.04780000e-03   7.73170220e-01
C     7.437224266799999e+00   2.636075705138075e+00  -4.164798000000012e-01 -1.18648078e+00   3.51648670e-01   9.28294500e-02
C     8.661291896200000e+00   1.898517991807237e+00  -3.214044000000023e-01 -4.15166660e-01   9.82324630e-01  -1.14380923e+00
C     9.894220658299998e+00   2.641379028376889e+00  -4.198604999999986e-01  2.74782740e-01  -4.24968530e-01   4.56844910e-01
C     2.420177228800000e+00   4.033042791007630e+00  -4.682712000000002e-01  2.70793584e+00   1.18265963e+00   3.01661810e-01
C     3.677153544900000e+00   4.747493002688437e+00  -5.154125999999977e-01  3.36051200e-01   8.46699780e-01   1.00706372e+00
C     4.923820787300000e+00   4.084338420153191e+00  -3.844223999999983e-01 -5.47309530e-01  -1.41367923e+00  -5.00789680e-01
C     6.160890798700000e+00   4.789649926647987e+00  -3.564027000000003e-01  7.25685320e-01  -1.01058018e+00  -1.03219427e+00
C     7.408434989500000e+00   4.085916941630524e+00  -4.522961999999993e-01  5.55450130e-01  -1.31318177e+00   5.84552350e-01
C     8.675026925499999e+00   4.762878762551510e+00  -4.699562999999998e-01 -1.40195516e+00   6.49461440e-01   6.75280320e-01
C     9.908929313300000e+00   4.083800462492952e+00  -3.746799000000003e-01 -1.96021241e+00  -1.78064239e+00  -8.23297460e-01
C     1.109074531440000e+01   4.783330119601634e+00  -4.119735000000020e-01  1.06271207e+00  -7.07052900e-02  -4.09855880e-01
C     3.715816281100000e+00   6.174831299472836e+00  -4.680272999999993e-01  9.31289520e-01  -1.83853830e-01  -1.02019360e-01
C     4.989870067900000e+00   6.912489260786710e+00  -4.319175000000008e-01 -2.20892608e+00  -1.48622261e+00   1.20395490e-01
C     6.208169350799999e+00   6.192625487241793e+00  -4.213359000000025e-01 -1.71327633e+00  -3.23418640e-01   5.21817460e-01
C     7.406716637999999e+00   6.864879239344527e+00  -3.661817999999997e-01  1.66411115e+00   1.12530031e+00  -4.63096600e-01
C     8.641404078999999e+00   6.181559100439923e+00  -4.374543000000024e-01  1.52177500e+00   1.90433180e-01   2.70580360e-01
C     9.903787471199999e+00   6.917791730124475e+00  -4.214949000000026e-01 -1.28279712e+00  -9.13343450e-01  -1.39391490e-01
C     1.113595405530000e+01   6.200757101531793e+00  -4.543835999999999e-01 -1.97756572e+00  -1.00674916e+00   3.44526550e-01
C     1.234055060040000e+01   6.845353937980958e+00  -4.378409999999988e-01  1.35137766e+00   2.87597163e+00  -3.10784660e-01
