32
Lattice="9.86 0 0 4.93 8.53901048131456 0 0 0 30 " PBC="1 1 1" Properties=species:S:1:pos:R:3:force:R:3 Energy="-252.38436245"
C     9.639257080799998e+00   1.056060925652533e+00   3.576013200000000e+00 -1.51340678e+00  -2.70647067e+00   1.89732798e+00
C     1.085537750090000e+01   1.733873658967851e+00   3.767594400000000e+00 -4.27119900e-02  -1.27946058e+00  -1.31157736e+00
C     2.198489820200000e+00   9.577292673492543e-01   3.666049200000000e+00 -8.15984590e-01  -6.99425880e-01   7.33601890e-01
C     3.343143777100000e+00   1.702102391894705e+00   3.479150100000000e+00  1.97408897e+00   4.91122900e-01  -6.50280260e-01
C     4.555355101600000e+00   9.996850122218960e-01   3.286113000000000e+00  2.89969412e+00  -9.63865090e-01   3.27084738e+00
C     5.892403688899999e+00   1.725820176623743e+00   3.420412200000000e+00 -4.08845596e+00  -1.17556490e+00  -1.73615890e-01
C     6.990591902800000e+00   9.122677463339439e-01   3.648226200000000e+00  5.61047320e+00   2.26516779e+00  -2.98161770e-01
C     8.344187443499999e+00   1.609213498871378e+00   3.629192700000000e+00 -1.15577433e+00   1.50188444e+00   3.91824250e-01
C     1.079542584150000e+01   3.138101465448550e+00   3.660442200000000e+00  3.43743971e+00  -1.14564316e+00   4.74876630e-01
C     1.198281096780000e+01   3.912631300965587e+00   3.709351800000000e+00  3.21613727e+00  -1.30519912e+00  -1.05793747e+00
C     3.366505075100000e+00   3.121344169722178e+00   3.510927600000000e+00  5.28864600e-02   2.94092258e+00   1.28164491e+00
C     4.641998323299999e+00   3.902365275616007e+00   3.578762100000000e+00  3.99662050e-01  -6.92438308e+00  -1.56354733e+00
C     5.900906903599999e+00   3.156979595207838e+00   3.468901500000000e+00 -1.72951020e-01  -2.01970000e+00   9.33106940e-01
C     7.191672207200000e+00   3.722463097290537e+00   3.638963100000000e+00 -2.88797627e+00   1.60206547e+00  -3.89553400e-01
C     8.376376300899999e+00   3.013252934780889e+00   3.710382900000000e+00  8.78748940e-01   5.61302260e-01  -1.88216280e+00
C     9.625230540600000e+00   3.734742365140987e+00   3.489895800000000e+00 -2.96725071e+00   3.28123643e+00   4.12657100e-01
C     1.211270803750000e+01   5.337235150423977e+00   3.690730500000000e+00 -2.16239204e+00  -5.44364830e-01  -2.32564314e+00
C     3.504932721000000e+00   5.933615268736355e+00   3.445542300000000e+00 -9.36701240e-01   3.35437222e+00   2.14238209e+00
C     4.729010358300000e+00   5.217298941705250e+00   3.525070800000000e+00 -1.64164577e+00   4.45533696e+00   3.16761900e-02
C     5.922908803400000e+00   5.935271836769475e+00   3.609055200000000e+00  1.84696569e+00   1.01652409e+00   1.36599588e+00
C     7.145834201100000e+00   5.126510303699584e+00   3.658122000000000e+00 -8.51057600e-02   2.27955951e+00   2.52354190e-01
C     8.380584253100000e+00   5.799670386374665e+00   3.687020400000000e+00  1.84459541e+00   2.94304211e+00  -1.16418374e+00
C     9.665365325500000e+00   5.212493357387316e+00   3.355484100000000e+00 -2.52366894e+00  -3.36262400e-01   2.42027710e+00
C     1.079895596800000e+01   6.097107432891675e+00   3.480178200000000e+00  2.39088317e+00  -7.45622509e+00   7.13343300e-01
C     1.335185914980000e+01   7.445362367236393e+00   3.563211000000000e+00 -2.75432120e-01  -2.45639494e+00   3.79639760e-01
C     1.454675937090000e+01   8.174340680567662e+00   3.688956600000000e+00  1.98817316e+00  -8.16305170e-01  -6.58776030e-01
C     5.949264879199999e+00   7.458738897933523e+00   3.829033500000000e+00 -2.67473395e+00  -4.72441720e+00  -2.05020032e+00
C     7.182896610000000e+00   8.011220390318746e+00   3.748158000000000e+00  7.24964100e-01   3.23633238e+00   4.07027870e-01
C     8.411114559900000e+00   7.272209935134945e+00   3.763960800000000e+00 -9.71826790e-01   4.30825280e-01  -3.69723540e-01
C     9.566589866799998e+00   8.103376807023098e+00   3.701885400000000e+00  5.90988700e-01   5.18112640e-01  -2.40773997e+00
C     1.084373052380000e+01   7.395681208802286e+00   3.639835500000000e+00 -1.24949143e+00   3.86504099e+00   4.15654760e-01
C     1.209368400560000e+01   8.074275517746839e+00   3.719223000000000e+00 -1.69019128e+00  -1.89165960e-01  -1.22113520e+00
