32
Lattice="9.86 0 0 4.93 8.53901048131456 0 0 0 30 " PBC="1 1 1" Properties=species:S:1:pos:R:3:force:R:3 Energy="-251.21855498"
C     5.133088441300000e+00   7.997879638075527e+00   3.260385000000000e-01  8.44093730e-01   4.47057580e-01   2.83106070e-01
C     1.518482496600000e+00   2.146353719638128e-01   5.006112000000000e-01 -4.98304300e+00   1.29282584e+00  -2.13837798e+00
C     7.598223917700000e+00   8.078087075854796e+00   3.917754000000000e-01  2.47313747e+00  -1.41502189e+00   3.94264700e-01
C     3.860714305500000e+00   2.448143697527528e-01   1.418031000000000e-01  1.19167828e+00  -1.18945247e+00   2.46631676e+00
C     1.009258892040000e+01   8.001713397610732e+00   3.915870000000000e-01 -5.17115320e+00  -9.37754430e-01  -3.03335936e+00
C     6.229942399999999e+00   2.154300122790816e-01   4.026900000000000e-01  6.88579667e+00   1.59033031e+00  -8.08176410e-01
C     1.253799207180000e+01   8.091855461742853e+00   1.018716000000000e-01 -2.73333589e+00  -2.17182872e+00   1.23199232e+00
C     8.860859873799999e+00   1.514842660579248e-01   3.949470000000000e-01 -2.44684377e+00   2.27135366e+00  -7.75777530e-01
C     1.437355501200000e+00   1.618200209670845e+00   1.146366000000000e-01 -3.06989889e+00   2.93672380e-01  -1.37142844e+00
C     2.561907678900000e+00   2.358375215103908e+00  -3.432554999999979e-01  1.75128063e+00  -4.76631746e+00   2.59021325e+00
C     3.803384518700000e+00   1.641434942577030e+00   6.458400000000000e-03  1.32957349e+00   3.90865870e-01  -1.31764764e+00
C     5.076267824900000e+00   2.319914999561359e+00   6.103620000000000e-02 -2.03864945e+00   2.70266571e+00  -1.13519599e+00
C     6.220693769300000e+00   1.657944094658852e+00   4.017606000000000e-01  2.53728520e+00  -2.61718700e-01  -8.76475500e-02
C     7.504352724400000e+00   2.387686990988499e+00   3.991365000000000e-01 -7.17593830e-01  -2.00306599e+00  -5.99966340e-01
C     8.718326819700000e+00   1.629150209759873e+00   4.099149000000000e-01  2.01406752e+00   4.03701770e-01  -1.19942900e+00
C     9.928580934199999e+00   2.304731699636766e+00  -3.862230000000011e-02  2.80765222e+00  -7.51617660e-01   2.65827264e+00
C     2.603644713800000e+00   3.662788222551058e+00  -6.672137999999990e-01  2.35251977e+00   3.91328393e+00   6.53500420e-01
C     3.891690678700000e+00   4.453971348646820e+00  -5.269347000000018e-01 -1.26391046e+00  -1.14200600e-01  -2.64238610e-01
C     5.100941341000000e+00   3.776635604456915e+00  -2.805393000000009e-01  1.42751127e+00  -1.26345160e-01   1.66301723e+00
C     6.344106212800000e+00   4.536870197139280e+00   2.968800000000000e-03 -2.23997050e-01   8.50818070e-01   2.41924740e-01
C     7.539179624799999e+00   3.796199502147853e+00   1.690389000000000e-01  2.29497820e-01  -1.01509745e+00   9.98165290e-01
C     8.793697448500000e+00   4.432713311276650e+00   1.978494000000000e-01  2.22802640e+00   3.14736021e+00  -1.88061607e+00
C     1.007796540650000e+01   3.731805372486391e+00  -1.027260000000005e-01 -3.20675085e+00  -4.90368100e-01  -2.17799040e-01
C     1.129152055040000e+01   4.377092502542760e+00  -5.102097000000008e-01 -2.70014964e+00   2.58163291e+00   3.75985010e-01
C     3.885568062400000e+00   5.891753452978994e+00  -3.557936999999995e-01 -1.05799355e+00   1.11692045e+00   4.31640390e-01
C     5.095104319600000e+00   6.592854373406101e+00  -7.003499999999718e-03  2.18944108e+00   1.62386091e+00   1.33000881e+00
C     6.449911654299999e+00   6.038359638520009e+00   2.033478000000000e-01 -4.99247528e+00  -5.52386251e+00  -1.42488625e+00
C     7.632583848499999e+00   6.644553726967157e+00   5.124786000000000e-01  4.60387980e-01   1.46159736e+00  -1.77331418e+00
C     8.819146305699999e+00   5.952658372178117e+00   1.869213000000000e-01 -1.96173070e-01  -3.73148683e+00   8.42979320e-01
C     1.003885916750000e+01   6.583981402226228e+00  -1.069439999999844e-02  1.27879751e+00  -2.30344300e-02   2.50891870e-01
C     1.120429977920000e+01   5.834189592410379e+00  -4.852245000000011e-01  1.49524861e+00   2.84386164e+00   2.65495238e+00
C     1.245207740550000e+01   6.690117886888435e+00  -2.596388999999988e-01  1.30597227e+00  -2.41063622e+00  -1.03937081e+00
