32
Lattice="9.86 0 0 4.93 8.53901048131456 0 0 0 30 " PBC="1 1 1" Properties=species:S:1:pos:R:3:force:R:3 Energy="-257.05796233"
C     2.620718980000000e-02   2.392681970558880e-02   3.512478600000000e+00 -1.61882068e+00  -1.29666780e+00   1.56046620e-01
C     1.214965370400000e+00   7.245271833383583e-01   3.573884400000000e+00  8.02698060e-01   1.10892007e+00   1.27228510e-01
C     2.415129056700000e+00   2.844967738653040e-02   3.505815900000000e+00  2.78854263e+00   1.14655670e-01  -2.31437190e-01
C     3.725350210899999e+00   7.049481715988712e-01   3.497913600000000e+00 -2.09847741e+00   5.75763380e-01   8.96542000e-03
C     9.857458683600001e+00   8.518607539139298e+00   3.409877700000000e+00  4.32767630e-01   1.21444001e+00   3.61529390e-01
C     6.129829087200000e+00   7.300975214348816e-01   3.494010600000000e+00  1.50212566e+00   6.09871240e-01  -4.49357740e-01
C     7.401887259300000e+00   1.782834381087760e-02   3.529378200000000e+00 -5.25551170e-01   1.34478200e-01  -5.49221870e-01
C     8.665379211300001e+00   7.112976090115896e-01   3.547202700000000e+00 -1.86443139e+00   1.13163084e+00   4.11665490e-01
C     1.109087650170000e+01   2.142475557248427e+00   3.679278000000000e+00 -1.37703103e+00   5.32287420e-01  -2.99384400e-01
C     2.434230292400000e+00   2.859282365041502e+00   3.656776500000000e+00  2.47065765e+00  -1.06007199e+00  -1.42392980e-01
C     3.723105286100000e+00   2.129964540653550e+00   3.565131300000000e+00 -1.43155550e+00   3.03352500e-01  -2.39431780e-01
C     4.925021242300000e+00   2.882758068823433e+00   3.455916600000000e+00 -1.36998407e+00  -6.03537880e-01   3.81572030e-01
C     6.129309169400000e+00   2.197315217303606e+00   3.444727500000000e+00  1.47040857e+00  -2.54492107e+00   5.44729530e-01
C     7.390488211899999e+00   2.849971854964635e+00   3.520563000000000e+00 -9.93234000e-03   8.11967240e-01  -2.03018680e-01
C     8.624787859100000e+00   2.162107767023204e+00   3.624463500000000e+00 -3.27390190e-01  -1.48834584e+00  -5.54181470e-01
C     9.834797692100000e+00   2.865666727007084e+00   3.650991300000000e+00  1.27567453e+00   7.30031490e-01  -1.80747340e-01
C     2.491788535400000e+00   4.262356038865724e+00   3.637201200000000e+00 -1.00977716e+00   1.61881425e+00  -2.06998530e-01
C     3.723029364099999e+00   5.014917049780238e+00   3.528939600000000e+00 -2.20518552e+00  -8.59733480e-01   2.03916250e-01
C     4.883435016100000e+00   4.280693820041839e+00   3.466878300000000e+00  2.80250636e+00   8.74794710e-01  -2.13769940e-01
C     6.150961532200000e+00   4.981553171862467e+00   3.408038700000000e+00  8.61495300e-02  -5.28649900e-01  -3.49242700e-02
C     7.409862964000000e+00   4.276091037222805e+00   3.447173100000000e+00 -1.23901343e+00   2.94279880e-01   1.32813430e-01
C     8.605744304400000e+00   5.023539657172837e+00   3.465856800000000e+00  1.23830695e+00  -4.51248990e-01   2.42233600e-02
C     9.855583262299998e+00   4.303918220745343e+00   3.545378400000000e+00  2.94355990e-01  -1.96995230e-01   6.71365310e-01
C     1.111691809280000e+01   4.999691054803245e+00   3.610238700000000e+00 -7.95891340e-01   1.16600690e-01  -5.90848420e-01
C     1.353867617540000e+01   6.423261940163869e+00   3.494626200000000e+00  5.25505000e-03   2.77716950e-01  -7.81702900e-02
C     4.898716635700000e+00   7.132703680637735e+00   3.470338200000000e+00  1.55275155e+00  -4.30263630e-01  -4.20361810e-01
C     6.149269260400000e+00   6.384319953650039e+00   3.380652600000000e+00 -2.57956500e-02   2.05467500e+00   5.77392980e-01
C     7.384624815000000e+00   7.175354244793135e+00   3.404563800000000e+00 -2.76265230e-01  -2.34790071e+00   1.47557780e-01
C     8.641631647799999e+00   6.445194047021329e+00   3.430170300000000e+00 -1.48548620e+00  -1.92212400e-01  -4.20158780e-01
C     9.878369820900000e+00   7.113538554736214e+00   3.390843000000000e+00 -1.06907789e+00   6.28544550e-01   5.47265100e-01
C     1.108850581260000e+01   6.453319257053469e+00   3.498355500000000e+00  1.52914500e-01  -3.03784159e+00  -1.08891100e-01
C     1.229139199280000e+01   7.116026736999981e+00   3.468846000000000e+00  1.85455156e+00   1.90556641e+00   6.27025410e-01
