26
Lattice="8.88768389401873 1.33226762955019e-15 0 4.44384194700937 7.69696003302603 0 0 0 30 " PBC="1 1 1" Properties=species:S:1:pos:R:3:force:R:3 Energy="-206.5048336"
C     1.885468146199689e+00   2.487381391739724e+00   3.693783300000000e+00 -7.98595400e-02  -6.05335400e-01   5.44051020e-01
C     4.342699659184915e+00   1.904705122943860e+00   3.775439100000000e+00 -2.64428709e+00  -3.77551020e-01  -8.01242360e-01
C     5.637786115112663e+00   2.339267943216830e+00   3.799604100000000e+00  3.65821856e+00  -1.69860681e+00   2.43980748e+00
C     6.703049551919498e+00   1.355468758815933e+00   4.081524600000000e+00 -6.44956150e-01  -7.72395160e-01  -1.81830330e+00
C     8.045425285188921e+00   1.741848994149105e+00   4.045726200000000e+00  2.47871607e+00   2.15289880e-01  -4.74622040e-01
C     9.150406981398342e+00   7.422357896097699e-01   3.832129200000000e+00 -2.82636878e+00  -1.61138318e+00   7.17521500e-02
C     1.613549278880790e+00   1.023925900064497e+00   3.600874800000000e+00 -2.63056658e+00   5.60258511e+00   5.62600810e-01
C     2.621632157219352e+00   1.318159053553713e-01   3.485526300000000e+00  7.89221260e-01  -2.21590196e+00   4.37973640e-01
C     3.973061063086753e+00   5.704520338458182e-01   3.651556500000000e+00  2.12465250e+00  -3.01437824e+00   9.04229010e-01
C     9.512262947147072e+00   7.255162836994832e+00   3.922368600000000e+00 -2.89047338e+00   2.15868623e+00  -1.48294437e+00
C     1.085775030298682e+01   7.644640559952877e+00   4.013731500000000e+00 -1.85335020e-01   1.12385360e-01   4.16310380e-01
C     1.186293197458999e+01   6.624489479995892e+00   4.001866200000000e+00 -1.73147260e-01   2.70969460e-01   1.30684230e-01
C     4.312006223952911e+00   7.028466428380050e+00   3.826354800000000e+00  5.24639730e-01   9.81447000e-02   5.91536200e-01
C     5.316799992580793e+00   5.989978957513197e+00   3.786046200000000e+00  4.63284030e-01   2.61954858e+00  -1.26188166e+00
C     6.656119206951789e+00   6.422177733482553e+00   3.537914100000000e+00  1.74474111e+00   1.54297382e+00   2.04549183e+00
C     7.732305207405607e+00   5.579920794948538e+00   3.883410300000000e+00 -8.06919740e-01  -3.16754741e+00  -2.05676492e+00
C     9.092890249600858e+00   5.935357634599502e+00   3.887568900000000e+00  1.84959299e+00  -8.82172610e-01   1.20380805e+00
C     1.017277014914606e+01   4.959209921194828e+00   4.011757500000000e+00 -5.26582333e+00  -3.49173083e+00  -1.17873631e+00
C     1.147815738614769e+01   5.214877764332130e+00   4.034131500000000e+00  3.92749568e+00   1.93231505e+00  -1.12864324e+00
C     3.595038851310200e+00   4.192714006296901e+00   3.830916300000000e+00  1.25692568e+00   1.31750392e+00   1.33679505e+00
C     5.022482028889311e+00   4.640978339058475e+00   3.850568100000000e+00 -3.36062821e+00  -1.19937357e+00   1.40445580e-01
C     6.021165070503526e+00   3.671612648045034e+00   3.926161500000000e+00  1.01673143e+00   1.97876869e+00  -1.51716494e+00
C     7.395578504588803e+00   4.161216506462135e+00   3.856506600000000e+00 -6.36133530e-01  -1.15778760e+00   2.20096606e+00
C     8.371977234164461e+00   3.147111388608716e+00   4.035915599999999e+00  1.79297523e+00   3.21018020e-01  -1.89741885e+00
C     9.761746852855879e+00   3.548321279862089e+00   3.825843600000000e+00  6.17420120e-01  -1.23222326e+00   1.38117830e+00
C     3.259546558926617e+00   2.801315145334526e+00   3.798992700000000e+00 -1.00115770e-01   3.25619825e+00  -7.89907800e-01
