26
Lattice="8.88768389401873 1.33226762955019e-15 0 4.44384194700937 7.69696003302603 0 0 0 30 " PBC="1 1 1" Properties=species:S:1:pos:R:3:force:R:3 Energy="-208.70476941"
C     1.260799335879329e+01   6.913900872874315e+00  -2.541825000000024e-01  2.38468690e-01   3.70548800e-01   7.01911930e-01
C     8.908146497789385e+00   6.691466963754547e+00   1.048260000000000e-02 -7.67848600e-02  -1.15599604e+00  -5.57908310e-01
C     1.026562240546645e+01   6.275105683651720e+00  -1.757099999998957e-03 -8.12443230e-01   2.22243059e+00  -1.37371670e-01
C     1.055433139454609e+01   4.934358592406766e+00  -4.487100000002187e-03  9.18425710e-01  -1.81976823e+00  -6.81935740e-01
C     6.511451665338960e+00   6.127054965353071e+00  -1.340832000000027e-01 -6.77325110e-01  -2.21924242e+00  -4.68466000e-01
C     7.895746647971253e+00   5.702284833387068e+00  -2.938680000000105e-02 -1.37060051e+00  -5.74319900e-02   5.24105840e-01
C     8.203671920543005e+00   4.302186252441984e+00   5.496810000000000e-02 -8.00156760e-01   4.85886650e-01  -1.05808388e+00
C     9.562382060899726e+00   3.913298809348640e+00  -2.344319999999911e-02 -1.14136680e-01   1.37475270e-01   6.36559060e-01
C     9.928841797348140e+00   2.549288195200214e+00  -1.006470000000022e-01 -1.49340344e+00  -6.16315900e-01  -1.81980800e-02
C     4.040745578510525e+00   5.576741873486547e+00  -2.928660000000001e-01  1.26338106e+00  -3.68064908e+00   4.18656620e-01
C     5.445648433758903e+00   5.121710219527396e+00  -2.488808999999996e-01 -2.05096570e-01   1.25891307e+00  -2.63053800e-02
C     5.781986920723829e+00   3.739395156853226e+00  -2.653988999999974e-01 -2.64625950e-01   5.37551100e-02   8.19920720e-01
C     7.146623857516996e+00   3.344323283345377e+00  -8.008620000000022e-02  1.08788300e-02  -3.50907520e-01  -3.17106760e-01
C     7.473562818871459e+00   1.953947348370989e+00  -1.251215999999999e-01  4.46153790e-01   1.97891520e-01  -3.16789920e-01
C     8.838781454584360e+00   1.572936743263545e+00  -1.549286999999993e-01  1.70470386e+00  -5.29868940e-01   5.89631350e-01
C     3.005383775195844e+00   4.543129811041897e+00  -1.998381000000009e-01  1.76447196e+00   3.82358140e-01  -3.14516350e-01
C     3.369160053231338e+00   3.154470298154198e+00  -2.804276999999971e-01  1.60137179e+00   9.22308390e-01   8.15869460e-01
C     4.743060889567413e+00   2.749924544423823e+00  -2.721558000000002e-01  7.52623930e-01  -8.16339270e-01  -3.86830230e-01
C     5.113199371652908e+00   1.323953479003498e+00  -2.234183999999999e-01 -3.00352160e-01   1.90213265e+00   1.59391230e-01
C     6.472261375412590e+00   9.316131796406952e-01  -1.895823000000014e-01 -2.80161510e-01   1.90572505e+00   2.98316350e-01
C     1.126210090281958e+01   7.290649825152348e+00  -1.363172999999982e-01 -3.25766130e-01  -1.21527687e+00  -1.47015740e-01
C     2.411193489973676e+00   2.165094743181166e+00  -1.422369000000003e-01 -1.44417144e+00  -1.75423769e+00  -5.54239200e-01
C     2.738166135640031e+00   7.592459173368692e-01  -1.589156999999979e-01 -1.39594000e-01   1.46097720e-01  -9.94623800e-02
C     4.121649494979926e+00   3.351464984678812e-01  -1.510242000000019e-01 -1.63936713e+00   1.26791652e+00   2.27464690e-01
C     3.017799290027529e-01   1.674948556960351e-01  -1.713327000000007e-01  7.20183560e-01   1.60142231e+00  -7.77049700e-01
C     6.128247354675027e+00   7.470930332063017e+00  -1.964319000000003e-01  5.23322310e-01   1.36117217e+00   6.69452100e-01
