32
Lattice="9.844 0 0 4.922 8.52515407485401 0 0 0 30 " PBC="1 1 1" Properties=species:S:1:pos:R:3:force:R:3 Energy="-258.08040306"
C     1.191596144185281e-03  -4.099724133379381e-04   3.000427479698311e+00 -8.94869600e-02  -2.92143100e-02  -1.07100600e-02
C     1.229752816816765e+00   7.100712989873159e-01   3.000771193610781e+00  4.78764600e-02   4.81793800e-02   6.67390000e-04
C     2.460379457751191e+00  -1.018575288151677e-04   3.000928538798304e+00  1.98968500e-02   3.89522600e-02  -6.99468000e-03
C     3.691233371472932e+00   7.100016205853166e-01   2.998991224066310e+00  2.99930800e-02   3.79762200e-02   2.07040300e-02
C     4.922822509882562e+00  -9.937232402376631e-04   3.000363108447041e+00 -5.69186100e-02   6.24279500e-02  -1.46002900e-02
C     6.152621829315373e+00   7.112902177114272e-01   2.999422445920150e+00 -9.58145000e-03  -3.83081000e-02   1.07197800e-02
C     7.382854476937979e+00   9.373589263199005e-04   3.000581676311890e+00  1.62398700e-02  -3.03919700e-02  -1.48593900e-02
C     8.614023307132046e+00   7.092867949533908e-01   2.998818058554428e+00  1.01776800e-02   5.37355100e-02   2.65693200e-02
C     1.230076208100132e+00   2.131443602648214e+00   3.000604709652976e+00  2.46894900e-02   7.09411000e-03  -5.56293000e-03
C     2.461564966571925e+00   2.842924385296875e+00   3.001140633480605e+00 -6.22363900e-02  -9.55624900e-02  -3.39174000e-03
C     3.691623530719301e+00   2.132490130686370e+00   3.000022775609627e+00 -5.02914000e-03  -7.04602500e-02  -3.12358000e-03
C     4.921630289968303e+00   2.842779502771879e+00   2.999271992284249e+00  2.79621300e-02  -7.44253200e-02  -1.54100000e-05
C     6.152256770757329e+00   2.131220094608347e+00   2.999108693163883e+00  1.34280900e-02   5.41785600e-02  -2.11796000e-03
C     7.383554223892965e+00   2.841929023059655e+00   2.999154709787129e+00 -9.11409000e-03  -2.44469900e-02   6.30101000e-03
C     8.614204033105441e+00   2.130464915973463e+00   3.000601314744913e+00 -4.32038600e-02   1.94771800e-02  -2.59279300e-02
C     9.843407523511640e+00   2.842338795217930e+00   2.999086782398786e+00  4.89234300e-02  -4.94984900e-02   2.58912500e-02
C     2.459832061010701e+00   4.261781103649498e+00   3.001150426089121e+00  1.05848470e-01   7.19521700e-02  -1.83737400e-02
C     3.690964274200616e+00   4.973809569665629e+00   2.999685378017478e+00 -2.29966000e-03  -7.83656700e-02   4.45033000e-03
C     4.921923663349147e+00   4.261810161472206e+00   2.999145382241876e+00 -4.36445400e-02   9.28781200e-02  -5.45650000e-04
C     6.151273542035623e+00   4.972904709457620e+00   2.998865018714689e+00  8.69829200e-02   1.41083000e-02   6.68283000e-03
C     7.383574217150648e+00   4.263018304282767e+00   2.999129036028898e+00 -4.14871800e-02   1.98017000e-03   5.41087000e-03
C     8.613586807646609e+00   4.974143951339781e+00   3.000585211210920e+00  3.42319800e-02  -5.30020900e-02  -7.52321000e-03
C     9.845074397091897e+00   4.262152252943171e+00   3.000858165649859e+00 -7.51194900e-02   6.14530100e-02  -2.20762500e-02
C     1.107541862088461e+01   4.972147000928043e+00   2.998812354935581e+00 -4.76463100e-02   3.56036200e-02   2.90558700e-02
C     3.691339573555892e+00   6.393627374742815e+00   2.999590997197119e+00 -2.36026400e-02   2.44596600e-02   1.74165000e-03
C     4.920857266363825e+00   7.103610993385126e+00   2.999666213272366e+00  8.17456700e-02   2.98630100e-02   7.43561000e-03
C     6.152568051461474e+00   6.394490300017095e+00   3.000472695545497e+00 -5.56918700e-02  -4.30438500e-02  -6.85091000e-03
C     7.382040718608064e+00   7.105497998817146e+00   3.001078411305334e+00  4.86125600e-02  -6.22158600e-02  -6.57340000e-03
C     8.613501378234858e+00   6.394315494158400e+00   2.999969070638128e+00 -4.36712000e-02   1.78044400e-02   9.35393000e-03
C     9.843318623766276e+00   7.104045473346265e+00   3.000022617211015e+00  8.83360400e-02  -2.62835400e-02   2.98451000e-03
C     1.107564794597169e+01   6.393143958248734e+00   3.000038411297514e+00 -5.61138800e-02   3.79472200e-02  -5.44735000e-03
C     1.230517787131133e+01   7.105247984863743e+00   3.000468551648809e+00 -2.00974600e-02  -3.48519800e-02  -3.27393000e-03
