32
Lattice="9.628 0 0 4.814 8.33809258763658 0 0 0 30 " PBC="1 1 1" Properties=species:S:1:pos:R:3:force:R:3 Energy="-256.65543774"
C     4.783187051823683e-03  -5.192000936003686e-03   2.990539328179815e+00 -5.52126000e-02   5.40169640e-01   1.41734110e-01
C     1.203412435556875e+00   7.069083226192757e-01   2.998639899480064e+00  3.01423290e-01  -9.09046470e-01  -5.86074300e-02
C     2.418983356931421e+00   6.952010551573993e-03   3.001703135799892e+00 -1.05342553e+00  -3.36042510e-01  -1.62029900e-02
C     3.610398259243869e+00   6.863488050167971e-01   2.991169085900181e+00  3.86504090e-01   1.01126266e+00   8.94328300e-02
C     4.811807695056920e+00   4.478294579228397e-04   3.006598535689493e+00  6.78996280e-01   2.27076480e-01  -1.52284300e-02
C     6.025450152465690e+00   7.033534336849049e-01   3.010534053178493e+00 -2.35044960e-01  -3.55891250e-01  -1.31379880e-01
C     7.233234893395128e+00   8.950637661104028e-03   2.992032545248536e+00 -1.08970504e+00  -9.23736870e-01   2.00108450e-01
C     8.417427567595675e+00   6.883106637989820e-01   3.007794214505223e+00  1.16194537e+00   3.77330760e-01  -1.38524110e-01
C     1.209984904510619e+00   2.082562220754623e+00   2.999169225906586e+00 -3.18809200e-01   6.28819410e-01  -1.17954000e-02
C     2.411135569054369e+00   2.783898184990260e+00   2.990925467534754e+00 -1.73890610e-01  -4.48109550e-01   9.25440200e-02
C     3.612438452436558e+00   2.092042528344634e+00   2.987862014108610e+00 -4.07940460e-01  -8.91308570e-01  -2.29575500e-02
C     4.802246146053320e+00   2.774891839141420e+00   2.991447862307137e+00  1.20996101e+00   6.83181200e-02   9.69879100e-02
C     6.025309827463256e+00   2.088455440563300e+00   3.004107788863059e+00 -5.24897030e-01  -6.55487300e-02  -6.82585500e-02
C     7.228336149387178e+00   2.778900513056096e+00   2.996995197436322e+00 -2.63006710e-01  -2.96552400e-01   1.46939560e-01
C     8.425221050342548e+00   2.080149052400820e+00   3.011709788140037e+00  2.20800610e-01   4.09330600e-02  -5.79228000e-02
C     9.628809882907285e+00   2.779162461293289e+00   3.007172771114194e+00  7.53520600e-02  -3.27268180e-01   2.35242700e-02
C     2.405962089871435e+00   4.163500330039195e+00   3.009044203695834e+00 -3.82069340e-01   5.89829020e-01  -2.05378880e-01
C     3.605440301824132e+00   4.855823576344409e+00   3.006953162182649e+00  5.76167080e-01   4.95531100e-01   7.83733700e-02
C     4.822361468757614e+00   4.158410980457597e+00   3.005345995298950e+00 -7.31441450e-01   5.02018910e-01  -4.35068300e-02
C     6.023420841589255e+00   4.852697002691644e+00   3.006153729599010e+00 -4.78874530e-01   6.44764970e-01  -5.10734600e-02
C     7.217505399353202e+00   4.159526809134457e+00   3.002728757480812e+00  4.19758180e-01   4.50985760e-01  -1.08042750e-01
C     8.416625341335980e+00   4.858300851086438e+00   2.989441973395823e+00  1.64454050e-01   6.26373100e-01   2.52898750e-01
C     9.621271326794448e+00   4.164744612659056e+00   3.005408612768506e+00  1.65438490e-01   4.28610100e-01  -2.11145870e-01
C     1.082470293671272e+01   4.868714221361256e+00   2.987873868433222e+00  2.91013850e-01  -1.41979510e-01   2.94448410e-01
C     3.601574452471487e+00   6.258031605448386e+00   3.010127467191739e+00  9.13367870e-01  -6.97314490e-01  -1.21372410e-01
C     4.826384810311675e+00   6.948496101029738e+00   2.995868716967522e+00 -1.24769005e+00  -4.63650200e-02  -1.07242100e-02
C     6.007934490598350e+00   6.255935065014649e+00   2.994528770834430e+00  1.13874528e+00  -7.10099120e-01   1.46105130e-01
C     7.222205619471745e+00   6.951442924014246e+00   3.011047867894600e+00 -4.27594060e-01   1.90863900e-01  -8.82259200e-02
C     8.419036593226709e+00   6.264997639054498e+00   3.013348010073099e+00  6.49871500e-01  -8.64363850e-01  -1.56926780e-01
C     9.638557113204683e+00   6.953604353554175e+00   3.007210235267797e+00 -7.15167670e-01  -7.01944500e-02   6.54908600e-02
C     1.083968298030031e+01   6.264892306781271e+00   3.005503302495606e+00 -5.46564860e-01  -9.12760420e-01  -1.24645640e-01
C     1.203534300485690e+01   6.940638217072675e+00   2.999896533727829e+00  2.97535120e-01   1.17369442e+00   1.33322100e-02
