32
Lattice="9.86 0 0 4.93 8.53901048131456 0 0 0 30 " PBC="1 1 1" Properties=species:S:1:pos:R:3:force:R:3 Energy="-255.27699921"
C     4.994818801899999e+00   8.472575697614028e+00  -6.510950999999991e-01 -4.09217542e+00  -4.47000306e+00   5.11344300e-02
C     1.216713104700000e+00   6.247407338196025e-01  -6.842171999999991e-01  2.99094532e+00  -1.18702785e+00   8.04562150e-01
C     7.355261094099999e+00   8.425668522124454e+00  -6.614588999999995e-01  3.98381377e+00  -9.58061430e-01  -7.07206250e-01
C     3.764747911500000e+00   5.324567442986792e-01  -7.538274000000023e-01 -2.43319017e+00   2.72296478e+00   1.34473423e+00
C     9.912119319099999e+00   8.381376674764693e+00  -6.278028000000013e-01 -1.15152276e+00   2.29115090e-01   3.46626620e-01
C     6.185102127300000e+00   5.434845347731800e-01  -5.446823999999992e-01  1.31216636e+00   1.84999504e+00  -1.01759193e+00
C     1.233097185690000e+01   8.387986039656424e+00  -5.921084999999984e-01  2.02308465e+00  -1.66673779e+00   2.40482300e-01
C     8.644777628700000e+00   5.640888255010007e-01  -6.611231999999987e-01 -1.66491130e-01  -1.27349280e-01  -4.51284000e-03
C     1.285793201400000e+00   1.992273594394283e+00  -5.188937999999972e-01 -2.12826693e+00   9.39861200e-01  -1.84512940e+00
C     2.483173656200000e+00   2.663085790747783e+00  -5.369013000000002e-01  3.43166210e+00   2.99677056e+00   2.21412120e-01
C     3.779939361400000e+00   2.040129624728395e+00  -6.494555999999996e-01 -9.73062710e-01  -3.82606102e+00   1.90428930e-01
C     5.024533045799999e+00   2.696911885302835e+00  -5.773850999999972e-01 -1.83345285e+00   7.77298600e-01  -4.76172920e-01
C     6.257741092400000e+00   2.011770033902429e+00  -6.261437999999977e-01 -2.89602624e+00  -2.49896621e+00   6.92537110e-01
C     7.420156113800000e+00   2.721800709929101e+00  -6.177677999999993e-01  1.94571058e+00  -3.06983539e+00  -1.15659107e+00
C     8.629520659099999e+00   1.952580260348318e+00  -7.397061000000029e-01  1.52134395e+00   1.86890241e+00   9.70772490e-01
C     9.902663776300001e+00   2.675156962912835e+00  -6.957371999999999e-01 -1.49048613e+00  -4.58483660e-01   9.64374400e-01
C     2.533908089000000e+00   4.119267157131526e+00  -4.691228999999986e-01 -2.06310728e+00   5.70019440e-01  -2.65838020e-01
C     3.803570379700000e+00   4.880461278421529e+00  -4.291725000000000e-01 -3.54616319e+00  -4.46460930e+00  -1.07722483e+00
C     4.939112168299999e+00   4.116195418891556e+00  -5.772957000000005e-01  3.61715787e+00   3.49179720e-01   3.00850350e-01
C     6.206102053900000e+00   4.814068934917643e+00  -6.840291000000001e-01 -1.71171040e+00   2.62776110e-01   1.56087230e-01
C     7.404090032599999e+00   4.069730307974531e+00  -6.974000999999994e-01 -1.47991230e-01   3.44905507e+00   6.09022260e-01
C     8.596061143499998e+00   4.785273512996777e+00  -5.871108000000014e-01  1.79064754e+00   2.21056274e+00  -7.31556750e-01
C     9.813464004500000e+00   4.072327106451604e+00  -6.078767999999997e-01  2.34073389e+00   1.44438335e+00  -2.03522500e-02
C     1.107746813420000e+01   4.823190903643112e+00  -5.633687999999992e-01  1.39397872e+00  -5.13927140e-01   8.09219320e-01
C     3.767267930300000e+00   6.219906003313402e+00  -5.856728999999987e-01 -4.82342240e-01   3.07926605e+00   6.77009270e-01
C     4.943700420699999e+00   6.952918059805318e+00  -5.898998999999989e-01  2.91519044e+00   2.40762304e+00  -1.14986547e+00
C     6.181877315700000e+00   6.241492792587052e+00  -7.000112999999999e-01  1.28059366e+00   5.11564590e-01   9.06030960e-01
C     7.459874264400000e+00   6.986923046629927e+00  -6.427388999999977e-01 -2.57778088e+00   1.60271790e-01  -3.16666890e-01
C     8.681458159800000e+00   6.279723052577374e+00  -5.836814999999973e-01 -1.24113629e+00  -1.82230338e+00   1.72101040e-01
C     9.900004928700000e+00   6.982606833002601e+00  -5.061666000000002e-01  2.24496530e-01  -7.79767100e-01  -8.04722310e-01
C     1.110690915750000e+01   6.261740835797648e+00  -5.240028000000017e-01  2.08440587e+00  -9.80868540e-01   5.54970600e-02
C     1.242649494530000e+01   6.935497624525070e+00  -5.624997000000000e-01 -3.92102544e+00   9.94391560e-01   6.05486400e-02
