26
Lattice="8.88768389401873 1.33226762955019e-15 0 4.44384194700937 7.69696003302603 0 0 0 30 " PBC="1 1 1" Properties=species:S:1:pos:R:3:force:R:3 Energy="-208.06788918"
C     1.121587801849762e+00   1.390922496106119e+00   3.823677000000000e+00  5.98139640e-01   3.38197186e+00   4.50221430e-01
C     3.555087510178072e+00   7.918084455309864e-01   3.846705300000000e+00 -1.71298305e+00   1.43744118e+00   7.74335050e-01
C     4.886714834058033e+00   1.177801369835449e+00   3.708835200000000e+00 -1.84687180e-01   3.37757835e+00   4.10263910e-01
C     5.909525493363684e+00   2.748689875065411e-01   3.618359700000000e+00  1.69072805e+00  -2.18881269e+00  -4.24337900e-01
C     7.279838105574972e+00   6.278912907960958e-01   3.577298100000000e+00  9.20215600e-01   6.30820900e-01   3.84722850e-01
C     1.275146137422798e+01   7.329211594902648e+00   3.663462900000000e+00 -2.81117200e-01   9.97676390e-01   3.01590780e-01
C     7.964000235247454e-01   6.301023965039140e-02   3.877150500000000e+00 -7.25111860e-01  -3.38068493e+00  -1.15763012e+00
C     6.288943922378489e+00   6.716461917816768e+00   3.857721600000000e+00 -8.05336280e-01   2.86721603e+00   1.18360350e-01
C     7.644787740773095e+00   7.144731703569211e+00   3.924058800000000e+00 -2.04877350e-01  -1.75154668e+00  -1.11009453e+00
C     8.635429161541568e+00   6.138959776461872e+00   3.730011000000000e+00  2.77784206e+00   1.95064413e+00   5.71662800e-02
C     1.007997668676788e+01   6.588608022636840e+00   3.592287600000000e+00 -4.36030672e+00  -4.79038780e-01   3.31405090e-01
C     1.102961513342647e+01   5.597107029121124e+00   3.530129400000000e+00 -2.94673820e-01  -2.18486039e+00   1.24687624e+00
C     3.462858018083475e+00   5.965410107158236e+00   3.636276300000000e+00  3.98401710e+00   4.25988270e-01  -6.55003120e-01
C     4.563344412697278e+00   5.025994673074331e+00   3.620162700000000e+00 -1.00434357e+00  -1.50533087e+00   1.00663873e+00
C     5.943980203069128e+00   5.389897014214292e+00   3.655415100000000e+00 -6.05196760e-01  -1.00316303e+00   1.15866558e+00
C     6.957593575949604e+00   4.384031107224986e+00   3.753719100000000e+00  4.40717970e-01  -2.11336360e-01  -1.02329983e+00
C     8.338403431635152e+00   4.785976981796428e+00   3.704502300000000e+00 -1.54670685e+00  -2.64361230e-01  -1.27588490e-01
C     9.352509404411689e+00   3.805445849654668e+00   3.626747100000000e+00 -8.08147590e-01  -8.09147800e-02   8.75641820e-01
C     1.067207960745096e+01   4.193481085333491e+00   3.707331600000000e+00  2.83351000e+00   6.86764300e-02  -1.28164202e+00
C     2.853782372989537e+00   3.183620071240613e+00   3.749579700000000e+00 -8.61799560e-01   1.08296274e+00   1.13477049e+00
C     4.230430126338005e+00   3.629601331718089e+00   3.793772100000000e+00 -2.94719850e-01  -8.54672390e-01  -1.35402032e+00
C     5.225019945093454e+00   2.593693266096489e+00   3.739161600000000e+00  1.11854671e+00   4.82945860e-01  -1.49100630e-01
C     6.642676627282258e+00   2.998069224888603e+00   3.676110600000000e+00 -2.53348694e+00  -9.63480000e-04   1.43547490e-01
C     7.631155585691468e+00   2.004629367141329e+00   3.600739200000000e+00  1.12783616e+00   7.21992310e-01   4.98423620e-01
C     8.996097370595525e+00   2.461554473267860e+00   3.691563000000000e+00  1.53232020e-01  -3.44813186e+00  -2.26448060e-01
C     2.504136488455190e+00   1.800904843614484e+00   3.927081000000000e+00  5.78709270e-01  -7.20969800e-02  -1.38346470e+00
