32
Lattice="9.86 0 0 4.93 8.53901048131456 0 0 0 30 " PBC="1 1 1" Properties=species:S:1:pos:R:3:force:R:3 Energy="-252.88641908"
C     5.617169726200000e+00   8.163796966597273e+00  -6.690641999999976e-01 -9.88768650e-01  -9.23832870e-01   9.69478570e-01
C     1.882644588100000e+00   4.334587016175416e-01  -7.314951000000001e-01 -8.27880800e-02  -1.22317871e+00   8.78736750e-01
C     8.030228528000000e+00   8.294295248158919e+00  -8.378118000000008e-01  1.27043026e+00  -4.22326519e+00   2.75020600e-01
C     4.381117759800000e+00   3.354311174774560e-01  -6.658013999999994e-01 -2.81625040e-01  -1.04387420e-01  -5.38688480e-01
C     1.055684785850000e+01   8.127221225277555e+00  -7.901868000000007e-01 -2.45400758e+00  -1.11987377e+00   1.67598395e+00
C     6.829930154099999e+00   2.635202676706600e-01  -7.233540000000005e-01  1.54203415e+00   7.79646860e-01   5.98895520e-01
C     1.301516775780000e+01   8.115694329640498e+00  -5.468384999999998e-01  7.05226210e-01  -6.02199500e-02  -5.37282200e-01
C     9.333957217300000e+00   2.858625885915800e-01  -6.689654999999988e-01 -2.81885685e+00   2.41436839e+00   1.79368520e+00
C     1.850425904200000e+00   1.798469309276640e+00  -3.379367999999978e-01 -1.99662260e-01  -5.76638400e-02   8.91510850e-01
C     3.111881667600000e+00   2.465700244634828e+00  -6.094739999999987e-02  7.68651120e-01  -3.64716750e+00  -1.75182479e+00
C     4.402494782100000e+00   1.689156739666396e+00  -3.403010999999978e-01 -1.02904161e+00   3.16473386e+00  -1.03317915e+00
C     5.630500544799999e+00   2.435486493073233e+00  -6.019611000000005e-01 -2.21365186e+00   1.07094178e+00   2.61582220e+00
C     6.835535219000000e+00   1.714164683488858e+00  -6.409053000000000e-01 -2.33900059e+00  -1.58043161e+00  -9.27395070e-01
C     7.968775437100000e+00   2.399730496759596e+00  -4.464174000000014e-01  2.81098009e+00   4.46960851e+00   1.14276106e+00
C     9.182763681499999e+00   1.751903096475532e+00  -3.657509999999995e-01  3.40179952e+00  -2.26389710e+00  -1.23602902e+00
C     1.042374170390000e+01   2.426142168514865e+00  -1.267107000000003e-01  5.81799520e-01   1.87339713e+00  -5.56611310e-01
C     3.122232843500000e+00   3.824164846859957e+00   1.000020000000000e-01  1.01774423e+00   2.45136367e+00  -8.24788640e-01
C     4.342008957200000e+00   4.556393619920542e+00  -9.425849999999869e-02  1.30207074e+00   4.91852500e-02   2.65694600e-01
C     5.593682515999999e+00   3.885817612596920e+00  -3.540764999999979e-01  6.67169130e-01  -2.06064330e-01  -5.66878710e-01
C     6.857798310200000e+00   4.661115361326424e+00  -4.700760000000024e-01 -1.68489869e+00  -4.30015170e-01   6.12590180e-01
C     8.053648197199999e+00   3.942677004800935e+00  -2.971080000000015e-01 -1.16316727e+00  -3.40842817e+00  -1.75516280e+00
C     9.332087564100000e+00   4.552112757796604e+00  -3.177579000000001e-01 -5.11274094e+00   3.48052477e+00  -6.17239200e-02
C     1.043795080200000e+01   3.907716075753090e+00  -2.275530000000003e-02  6.27958251e+00  -3.15448449e+00   2.54029850e-01
C     1.180137010720000e+01   4.589864491639627e+00   2.142030000000000e-02 -3.86863663e+00   1.09766013e+00   2.90756440e-01
C     4.339366920900000e+00   6.007616297528446e+00  -1.265424000000017e-01  2.38703954e+00  -2.05157391e+00  -3.01453370e-01
C     5.530090741800000e+00   6.702711988055283e+00  -3.541533000000001e-01  2.43655961e+00   3.16131487e+00  -2.43674203e+00
C     6.775700795000001e+00   6.120161224165789e+00  -6.152787000000011e-01  5.59521560e-01  -3.46399859e+00   7.34969680e-01
C     8.000993332199998e+00   6.744140705201099e+00  -8.750190000000018e-01  1.13842239e+00   1.99314894e+00   1.62015804e+00
C     9.232076548799999e+00   5.968449649648886e+00  -5.520311999999983e-01  2.27615850e-01   1.98519991e+00  -6.19928460e-01
C     1.043295355680000e+01   6.711767608669323e+00  -4.653194999999997e-01  3.50531824e+00  -6.38434900e-02  -4.93098390e-01
C     1.175819587870000e+01   6.050188388177534e+00  -1.247921999999981e-01 -3.90334070e-01  -1.33612634e+00  -1.15974366e+00
C     1.307295682340000e+01   6.722658945756353e+00  -2.627214000000002e-01 -5.97478455e+00   1.32735838e+00   1.80436500e-01
