26
Lattice="8.88768389401873 1.33226762955019e-15 0 4.44384194700937 7.69696003302603 0 0 0 30 " PBC="1 1 1" Properties=species:S:1:pos:R:3:force:R:3 Energy="-207.91760659"
C     4.808512506657041e-01   6.105922961590706e-01   3.814293000000000e+00 -1.20532979e+00  -7.52163390e-01   1.11877439e+00
C     7.295357606002661e+00   7.666988760369582e+00   3.767740200000000e+00 -1.27205069e+00   1.32163590e-01   8.57523130e-01
C     4.203177374716100e+00   3.571582647616753e-01   3.805314900000000e+00 -5.71313170e-01   1.14466928e+00  -6.68921580e-01
C     9.631603744479747e+00   7.055470135070901e+00   3.856903800000000e+00  3.91511220e-01  -1.57005955e+00  -8.32810730e-01
C     1.100168900975498e+01   7.435971509302759e+00   3.863376300000000e+00  3.53034790e-01   2.08297700e-01  -2.80631940e-01
C     1.210118527195930e+01   6.518535591250123e+00   3.809368200000000e+00 -1.41884430e+00  -1.43649977e+00   1.44893729e+00
C     4.560096854240491e+00   6.929636076142045e+00   3.860693100000000e+00  4.99471500e-02  -3.75019190e-01  -6.02306660e-01
C     5.539615871887879e+00   5.933431470351995e+00   3.836315700000000e+00  1.99923010e+00  -2.31119582e+00   2.03698120e-01
C     6.948086999407708e+00   6.255599200878090e+00   3.842642700000000e+00 -1.34631826e+00   1.89779708e+00  -9.39692700e-01
C     7.925248381145165e+00   5.252576012136664e+00   3.703572600000000e+00  1.36141670e-01  -1.35433450e-01   9.04583550e-01
C     9.284268168901338e+00   5.622188420044481e+00   3.730225500000000e+00  1.42042284e+00   3.10965788e+00   4.44711700e-01
C     1.039539218796606e+01   4.746504507735378e+00   3.743527800000000e+00 -1.18194084e+00  -1.38383422e+00   9.46553330e-01
C     1.176340333443275e+01   5.097551925020436e+00   3.936241500000000e+00  5.08574800e-02   1.72238008e+00  -2.08233134e+00
C     3.890951886695178e+00   4.103550420099773e+00   3.831940200000000e+00 -4.31723050e-01   1.50316997e+00   7.12980690e-01
C     5.248411263801351e+00   4.489429891213393e+00   3.823668300000000e+00 -1.01324994e+00   2.00548148e+00   7.34650710e-01
C     6.239401126229953e+00   3.504010034908579e+00   3.923831100000000e+00 -6.05963500e-01  -1.68215010e-01  -1.60019550e+00
C     7.559245247678147e+00   3.878851295643176e+00   3.793008300000000e+00  2.30385396e+00   8.46494160e-01  -8.27058000e-02
C     8.625977951987434e+00   2.956899725080139e+00   3.753442800000000e+00  3.29574050e-01  -2.21103639e+00   1.33773793e+00
C     1.001744311858078e+01   3.370136193349987e+00   3.764271600000000e+00 -4.53429900e-02  -7.46909630e-01  -1.24067005e+00
C     2.184645716752892e+00   2.396046339178932e+00   3.646949400000000e+00 -2.55497296e+00  -7.05716670e-01   2.27207201e+00
C     3.506385847804678e+00   2.769867598770354e+00   3.822754499999999e+00  1.03004179e+00  -1.03803935e+00  -1.57960452e+00
C     4.502931756936736e+00   1.779001681426713e+00   3.710496000000000e+00  1.40375662e+00  -1.40303906e+00   1.16751893e+00
C     5.884983310915702e+00   2.145765213518626e+00   3.771061800000000e+00 -5.67548250e-01  -1.06404207e+00   1.04248177e+00
C     6.870649495103340e+00   1.115280964721367e+00   3.867883500000000e+00  2.09653306e+00   1.06868290e+00   1.45574750e-01
C     8.298810397555567e+00   1.502861771880018e+00   3.954398700000000e+00 -1.09514057e+00   2.95317499e+00  -2.07595845e+00
C     1.817177270842004e+00   1.020897069323092e+00   3.807895199999999e+00  1.74483358e+00  -1.29076556e+00  -1.35196904e+00
