32
Lattice="9.86 0 0 4.93 8.53901048131456 0 0 0 30 " PBC="1 1 1" Properties=species:S:1:pos:R:3:force:R:3 Energy="-257.3064849"
C     1.288345511700000e+00   5.496269865718633e-01   3.383817600000000e+00  3.92983260e-01   1.40033379e+00  -4.30465900e-02
C     2.526738932300000e+00   1.285761929976524e+00   3.432119400000000e+00 -8.55553250e-01   1.27929009e+00  -5.85349400e-02
C     3.770645719800000e+00   5.886824565349729e-01   3.431458200000000e+00 -1.46085099e+00   2.66226440e-01   3.11539180e-01
C     4.977039151300000e+00   1.297683754848281e+00   3.490921200000000e+00  5.09759840e-01   6.40509060e-01  -3.99148350e-01
C     6.191623482000001e+00   5.887564043657296e-01   3.477798600000000e+00  1.42032965e+00  -5.07072360e-01  -1.83967890e-01
C     7.456372436100000e+00   1.277667631162322e+00   3.376852200000000e+00 -2.14958107e+00   1.72907560e+00  -2.38328210e-01
C     8.659290020400000e+00   6.167213221273103e-01   3.301781400000000e+00  9.23269220e-01  -1.03407444e+00   5.25423580e-01
C     9.910981277899999e+00   1.284428819660386e+00   3.350361300000000e+00  2.88323250e-01  -4.14200200e-02  -4.94465100e-02
C     2.481123811500000e+00   2.759633393591475e+00   3.485339400000000e+00  1.15920964e+00  -2.18506044e+00  -1.58803520e-01
C     3.753109512600000e+00   3.430250644335715e+00   3.511461000000000e+00 -1.12731798e+00   3.99805020e-01  -1.76507320e-01
C     4.984646239900000e+00   2.729770595360609e+00   3.454288500000000e+00 -7.95672520e-01  -4.03168410e-01   6.88495400e-02
C     6.190458029999999e+00   3.448067460482445e+00   3.366179700000000e+00  1.22573861e+00  -9.66086120e-01   3.68419410e-01
C     7.439101906599999e+00   2.707482838716656e+00   3.325304700000000e+00 -6.75902330e-01   6.38748240e-01   3.42807460e-01
C     8.648647234999999e+00   3.438656617032437e+00   3.368547000000000e+00  9.51804390e-01  -7.35263690e-01   4.07342710e-01
C     9.898375169299999e+00   2.690625721957774e+00   3.414539400000000e+00 -7.92093650e-01   1.37538331e+00  -3.96776140e-01
C     1.109700907660000e+01   3.447567416028736e+00   3.460465200000000e+00  1.04225529e+00  -1.74380277e+00   4.34141870e-01
C     3.727240027800000e+00   4.857929989198687e+00   3.521112300000000e+00  1.17525243e+00  -1.99943190e-01   9.78980000e-03
C     4.961236036300000e+00   5.577564575702318e+00   3.448702500000000e+00  1.88166680e-01   6.96084980e-01   7.28380000e-03
C     6.213471960200000e+00   4.851535295030424e+00   3.406546500000000e+00 -3.83247270e-01   1.42076173e+00  -2.74186260e-01
C     7.466372645300000e+00   5.575533486669547e+00   3.384022500000000e+00 -1.18239126e+00  -5.05279100e-02   2.92959730e-01
C     8.665682800699999e+00   4.869112933493609e+00   3.469935000000000e+00  1.20242774e+00  -8.02273970e-01  -5.62214400e-01
C     9.928349273499999e+00   5.561103412859395e+00   3.544119300000000e+00 -1.67349010e+00   7.65940490e-01  -2.66779830e-01
C     1.112517737110000e+01   4.825780529351381e+00   3.549653100000000e+00  2.61421050e-01   2.05953298e+00   1.92538460e-01
C     1.236510387380000e+01   5.553574140368655e+00   3.590875500000000e+00 -1.55354060e-01  -2.65837970e-01  -5.35836090e-01
C     4.954004663000000e+00   7.040939631464940e+00   3.405340200000000e+00  5.60838080e-01  -1.89719125e+00  -1.51728330e-01
C     6.228981543000000e+00   7.682012845239533e+00   3.380920800000000e+00 -8.19237290e-01   4.74518310e-01  -2.23426520e-01
C     7.471467307299999e+00   6.998073884245444e+00   3.368390700000000e+00 -1.50901936e+00  -8.07468850e-01   2.66399380e-01
C     8.658904691600000e+00   7.711338198150787e+00   3.419991300000000e+00  1.52799479e+00   1.41347560e-01   1.94189900e-01
C     9.887904687399999e+00   7.008160248814525e+00   3.516715500000000e+00  8.58198180e-01  -1.15695808e+00   5.52539900e-02
C     1.112794152350000e+01   7.701967061099511e+00   3.527825700000000e+00  3.06033620e-01  -2.76224050e-01  -1.03613320e-01
C     1.237962380840000e+01   6.958892549267859e+00   3.522316200000000e+00 -8.99785510e-01   2.12847551e+00  -2.74721550e-01
C     1.357786267480000e+01   7.754893128906123e+00   3.367680000000000e+00  4.85490930e-01  -2.34365961e+00   6.20126960e-01
