32
Lattice="9.86 0 0 4.93 8.53901048131456 0 0 0 30 " PBC="1 1 1" Properties=species:S:1:pos:R:3:force:R:3 Energy="-256.68680153"
C     9.928484010400000e+00   3.302506705994496e-01  -1.168541999999988e-01 -1.91175917e+00  -4.52397190e-01  -8.30568700e-02
C     1.283153285000000e+00   1.057144867642864e+00  -2.049774000000006e-01 -6.90655140e-01  -1.10881948e+00   2.29562530e-01
C     2.468448189900000e+00   3.178630427060088e-01  -1.050821999999982e-01  1.81690408e+00   2.54926930e-01   1.30374640e-01
C     3.717971923600000e+00   1.032968025710421e+00  -1.250472000000009e-01 -4.92742530e-01  -1.11047470e-01  -1.02724720e+00
C     4.946104387300000e+00   2.982573038637192e-01  -1.211918999999995e-01 -4.39929220e-01   1.94801149e+00   2.41642270e-01
C     6.161283621100000e+00   1.004945128067681e+00  -1.027193999999980e-01  1.59356638e+00   5.14034640e-01   2.09796090e-01
C     7.405255928299999e+00   2.810131137597784e-01  -9.461100000000044e-02  1.09577937e+00   3.98511070e-01  -6.28588560e-01
C     8.665249059299999e+00   1.001344910469103e+00  -9.913170000000093e-02 -4.81736810e-01   1.61359603e+00  -1.02497300e-01
C     1.114213272570000e+01   2.447008777644631e+00  -3.861239999999988e-01 -4.26399810e-01   1.13021863e+00   1.58728420e-01
C     2.501012220300000e+00   3.161205124543867e+00  -5.320485000000019e-01  6.01813240e-01  -8.50879710e-01   6.91167830e-01
C     3.738057384500000e+00   2.454961158104656e+00  -3.568557000000006e-01 -6.78319580e-01  -1.24305588e+00   1.95597770e-01
C     4.964669682699999e+00   3.121771461806598e+00  -2.775891000000001e-01 -3.48828700e-02   2.68442980e+00   4.96112280e-01
C     6.175000754500000e+00   2.441264585294735e+00  -8.180549999999798e-02  1.09333277e+00  -2.43575230e-01  -4.56494050e-01
C     7.431882414600000e+00   3.184768950913950e+00  -6.552359999999879e-02 -3.02691950e-01  -1.92137723e+00   1.36517210e-01
C     8.662907013500000e+00   2.481295466424975e+00  -1.096305000000015e-01  9.15788410e-01  -1.60008976e+00  -3.46882090e-01
C     9.926853511499999e+00   3.185116915591010e+00  -2.831147999999999e-01 -1.85211333e+00  -6.21216800e-02  -2.50908600e-01
C     1.235352034580000e+01   4.553920039364696e+00  -5.462729999999993e-01 -6.22277000e-01   2.02466205e+00   6.17572870e-01
C     3.723088326900000e+00   5.310929020838240e+00  -4.177020000000020e-01  2.33407440e-01  -1.81859905e+00   2.42768780e-01
C     4.945554199300000e+00   4.605968126113755e+00  -2.370465000000017e-01  1.07885876e+00  -1.33133622e+00  -1.37543300e-01
C     6.192948320899999e+00   5.295180182249557e+00  -7.931700000000319e-03 -9.98106000e-03   1.44522300e-02  -7.04080000e-02
C     7.460605777800000e+00   4.568796874203161e+00  -1.269929999999775e-02 -2.34217873e+00   1.53094360e+00  -1.80364440e-01
C     8.642183117600000e+00   5.308472432913249e+00  -9.857729999999876e-02  1.06370735e+00   6.77108310e-01  -5.30424500e-02
C     9.869196372699999e+00   4.639347459640494e+00  -3.483440999999985e-01 -1.00176200e-02  -2.45231033e+00   9.63866600e-01
C     1.109398245100000e+01   5.275130671032622e+00  -3.855572999999985e-01  1.90699270e+00   2.07410378e+00  -2.75982710e-01
C     1.359576330760000e+01   6.696214654981051e+00  -3.086996999999982e-01  4.98437520e-01   1.30939482e+00   5.27865860e-01
C     4.944870802700000e+00   7.436310247616650e+00  -9.732389999999924e-02  1.68264498e+00  -4.00424740e-01   1.52304610e-01
C     6.211358173399999e+00   6.732647538655439e+00   8.470980000000000e-02 -1.90222116e+00  -1.00845687e+00  -1.34413897e+00
C     7.424863228500000e+00   7.428815045777726e+00   2.294850000000000e-02  6.87574600e-02   1.05518850e+00   3.10186190e-01
C     8.652959653900000e+00   6.735482404744694e+00  -1.391880000000256e-02  6.23808040e-01  -1.37621410e-01  -6.03866690e-01
C     9.895856432300000e+00   7.466979982337875e+00  -1.360722000000010e-01 -1.21735490e-01  -2.88344285e+00   5.14314660e-01
C     1.114176618020000e+01   6.733000541348681e+00  -2.081295000000019e-01 -1.23342925e+00  -1.63155230e+00  -1.06311474e+00
C     1.237342167120000e+01   7.385637966236130e+00  -2.707029000000034e-01 -7.20727760e-01   2.02752554e+00   8.05757350e-01
