32
Lattice="9.86 0 0 4.93 8.53901048131456 0 0 0 30 " PBC="1 1 1" Properties=species:S:1:pos:R:3:force:R:3 Energy="-250.42935812"
C     9.610780316200000e+00   8.292050342303728e-01   4.505169600000000e+00  6.08187730e-01  -2.20340015e+00  -1.16039007e+00
C     9.865707953999999e-01   1.480101184100739e+00   4.328193000000000e+00  2.83019664e+00  -1.26822632e+00   1.42322100e-01
C     2.327248750100000e+00   7.601894213169256e-01   4.548152400000000e+00 -2.88854393e+00  -1.10989636e+00  -4.69584410e-01
C     3.537033775099999e+00   1.403257177159438e+00   4.238324700000000e+00  2.69679200e-01   5.86165950e-01   1.12928611e+00
C     4.825969210600000e+00   8.182636585419296e-01   4.416841500000000e+00 -4.68980743e+00  -5.41281102e+00  -2.17543180e-01
C     5.985475975700000e+00   1.431825290621326e+00   4.314220500000000e+00  5.32569048e+00   2.88397872e+00   2.38545000e-01
C     7.294186232800000e+00   7.353737760104736e-01   4.430508600000000e+00 -6.16835896e+00  -1.98085630e+00  -1.29253754e+00
C     8.352541772200000e+00   1.545182960276155e+00   4.434047700000001e+00  4.91924786e+00  -1.91712540e+00  -7.18194480e-01
C     1.093134027200000e+01   2.828278584230299e+00   3.915764700000000e+00 -4.45042570e-01   4.53570810e-01   1.59426058e+00
C     2.326285773200000e+00   3.584099703955971e+00   4.069051500000000e+00 -2.85829145e+00  -1.34776433e+00  -1.42059734e+00
C     3.540399584700000e+00   2.779035903984340e+00   4.107671400000000e+00 -6.47738930e-01   3.03844366e+00  -4.46324940e-01
C     4.753220109299999e+00   3.509088339443887e+00   4.143888600000000e+00  3.65464230e-01   2.13677664e+00   2.56680959e+00
C     6.031848985400000e+00   2.894582463585613e+00   4.271749800000000e+00 -1.57787867e+00   8.70824500e-02   7.17619510e-01
C     7.212033255100000e+00   3.713560410354194e+00   4.510426799999999e+00  1.54140290e-01  -4.79506419e+00  -2.71216126e+00
C     8.397151863200000e+00   2.891994460289335e+00   4.165681200000000e+00  1.16479490e-01   2.57766451e+00   1.50069734e+00
C     9.655720569300000e+00   3.480078929920392e+00   3.910521900000000e+00  3.50950860e-01   4.05810002e+00   6.28930010e-01
C     1.200517689880000e+01   4.997687290604008e+00   4.105402499999999e+00  6.10391914e+00  -1.28827396e+00   2.22211424e+00
C     3.452440250200000e+00   5.637704399562436e+00   4.589447100000000e+00 -3.70029463e+00  -5.45189800e-01  -3.11170050e+00
C     4.600632616000000e+00   4.947942772712139e+00   4.584046800000000e+00  5.72676714e+00  -2.09964790e+00  -2.45998960e-01
C     5.825781394400000e+00   5.761823527954894e+00   4.847400300000000e+00  2.33475088e+00  -2.92567013e+00  -2.11749605e+00
C     7.210848970499999e+00   5.048825631176527e+00   4.605151200000000e+00 -1.70060837e+00   3.35818878e+00   9.29041730e-01
C     8.496201824299998e+00   5.760448491097300e+00   4.476946200000000e+00 -1.89835451e+00  -4.27696788e+00  -7.02192410e-01
C     9.683770987499999e+00   4.997849275632813e+00   4.028988300000000e+00 -2.27771814e+00  -1.49263850e-01   1.30014678e+00
C     1.087021290620000e+01   5.738814310315486e+00   4.150785000000000e+00 -9.67305610e-01  -5.09640740e-01  -3.89294290e-01
C     1.345509655430000e+01   6.960579430788183e+00   4.350662700000000e+00 -3.31434400e+00   7.43310444e+00   4.97966040e-01
C     4.758432253200000e+00   7.834457579196248e+00   4.499926500000000e+00 -6.22888054e+00   3.24010106e+00  -2.89778170e-01
C     5.834541412799999e+00   7.173341258462579e+00   4.763145300000000e+00  7.68450764e+00  -1.23730776e+00   1.84932515e+00
C     7.197133020300001e+00   7.914361625933163e+00   4.866703200000000e+00 -8.56948450e-01  -2.26521462e+00  -1.30512086e+00
C     8.409668935999999e+00   7.082424022959084e+00   4.725875100000000e+00  2.02894336e+00   6.00333110e+00  -2.72306720e-01
C     9.679371110399998e+00   7.877099006610433e+00   4.543079700000000e+00  6.50999900e-01  -5.74281300e-01   1.94932310e-01
C     1.093435043140000e+01   7.141821379857965e+00   4.399899600000000e+00 -1.98181774e+00   1.61153013e+00  -1.07072698e+00
C     1.214862515810000e+01   7.851779047345033e+00   4.210287299999999e+00  2.73200907e+00  -1.56143629e+00   2.42995167e+00
