32
Lattice="9.86 0 0 4.93 8.53901048131456 0 0 0 30 " PBC="1 1 1" Properties=species:S:1:pos:R:3:force:R:3 Energy="-255.05963341"
C     9.680071564800000e+00   5.798124740087680e-01   4.762818600000000e+00 -6.18163050e-01  -2.30532820e-01  -1.27348287e+00
C     1.061687036200000e+00   1.265766043745403e+00   4.605176700000000e+00 -6.68258900e-02   7.73834000e-02   5.69423380e-01
C     2.288030846600000e+00   6.097181380722432e-01   4.543790100000000e+00  8.48664210e-01  -2.84754684e+00   1.08120000e-02
C     3.501750603200000e+00   1.318320579206030e+00   4.486158900000000e+00  1.33463830e+00  -1.85670880e-01  -2.61066080e-01
C     4.780307994299999e+00   6.239609513825688e-01   4.421499300000000e+00 -1.69203147e+00   8.12072910e-01  -4.19976130e-01
C     6.018071410199999e+00   1.303484390057450e+00   4.399531200000000e+00 -2.13147520e-01  -5.79287940e-01   4.72348640e-01
C     7.207413795800000e+00   5.896678583443647e-01   4.540319100000000e+00  3.04666845e+00  -8.11920900e-02   4.52707400e-02
C     8.456086463600000e+00   1.338458981522062e+00   4.690432800000000e+00 -4.37634230e-01  -2.60652118e+00  -8.44760420e-01
C     1.095474875010000e+01   2.672618144316921e+00   4.586312700000000e+00 -6.94145880e-01   1.28159394e+00   2.12073820e-01
C     2.303254686600000e+00   3.428845464771126e+00   4.578864600000000e+00  4.60012440e-01   5.51291560e-01  -9.43298870e-01
C     3.568233822400000e+00   2.739810678492888e+00   4.469182800000000e+00 -2.12802053e+00  -1.55795784e+00  -1.45976670e-01
C     4.819570514300000e+00   3.319852937273672e+00   4.302895500000000e+00 -5.37322460e-01   4.74968656e+00   8.66799580e-01
C     6.070904642600000e+00   2.703186008643120e+00   4.404235800000000e+00 -7.90560580e-01  -2.61822940e-01   2.12630710e-01
C     7.250555141200000e+00   3.434487530555681e+00   4.592955000000000e+00 -3.92087180e-01   1.77526637e+00  -1.83841303e+00
C     8.463662887600000e+00   2.716736735154041e+00   4.528160700000000e+00  5.84583690e-01   6.85395130e-01   1.56524794e+00
C     9.707766579299999e+00   3.376246099505479e+00   4.589689500000000e+00  6.12888050e-01   1.07912106e+00  -1.86936750e-01
C     1.213404419010000e+01   4.889416309492114e+00   4.521936000000000e+00 -3.57592289e+00  -2.56729646e+00   3.04072260e-01
C     3.447286625399999e+00   5.497585044112761e+00   4.555069200000000e+00  6.64194677e+00   1.99977300e+00  -3.90490350e-01
C     4.752227552400000e+00   4.776810072759525e+00   4.364254799999999e+00  3.90311150e-01   1.23027868e+00   1.79474155e+00
C     6.022760481099999e+00   5.569692803501226e+00   4.586959800000000e+00 -3.21030136e+00   1.52495590e-01  -1.47808818e+00
C     7.211452599699999e+00   4.922976840821239e+00   4.519370100000001e+00  3.29206145e+00  -4.09895113e+00   1.13867837e+00
C     8.532844591600000e+00   5.524142903727448e+00   4.576709100000000e+00 -4.10837595e+00   2.86144353e+00  -6.92187760e-01
C     9.685116778899999e+00   4.805708218976465e+00   4.589517300000000e+00  2.57835290e+00   2.59455920e-01  -3.29445170e-01
C     1.088648101880000e+01   5.617607326057126e+00   4.525232100000000e+00  1.64873160e-01  -8.09273420e-01   5.75854930e-01
C     1.343909441520000e+01   6.936933288357072e+00   4.712463300000000e+00 -2.46362150e+00   3.05895560e-01  -1.79618101e+00
C     4.745264568300000e+00   7.679989868266716e+00   4.668738000000000e+00  3.02081103e+00   5.57864820e-01   9.00111380e-01
C     6.064096509800000e+00   7.003394456285427e+00   4.619970000000000e+00 -4.74726154e+00  -1.83626728e+00   1.60560350e-01
C     7.245990355600000e+00   7.626702941877220e+00   4.541586300000000e+00  1.27943317e+00   4.69351408e+00  -3.87163700e-02
C     8.470178129099999e+00   6.987332662962652e+00   4.470472800000000e+00  1.89062021e+00  -1.10740636e+00   3.53913180e-01
C     9.682203888400000e+00   7.776123329102128e+00   4.404819600000001e+00 -5.20119200e-01  -1.63910203e+00   7.67933630e-01
C     1.087361095800000e+01   7.061549899500096e+00   4.528883700000001e+00  3.39766679e+00  -1.65721526e+00  -1.15280258e+00
C     1.224325404310000e+01   7.717701212590169e+00   4.487378100000000e+00 -3.34799055e+00  -1.00648762e+00   1.84134979e+00
