32
Lattice="9.86 0 0 4.93 8.53901048131456 0 0 0 30 " PBC="1 1 1" Properties=species:S:1:pos:R:3:force:R:3 Energy="-254.42698583"
C     1.282819819800000e+00   7.520350932590496e-01   3.546828000000000e+00 -3.34935046e+00  -2.63326825e+00   4.06045500e-02
C     2.431617540300000e+00   1.441494182968039e+00   3.660045000000000e+00  1.73202604e+00   2.17900736e+00   3.86961250e-01
C     3.602953347400000e+00   7.529725058295440e-01   3.533108100000000e+00  5.05209004e+00   3.91773700e-01  -5.07601340e-01
C     4.985995827400000e+00   1.412615334914784e+00   3.510325500000000e+00 -3.82250935e+00   9.26800450e-01   1.78420540e-01
C     6.154792339400000e+00   6.762462518427617e-01   3.346468500000000e+00  1.31232681e+00   2.21443000e+00   5.26349820e-01
C     7.340291592799999e+00   1.460363432156429e+00   3.502869000000000e+00  2.15636705e+00   8.05799700e-01  -9.23033960e-01
C     8.641406987699998e+00   7.475245317531991e-01   3.570795300000000e+00 -8.69239480e-01   9.54918300e-02  -1.29014944e+00
C     9.931646704000000e+00   1.421054438972168e+00   3.600246000000000e+00 -3.41772995e+00   2.03968511e+00   9.31912700e-01
C     2.458097507000000e+00   2.850529196178664e+00   3.850821300000000e+00 -2.23155086e+00   1.09619399e+00  -4.24608030e-01
C     3.639982774600000e+00   3.575723276235510e+00   3.813076800000000e+00  4.24912802e+00  -1.40356881e+00  -5.21106570e-01
C     4.982377601800000e+00   2.832257079993141e+00   3.626653800000000e+00 -2.41496404e+00   7.33299250e-01  -3.30900990e-01
C     6.150082759699999e+00   3.631274748204303e+00   3.410447700000000e+00 -2.66221399e+00  -1.82193971e+00   7.93591340e-01
C     7.333144769000000e+00   2.962814109946891e+00   3.395879700000000e+00  2.93702895e+00  -4.51671355e+00   1.16302523e+00
C     8.616632948900000e+00   3.559643038650099e+00   3.550878300000000e+00  3.66497100e-02   1.64441280e+00  -3.96524870e-01
C     9.853724257899998e+00   2.893374791333426e+00   3.751805400000000e+00 -8.35749830e-01  -2.58095983e+00  -1.09700392e+00
C     1.104235780810000e+01   3.592686447504554e+00   3.807566700000000e+00  2.37673769e+00   1.19539113e+00  -4.34204030e-01
C     3.748928281000000e+00   4.974184005818228e+00   3.767574300000000e+00 -1.81510662e+00   2.56887911e+00  -6.59167700e-01
C     4.974065375299999e+00   5.758448142502255e+00   3.537123900000000e+00 -3.98947973e+00  -1.71846709e+00   7.18763230e-01
C     6.074413964500000e+00   4.996161625601546e+00   3.420765900000000e+00  4.84019276e+00   2.07086138e+00  -4.29790670e-01
C     7.368980396700000e+00   5.691318540833525e+00   3.337422900000000e+00  3.28843920e-01  -1.09705985e+00  -1.84031760e-01
C     8.646227689600000e+00   4.987926176944111e+00   3.426102600000000e+00 -1.29821926e+00   9.76730960e-01   2.32312980e-01
C     9.834767569799999e+00   5.782181212060053e+00   3.473534100000000e+00  1.22389300e+00  -1.73653452e+00  -9.41299000e-02
C     1.108925773620000e+01   5.034091995543812e+00   3.602261100000000e+00  4.81129070e-01   2.21977820e-01   1.32959099e+00
C     1.237139815270000e+01   5.732311256104232e+00   3.701141100000000e+00 -1.44544541e+00   9.24919000e-03  -1.08352258e+00
C     4.897731178000000e+00   7.151938057914250e+00   3.487051800000000e+00 -3.31109230e-01   5.38620370e-01  -2.16856970e-01
C     6.105671890000000e+00   7.852579067236904e+00   3.459112800000000e+00  2.87222326e+00  -4.24295410e-01  -9.66159780e-01
C     7.367380956800000e+00   7.074954608931809e+00   3.275644800000000e+00 -3.50625600e-02   3.76427586e+00   1.34866503e+00
C     8.606085904099999e+00   7.934357255993969e+00   3.333658800000000e+00 -3.74746100e-01  -4.17534154e+00   1.95676140e-01
C     9.889694770399998e+00   7.194735920000429e+00   3.386850000000000e+00 -2.58249025e+00  -5.37362950e-01  -7.76422560e-01
C     1.112979485840000e+01   7.821304599793485e+00   3.291784500000000e+00 -2.32811126e+00   1.55453030e+00   9.05426020e-01
C     1.231748441220000e+01   7.210946206715451e+00   3.473417700000000e+00  2.92250860e-01  -5.86947253e+00   2.08246480e-01
C     1.349617706110000e+01   7.833640993624045e+00   3.423761400000000e+00  3.91219121e+00   3.48757372e+00   1.37566876e+00
