32
Lattice="9.86 0 0 4.93 8.53901048131456 0 0 0 30 " PBC="1 1 1" Properties=species:S:1:pos:R:3:force:R:3 Energy="-256.84151477"
C     9.796077521399999e+00   5.378644142455584e-01   3.320180400000000e+00  1.05954066e+00  -2.09742051e+00   1.91108500e-02
C     1.205596990000000e+00   1.154592738361462e+00   3.268402500000000e+00 -1.66778860e-01   1.78842093e+00   4.64369270e-01
C     2.438243657500000e+00   4.500587087708712e-01   3.411008400000000e+00 -6.45438880e-01   9.11553030e-01  -6.69602790e-01
C     3.652144936699999e+00   1.172941620251201e+00   3.350687100000000e+00  4.49143290e-01   6.06033500e-02   5.67606310e-01
C     4.884144985400000e+00   4.782018356811696e-01   3.391270200000000e+00  8.80665160e-01  -7.97035660e-01  -4.69145220e-01
C     6.125525147899999e+00   1.177927719250682e+00   3.305121600000000e+00  1.03971810e-01  -4.89326500e-02   1.06076264e+00
C     7.392632712599999e+00   4.416048322253568e-01   3.300472800000000e+00 -2.58824903e+00   8.78019150e-01  -7.71769300e-02
C     8.552332142099999e+00   1.206705380029750e+00   3.290247000000000e+00  1.66896389e+00  -2.01336410e-01  -3.30029640e-01
C     1.106632953870000e+01   2.593765676720618e+00   3.175313400000000e+00  5.15882300e-02  -1.56640640e-01  -1.07472270e-01
C     2.439190858400000e+00   3.319383035526958e+00   3.123408900000000e+00 -2.37169720e-01  -1.70630390e-01   4.17738420e-01
C     3.673824759600000e+00   2.583702367479834e+00   3.321350700000000e+00 -8.79804710e-01   1.19213326e+00  -4.29526660e-01
C     4.891426447500000e+00   3.304417651149815e+00   3.435812700000000e+00 -1.87275060e-01   8.23527130e-01  -8.52816030e-01
C     6.099107102000000e+00   2.613752853161050e+00   3.432912000000000e+00  2.28655597e+00  -1.35733608e+00  -8.92880550e-01
C     7.380145170500000e+00   3.302319103934250e+00   3.332118000000000e+00 -2.55627989e+00   1.18591201e+00  -3.44722600e-02
C     8.583148290300000e+00   2.618848507664989e+00   3.225499500000000e+00  9.41191400e-02  -4.00638640e-01   6.61000990e-01
C     9.819938474899999e+00   3.308096256864599e+00   3.219888900000000e+00  1.01660386e+00  -4.30666000e-02  -3.82575650e-01
C     1.227019062640000e+01   4.751221561614527e+00   3.044550000000000e+00  1.42553797e+00  -2.61143870e-01   1.13285970e+00
C     3.707738278900000e+00   5.430013548651692e+00   3.255070200000000e+00 -2.57879750e+00   9.38739990e-01  -4.29054590e-01
C     4.914249685300000e+00   4.748538689911816e+00   3.348938400000000e+00 -6.83555950e-01  -1.17048766e+00   6.97028620e-01
C     6.100426074200000e+00   5.483892740808082e+00   3.469104000000000e+00  1.52399230e+00  -1.46305713e+00  -6.81940980e-01
C     7.334099611399999e+00   4.730612659821048e+00   3.334131300000000e+00  4.25152170e-01   3.02487290e-01   1.34937020e+00
C     8.572677019599999e+00   5.419893881941739e+00   3.403070100000000e+00  7.48745550e-01   5.73669700e-01  -6.82971770e-01
C     9.846683675600000e+00   4.728072645763667e+00   3.270365100000000e+00 -2.05415632e+00  -6.44121300e-02  -4.66767550e-01
C     1.102112543200000e+01   5.460747411341623e+00   3.102261300000000e+00  1.79288583e+00   3.16587750e-01   1.16371339e+00
C     1.353772414310000e+01   6.855391630190304e+00   3.353509200000000e+00  6.04747690e-01   9.65527510e-01  -7.54284840e-01
C     4.917055496200000e+00   7.646240710196087e+00   3.378142200000000e+00 -1.49993105e+00  -1.72870906e+00   6.64811890e-01
C     6.130040682800000e+00   6.881461656136267e+00   3.507095400000000e+00 -1.97589100e-01   1.81435738e+00  -6.22771660e-01
C     7.372909705300000e+00   7.600455646073690e+00   3.490935600000000e+00  3.39912100e-02  -1.92244285e+00  -1.16032770e-01
C     8.587490782200000e+00   6.845575098352390e+00   3.434742600000000e+00  8.59528050e-01   8.20167000e-01   9.69692700e-02
C     9.853674810000001e+00   7.578250034710555e+00   3.373547400000000e+00 -2.45083801e+00   5.42499400e-01   3.72809830e-01
C     1.105077745930000e+01   6.893857823040188e+00   3.306470700000000e+00  5.24535630e-01  -1.60365420e+00  -1.01831387e+00
C     1.228933401360000e+01   7.560605535795312e+00   3.288431100000000e+00  1.17559565e+00   3.72739630e-01   3.49684650e-01
