32
Lattice="9.86 0 0 4.93 8.53901048131456 0 0 0 30 " PBC="1 1 1" Properties=species:S:1:pos:R:3:force:R:3 Energy="-251.68602587"
C     4.954496775599999e+00   8.329267619480808e+00  -6.884388000000001e-01  2.67495047e+00   3.98528896e+00   2.36406950e-01
C     1.354145925900000e+00   5.274381970593736e-01  -6.946662000000003e-01 -2.54546620e+00   1.84985978e+00   1.02489298e+00
C     7.541909760199999e+00   8.361890909019648e+00  -6.850988999999998e-01 -6.75877384e+00  -1.97701428e+00   3.38337050e-01
C     3.726778234700000e+00   5.149268389040776e-01  -6.659517000000008e-01  5.63566059e+00   1.35316968e+00  -1.32156316e+00
C     9.928822652099999e+00   8.404200425096477e+00  -7.883306999999995e-01 -7.24937030e-01  -3.22473330e+00   1.15125362e+00
C     6.224736517199998e+00   5.623199694800688e-01  -7.396503000000010e-01 -1.17313384e+00  -1.78124953e+00   1.54688841e+00
C     1.237066585050000e+01   8.213296841838888e+00  -5.779425000000025e-01 -1.47534220e-01   7.56631140e+00  -2.12874332e+00
C     8.644259978699997e+00   4.942106871389688e-01  -6.562224000000008e-01  7.16042870e-01  -1.07570910e-01   1.22481700e-02
C     1.283110443300000e+00   2.050928484331927e+00  -5.939345999999972e-01  1.19800306e+00  -3.99691754e+00  -2.97544704e+00
C     2.575330294100000e+00   2.672051837141887e+00  -8.936238000000003e-01 -4.02900285e+00   3.17002310e-01   2.70261102e+00
C     3.775535293800000e+00   1.897872613395158e+00  -7.967025000000021e-01 -2.05924204e+00   4.48931993e+00   1.98473160e-01
C     4.906783397500000e+00   2.763154027612379e+00  -7.199391000000013e-01  2.92751019e+00  -2.46998975e+00   3.38904160e-01
C     6.122256459299999e+00   2.004747978634201e+00  -5.993138999999985e-01  2.77021080e+00  -1.00447866e+00  -1.65148444e+00
C     7.414572445099999e+00   2.612841826132938e+00  -7.270715999999986e-01 -1.45267422e+00   4.27949409e+00   7.70417720e-01
C     8.637835547800000e+00   1.954532705094570e+00  -7.639892999999987e-01  6.98117280e-01  -1.26180171e+00   9.36378190e-01
C     9.871760022000000e+00   2.715070944989603e+00  -7.514346000000032e-01  1.51705295e+00  -1.30078241e+00  -9.68585000e-03
C     2.423060144900000e+00   4.135507074212915e+00  -7.607469000000009e-01  5.29459275e+00  -4.12836834e+00  -1.00653425e+00
C     3.626562230000000e+00   4.753628367108421e+00  -6.991230000000002e-01  6.50459591e+00   5.05710316e+00  -1.88525767e+00
C     4.990760820299999e+00   4.183389404699304e+00  -7.274327999999990e-01 -2.54243536e+00  -1.85398036e+00  -1.05559400e-01
C     6.254847626100000e+00   4.880810865510580e+00  -8.060694000000019e-01 -2.01109682e+00  -2.64138790e-01   1.75539095e+00
C     7.441137059900000e+00   4.153178727181484e+00  -6.954425999999998e-01  1.52926306e+00  -3.43993013e+00  -8.66148400e-01
C     8.747988559100001e+00   4.795439717313846e+00  -7.114659000000003e-01 -3.14420003e+00  -6.57157170e-01  -5.88785370e-01
C     9.968053718699998e+00   4.111642760064039e+00  -8.747565000000002e-01 -1.66976238e+00   3.77866250e-01   9.40717140e-01
C     1.118928768270000e+01   4.872501042071863e+00  -8.595891000000009e-01 -5.15558452e+00  -3.91168816e+00   3.98817490e-01
C     3.807282965500000e+00   6.226061946748644e+00  -9.527271000000006e-01 -2.24628811e+00  -1.04575720e+00   2.45490824e+00
C     5.046306193600000e+00   6.978501874494550e+00  -7.018877999999980e-01 -5.19342437e+00  -1.84395037e+00  -1.29762980e+00
C     6.209032100800000e+00   6.320978940151075e+00  -6.498188999999996e-01  3.00596500e-02  -4.39072830e+00  -8.26944600e-01
C     7.378670360999999e+00   6.921971404974226e+00  -6.492536999999992e-01  5.52012950e+00   2.35319819e+00   1.41328190e-01
C     8.595317403699999e+00   6.168479983477812e+00  -6.703997999999984e-01  2.66383137e+00   2.43662149e+00  -1.80672620e-01
C     9.858594407700000e+00   6.880837027519656e+00  -7.228749000000008e-01  3.23245940e-01   2.62942802e+00   2.29460700e-02
C     1.109221706730000e+01   6.181341270282578e+00  -7.121877000000012e-01  1.85863996e+00   4.80166998e+00  -1.77178107e+00
C     1.240052626890000e+01   6.914864301161616e+00  -9.063906000000017e-01 -1.00835053e+00  -2.83609636e+00   1.64531744e+00
