32
Lattice="9.86 0 0 4.93 8.53901048131456 0 0 0 30 " PBC="1 1 1" Properties=species:S:1:pos:R:3:force:R:3 Energy="-255.40074094"
C     9.694060784899998e+00   7.607135457801879e-01   3.218640300000000e+00  2.14892155e+00  -4.24946148e+00   8.85639240e-01
C     1.106414116100000e+00   1.383545383806986e+00   3.297871500000000e+00  6.22822210e-01   1.34386342e+00  -1.47094580e-01
C     2.364482230000000e+00   7.209836647693679e-01   3.510088800000000e+00 -1.97990353e+00  -3.45512195e+00  -7.84671500e-01
C     3.579957263799999e+00   1.387274113513288e+00   3.416517000000000e+00  1.27933300e+00   9.38626480e-01   7.58659800e-02
C     4.875842224500000e+00   7.755562245767336e-01   3.434034300000000e+00 -2.95983909e+00  -4.17747003e+00  -5.16014570e-01
C     6.091035755300000e+00   1.401235310257983e+00   3.352656600000000e+00  9.78864170e-01   8.43825760e-01   5.44838710e-01
C     7.299846119300000e+00   6.566884168492647e-01   3.376006800000000e+00  4.52623960e-01  -2.71758470e-01  -8.75116800e-01
C     8.474582492500000e+00   1.433681159159049e+00   3.257115900000000e+00  1.19548481e+00   2.38441020e-01  -5.61158630e-01
C     1.103556471180000e+01   2.809102016054735e+00   3.157725000000000e+00 -1.23829643e+00   6.26679100e-02  -1.93003800e-02
C     2.365539961500000e+00   3.545340537656517e+00   3.187325400000000e+00  4.10091720e-01  -1.16987220e+00  -2.60014840e-01
C     3.584560552700000e+00   2.776766064218546e+00   3.272715900000000e+00  4.33093820e-01   2.07757459e+00   9.27830700e-02
C     4.828453191099999e+00   3.471890189650282e+00   3.296536800000000e+00  1.60040823e+00   7.91844020e-01   5.86386060e-01
C     6.115410365500000e+00   2.821432091017540e+00   3.376147200000000e+00 -2.90947450e-01   5.90963620e-01  -1.20339450e-01
C     7.381458177399999e+00   3.579869478164179e+00   3.408007200000000e+00 -2.86856338e+00  -5.22291630e-01  -1.50145256e+00
C     8.544533375100000e+00   2.865425756131338e+00   3.149455800000000e+00  1.66541090e+00  -2.31858740e-01   1.16046324e+00
C     9.845802191600001e+00   3.559633901908885e+00   3.086894700000000e+00 -2.72335412e+00   4.82079400e-02   1.76772200e-01
C     1.217226224030000e+01   4.937880829713031e+00   3.124671600000000e+00  2.33373313e+00   2.00650459e+00   1.46616727e+00
C     3.641575509700000e+00   5.595043417814250e+00   3.354864600000000e+00 -3.20687422e+00  -9.05848600e-02  -1.11739524e+00
C     4.850590665900000e+00   4.918635949453626e+00   3.389930700000000e+00 -9.10934960e-01  -1.68027007e+00   1.95069650e-01
C     5.998817048699999e+00   5.669855054871207e+00   3.572698200000000e+00  3.88097066e+00  -1.66099349e+00  -1.16919970e+00
C     7.329245977099999e+00   4.987014296014951e+00   3.385429500000000e+00 -1.94700518e+00  -1.02223210e-01   1.73641364e+00
C     8.555873114600001e+00   5.664471123373462e+00   3.403283700000000e+00 -8.70042090e-01   5.03878670e-01  -6.76548990e-01
C     9.775857471500000e+00   5.014029334250737e+00   3.148047300000000e+00 -2.22988400e-01  -1.94833679e+00   4.99679630e-01
C     1.095054030490000e+01   5.752578597478513e+00   3.182586600000000e+00  2.20214413e+00  -3.71185331e+00  -5.78763790e-01
C     1.350749747500000e+01   6.989645966291789e+00   3.353279700000000e+00 -9.04955980e-01   2.50136892e+00  -4.77053720e-01
C     4.843540963100000e+00   7.751076447391878e+00   3.321747300000000e+00 -2.02251499e+00   2.95638180e+00   6.96541770e-01
C     6.017253375299999e+00   7.064260779157181e+00   3.560051400000000e+00  1.01982932e+00   1.12626167e+00  -5.29076830e-01
C     7.242373214600001e+00   7.780507940203399e+00   3.563125500000000e+00  1.93696594e+00   9.61710760e-01   3.41378670e-01
C     8.501446604799998e+00   7.060005363284473e+00   3.528999000000000e+00  8.84031190e-01   2.90326118e+00  -8.13255860e-01
C     9.746295761799999e+00   7.840334638549212e+00   3.362504400000000e+00  2.48995950e-01   1.21588460e-01   1.09408184e+00
C     1.098958861640000e+01   7.105126007001423e+00   3.285327600000000e+00  2.81275310e-01   2.70239987e+00   1.31494330e-01
C     1.228478663090000e+01   7.756744642548501e+00   3.306973500000000e+00 -1.42878017e+00   5.52725560e-01   4.62882130e-01
