32
Lattice="10.052 0 0 5.026 8.70528735884118 0 0 0 30 " PBC="1 1 1" Properties=species:S:1:pos:R:3:force:R:3 Energy="-257.31028501"
C    -6.694352152731983e-04  -1.170083905654550e-03   3.000201263507102e+00 -3.74672000e-03   9.51597000e-02  -2.76251000e-03
C     1.255567964202175e+00   7.259086380201579e-01   3.000461575126644e+00  5.42271200e-02  -7.01962900e-02  -1.42783000e-03
C     2.513937841469636e+00  -9.374371988475681e-04   3.000225337175317e+00 -9.35626500e-02   2.48959400e-02   2.46100000e-05
C     3.768375563741786e+00   7.249940188857729e-01   2.999888764263936e+00  7.63042400e-02  -2.16770400e-02  -8.01549000e-03
C     5.027017706785021e+00   1.038693670743568e-04   2.998836354383239e+00 -4.26234700e-02  -3.27952000e-03   2.09648600e-02
C     6.282995689159453e+00   7.266818476744505e-01   2.999245921717510e+00 -3.94635000e-03  -6.46953200e-02  -9.88160000e-04
C     7.539355753544038e+00   6.064395465207355e-04   2.999467078148570e+00 -3.94651300e-02  -3.34315500e-02  -1.32117000e-03
C     8.794486832264690e+00   7.258501416547570e-01   2.999098876599215e+00  5.06690900e-02  -5.22067500e-02   1.09221500e-02
C     1.256861520320652e+00   2.175562991619590e+00   3.000327959251748e+00 -5.12434700e-02   7.00841900e-02   2.18394000e-03
C     2.513389611729877e+00   2.902307252001106e+00   3.000066704059943e+00 -1.91736700e-02  -7.64320500e-02  -6.12780000e-03
C     3.768262913753260e+00   2.175169222306391e+00   2.999440630501537e+00  8.27914200e-02   5.73152500e-02   1.36243700e-02
C     5.027066446669327e+00   2.901271416612522e+00   3.001099316376442e+00 -7.36512800e-02   1.14429300e-02  -1.91329500e-02
C     6.283468692215738e+00   2.176223774160887e+00   2.999857250679618e+00 -6.80620000e-03   5.01862400e-02   5.88594000e-03
C     7.540086286118468e+00   2.902102830840045e+00   3.000274717576847e+00 -2.78248300e-02   4.92882000e-03  -2.04498000e-03
C     8.795527771346016e+00   2.175555985406945e+00   2.999992325212556e+00 -2.91424000e-03   5.96770500e-02  -1.16652000e-03
C     1.005098624999687e+01   2.902529582976435e+00   3.000721259546704e+00  6.01142600e-02  -7.33958000e-02  -3.89004000e-03
C     2.513586361922994e+00   4.351430192910021e+00   2.999359158974813e+00 -5.32329400e-02   8.63264700e-02   1.05507600e-02
C     3.768634178121808e+00   5.078844872143442e+00   2.999832158932034e+00  4.00706400e-02  -1.72901700e-02  -2.07905000e-03
C     5.025652439200252e+00   4.353190102364933e+00   3.000370808576399e+00  1.84041400e-02  -2.92323000e-02   4.62099000e-03
C     6.282907329930215e+00   5.078234269498772e+00   3.000567999722181e+00 -2.80552200e-02   2.14653900e-02   7.66770000e-04
C     7.540107641107113e+00   4.353851622488826e+00   3.000430052315636e+00 -3.79051000e-02  -6.32562800e-02  -6.39042000e-03
C     8.795894510129100e+00   5.077200438813841e+00   2.999179666277000e+00 -1.17137500e-02   9.78962000e-02   1.96266900e-02
C     1.005106727942835e+01   4.352474565294155e+00   3.000715907262409e+00  5.10611500e-02   2.93811000e-03  -9.22065000e-03
C     1.130813500040377e+01   5.077708436928536e+00   3.000273960881820e+00  2.04065000e-02   1.20982700e-02  -6.12457000e-03
C     3.768415537167199e+00   6.530186980521042e+00   2.999717784998548e+00  7.99934000e-03  -5.87478300e-02   5.45739000e-03
C     5.024917518549697e+00   7.255319127080766e+00   3.000421809388048e+00  1.91979000e-02  -4.75338600e-02  -2.09220000e-03
C     6.281538165585660e+00   6.529304033751966e+00   3.000745873981820e+00  2.37520600e-02  -1.82208500e-02  -5.93927000e-03
C     7.538976847059248e+00   7.253566645305290e+00   3.000106005031577e+00 -8.89160000e-04   3.28269200e-02   4.20503000e-03
C     8.795996411975231e+00   6.529829958155552e+00   3.000140142129095e+00 -1.15236200e-02  -8.65833300e-02   1.70600000e-04
C     1.005268941640241e+01   7.253248702548156e+00   3.001207623536331e+00 -2.78541900e-02   1.06569230e-01  -2.63945200e-02
C     1.130840838423781e+01   6.530094273407085e+00   2.999536489047773e+00  2.86853000e-03  -1.22370320e-01   1.66413200e-02
C     1.256409162766768e+01   7.253417531964463e+00   3.000096062810698e+00  2.82656200e-02   1.04738560e-01  -1.05273200e-02
