32
Lattice="9.86 0 0 4.93 8.53901048131456 0 0 0 30 " PBC="1 1 1" Properties=species:S:1:pos:R:3:force:R:3 Energy="-256.64406285"
C     9.710874697800000e+00   1.789781890794498e+00   3.709239600000000e+00  1.04072960e-01  -1.01713698e+00   1.42961440e-01
C     1.096407946530000e+01   2.431922395488987e+00   3.623028000000000e+00  1.30524666e+00   2.21684962e+00   1.87880020e-01
C     2.371084633900000e+00   1.734620139264012e+00   3.656627700000000e+00 -3.41051250e-01   1.04528483e+00   1.51602000e-03
C     3.603843508200000e+00   2.510614244298160e+00   3.641418300000000e+00 -1.22545558e+00  -4.27888910e-01  -7.56271040e-01
C     4.859347824900000e+00   1.887365275609414e+00   3.518017800000000e+00 -1.41468008e+00  -3.60177962e+00   1.28225086e+00
C     6.088819227300000e+00   2.516432469868918e+00   3.636824700000000e+00 -1.36748441e+00   1.19594831e+00  -3.70807340e-01
C     7.252613169700000e+00   1.809506919613193e+00   3.670237500000000e+00  2.54401138e+00  -1.57019707e+00   4.65335370e-01
C     8.471301528200000e+00   2.504827698456283e+00   3.763728600000000e+00  2.10026174e+00   1.20760280e+00  -1.39173240e-01
C     1.101592640190000e+01   3.916439785029772e+00   3.559176900000000e+00 -1.81596526e+00  -2.02465222e+00   1.10228102e+00
C     1.220083045640000e+01   4.622415541149806e+00   3.528910500000000e+00  1.23406814e+00   2.78420620e-01  -2.03416480e-01
C     3.570137048899999e+00   3.909059347491699e+00   3.583923000000000e+00  1.05481875e+00   5.81923240e-01  -4.45814630e-01
C     4.842190192400000e+00   4.579514527817029e+00   3.526723800000000e+00 -3.35464520e-01   2.28774328e+00   1.02242177e+00
C     6.089157819700000e+00   3.917769821302137e+00   3.677997900000000e+00  1.95130810e-01   6.17592570e-01  -5.49376560e-01
C     7.327006524600000e+00   4.632788218740282e+00   3.746506500000000e+00 -4.31273180e-01   1.11044979e+00   7.97191820e-01
C     8.570981543299999e+00   3.961138089288380e+00   3.829488899999999e+00 -1.46523247e+00  -2.05795802e+00  -5.94786130e-01
C     9.802996283399999e+00   4.638803268502603e+00   3.765809100000000e+00 -1.58093280e-01   4.98775580e-01  -5.72971830e-01
C     1.218816957550000e+01   6.033235036770542e+00   3.473263200000000e+00  1.63340887e+00   1.48265445e+00   5.17951900e-01
C     1.346613590890000e+01   6.762643801620106e+00   3.570316500000000e+00 -5.77465710e-01  -1.53468599e+00  -3.39332540e-01
C     4.839947288899999e+00   6.043343346596556e+00   3.579738300000000e+00  4.77075740e-01  -2.07208000e-03  -7.84837700e-02
C     6.093942384700000e+00   6.813717672663501e+00   3.672906300000000e+00 -1.42510230e+00  -3.71076352e+00   4.81502390e-01
C     7.313266516000000e+00   6.064995117739958e+00   3.803249099999999e+00 -9.05750030e-01   5.99658900e-02  -1.04939392e+00
C     8.510103290400000e+00   6.785565323621885e+00   3.731674500000000e+00  2.03343026e+00  -1.08637187e+00   4.08292640e-01
C     9.766538538999999e+00   6.071118271374957e+00   3.732573900000000e+00  1.75926500e-01   1.59622170e-01  -9.44899630e-01
C     1.098920402710000e+01   6.781987563620870e+00   3.500294700000000e+00 -6.23751050e-01   2.15478480e-01   8.08745250e-01
C     1.348521007890000e+01   8.166066379412541e+00   3.665028300000000e+00 -1.97845325e+00   9.11401670e-01  -7.68484800e-02
C     9.735607225999999e+00   3.519284857248160e-01   3.723705900000000e+00  1.62056967e+00   4.03619280e-01  -2.99598500e-02
C     6.073504280900000e+00   8.179923997960115e+00   3.735822600000000e+00 -9.71827070e-01   1.61690822e+00  -2.89404830e-01
C     2.378261284200000e+00   3.183817875926688e-01   3.710180700000000e+00 -1.97869420e-01   1.46885328e+00  -2.72006500e-01
C     8.529167107399999e+00   8.180286820515409e+00   3.637235100000000e+00  1.18197446e+00   1.48808377e+00   3.01109840e-01
C     4.834420463100000e+00   4.303539174070136e-01   3.575858700000000e+00  7.56730600e-02  -9.23735620e-01  -6.10003280e-01
C     1.100332088490000e+01   8.234732832187461e+00   3.521321400000000e+00 -5.11208420e-01  -5.44499430e-01   4.10320550e-01
C     7.305136650200001e+00   3.784453580891984e-01   3.643505100000000e+00  1.04583100e-02  -3.45436510e-01  -6.06810840e-01
