2
Lattice="2.519 0 0 1.2595 2.181517992133 0 0 0 30 " PBC="1 1 1" Properties=species:S:1:pos:R:3:force:R:3 Energy="-16.06934042"
C     0.000000000000000e+00   0.000000000000000e+00   3.000000000000000e+00  0.00000000e+00   0.00000000e+00  -0.00000000e+00
C     1.259500000000000e+00   7.271726640443337e-01   3.000000000000000e+00 -0.00000000e+00   0.00000000e+00   0.00000000e+00
