32
Lattice="9.92 0 0 4.96 8.59097200554163 0 0 0 30 " PBC="1 1 1" Properties=species:S:1:pos:R:3:force:R:3 Energy="-258.01114143"
C     1.709717458957291e-04  -1.076408715578183e-03   3.000962514461353e+00 -1.64713800e-02   5.08940500e-02  -2.10916800e-02
C     1.241065552279392e+00   7.163599700577487e-01   3.000109804024734e+00 -7.82925000e-02   8.83920000e-04   7.58076000e-03
C     2.479225866368552e+00   2.932933862188351e-04   2.999687836865596e+00  9.49761300e-02  -1.11627300e-02   1.26665600e-02
C     3.721075283777314e+00   7.162817239771574e-01   3.000426042119900e+00 -6.95020700e-02  -4.05131000e-03  -7.16696000e-03
C     4.961070302448205e+00   4.215704518371349e-04   2.999335668788204e+00 -7.49718500e-02  -2.62026900e-02   1.21796500e-02
C     6.199394469190593e+00   7.152323135178631e-01   2.998960137625339e+00  3.73130300e-02   7.97898500e-02   2.58147300e-02
C     7.439216320600788e+00   5.578744332824787e-04   3.001237347976777e+00  9.06536000e-03  -6.45545200e-02  -3.43824500e-02
C     8.679115061885794e+00   7.152217231138827e-01   2.999450563320587e+00  6.76690000e-02   5.65443000e-03   3.01890600e-02
C     1.240612703243578e+00   2.148934596710597e+00   3.000689427827346e+00 -1.57000200e-02  -3.89590100e-02  -2.15826600e-02
C     2.480483954212392e+00   2.864769503436349e+00   2.998953063690200e+00 -1.48847900e-02  -4.53138500e-02   1.82681700e-02
C     3.719280961877080e+00   2.148153388935568e+00   3.000742450806961e+00  5.47070700e-02  -3.46990300e-02  -1.91483800e-02
C     4.960343087797792e+00   2.862499916693337e+00   2.999467278316333e+00 -4.97391400e-02   1.17525760e-01   1.39734700e-02
C     6.198971266665074e+00   2.148673671813739e+00   3.001127708596492e+00  7.11375400e-02  -9.20740000e-02  -2.20210500e-02
C     7.440566463404539e+00   2.862479996144639e+00   3.000633914403420e+00 -2.18810400e-02   8.32065400e-02   4.56108000e-03
C     8.680971680139359e+00   2.147160722631933e+00   3.001069789973521e+00 -5.21315500e-02  -1.14808600e-02  -2.12158800e-02
C     9.919770777888338e+00   2.863446953717153e+00   2.999250843850720e+00  4.20510200e-02   1.86478500e-02   2.50462600e-02
C     2.481204436878216e+00   4.295022973385226e+00   2.999203984417840e+00 -7.95856500e-02   6.26374100e-02   2.65200000e-03
C     3.718788507558582e+00   5.012148418582290e+00   3.000009620286863e+00  9.04974300e-02  -4.30864500e-02  -4.71947000e-03
C     4.959920958860848e+00   4.296179036168986e+00   2.999463069445376e+00 -2.87546100e-02  -4.11333900e-02   1.08366400e-02
C     6.199028743788624e+00   5.012347076581882e+00   3.001092984861993e+00  5.26737800e-02  -4.78413800e-02  -1.86939900e-02
C     7.440252454241377e+00   4.295843959315013e+00   2.999998609610790e+00 -1.22104700e-02  -1.82915200e-02   1.03573900e-02
C     8.680575466591289e+00   5.012538704585442e+00   3.000077611216665e+00 -1.37115600e-02  -9.30674800e-02   1.26090000e-03
C     9.920753208689341e+00   4.295454463680647e+00   3.000649795588420e+00 -2.99111400e-02   1.07646200e-02  -1.38773800e-02
C     1.116023603826423e+01   5.011332798562098e+00   2.999967518752092e+00  2.10765700e-02  -6.63352000e-03  -2.16131000e-03
C     3.719937517347211e+00   6.443045570373305e+00   3.000718762031751e+00 -5.42803100e-02   7.29367000e-03  -1.86017100e-02
C     4.959050310729450e+00   7.158234552830001e+00   2.999604455075817e+00  3.35785100e-02   4.84366900e-02   1.71096200e-02
C     6.199079645334359e+00   6.443731884136552e+00   3.000213115060757e+00  3.03340300e-02  -9.52545000e-03   5.50450000e-03
C     7.439479562623728e+00   7.159230363294261e+00   3.000765385527373e+00  3.04386000e-03  -9.56642000e-03  -1.47540300e-02
C     8.680200947264503e+00   6.442203915188031e+00   2.999851693004305e+00 -2.88435900e-02   1.04246760e-01   1.62386900e-02
C     9.919235239372043e+00   7.159705559937177e+00   3.001153683945669e+00  4.77806800e-02  -3.28346700e-02  -2.41353800e-02
C     1.116016370687990e+01   6.443635942822323e+00   2.999660062835412e+00 -4.55305800e-02  -2.76148100e-02   5.92414000e-03
C     1.239939034816987e+01   7.158337959943829e+00   2.999026288796391e+00  3.04982500e-02   6.81115400e-02   2.33887200e-02
