32
Lattice="9.86 0 0 4.93 8.53901048131456 0 0 0 30 " PBC="1 1 1" Properties=species:S:1:pos:R:3:force:R:3 Energy="-250.04471367"
C     5.032220493400000e+00   8.452809681545029e+00   3.731412000000000e+00 -4.65943667e+00   6.53773943e+00   4.81462100e-01
C     1.202542953600000e+00   8.005107141935903e-01   3.683187600000000e+00  1.99604835e+00   2.41028220e-01   1.38987305e+00
C     2.443442884800000e+00   1.641266126339840e-01   4.206480000000000e+00 -3.96799980e-01  -4.63487520e-01  -9.84452960e-01
C     3.661805370300000e+00   8.941987732077400e-01   4.145938500000001e+00 -5.57384150e-01  -6.17313010e-01  -1.54799240e-01
C     4.900683853599999e+00   1.267443617744304e-01   4.191823200000000e+00 -1.85491377e+00  -9.42481580e-01   1.97495540e-01
C     6.104063773300000e+00   8.156441462969800e-01   4.211500500000000e+00 -2.37878935e+00   1.30242439e+00  -7.02936810e-01
C     7.287761949800000e+00   2.732010292419408e-01   4.171516200000000e+00  7.18276448e+00  -6.77386095e+00  -1.08726966e+00
C     8.616578176599999e+00   7.594524193223968e-01   3.783064500000000e+00 -9.30535900e-01   2.66357156e+00   1.10162631e+00
C     1.100065819190000e+01   2.299372702049623e+00   3.476777100000000e+00  1.60605062e+00  -1.49655240e+00   1.06329043e+00
C     2.424018487600000e+00   3.029309775477585e+00   3.666860400000000e+00 -1.48791974e+00  -2.27799643e+00  -2.25361480e-01
C     3.574096282600000e+00   2.339237157865608e+00   3.942245400000000e+00  4.53253106e+00  -2.88137538e+00   1.85360110e-01
C     4.913107798700000e+00   2.943303922631873e+00   4.003834800000000e+00 -1.22612404e+00   2.32074168e+00  -3.48034330e-01
C     6.156004922200000e+00   2.136156091762492e+00   4.044649800000000e+00 -2.26994201e+00   8.91463005e+00   1.19196020e+00
C     7.365322336700000e+00   3.023828499260369e+00   4.154758500000000e+00  5.73728620e-01  -5.26720207e+00  -1.97615370e+00
C     8.553544971399999e+00   2.277423431781098e+00   3.805274700000000e+00  1.63328531e+00  -2.27401735e+00  -2.59334340e-01
C     9.762689244299999e+00   2.992404769913759e+00   3.543092100000000e+00 -1.00619770e+00   4.48205550e-01   1.69720670e-01
C     1.236050812780000e+01   4.400670076719717e+00   3.734212800000000e+00 -3.28796236e+00   1.94109477e+00  -4.75885360e-01
C     3.556435099900000e+00   5.244572882738789e+00   4.010427900000000e+00  5.02705579e+00  -1.90343890e+00   3.57788550e-01
C     4.893020513700000e+00   4.470228429139272e+00   4.035058500000000e+00  1.01739170e+00  -8.66287100e-01   1.74141968e+00
C     6.194553627499999e+00   5.116733307480194e+00   4.432247100000000e+00 -1.91939947e+00  -1.28519700e-02  -1.67097992e+00
C     7.470888722500000e+00   4.376440036751982e+00   4.275461999999999e+00 -3.60684750e+00   3.23560779e+00   1.56205617e+00
C     8.645365432599998e+00   5.186591037607179e+00   4.267892100000000e+00 -3.62906810e-01  -4.13012618e+00  -2.26864725e+00
C     9.713820717899999e+00   4.434573107759195e+00   3.627114900000000e+00  3.73369345e+00   2.33714800e-01   1.93968815e+00
C     1.108688754010000e+01   5.023079660678279e+00   3.665971200000000e+00 -2.68588922e+00   3.10457108e+00   1.09602975e+00
C     1.347029258910000e+01   6.685724907556895e+00   4.189453800000000e+00 -7.46837620e-01  -4.04847722e+00  -3.38406200e-01
C     4.906161182200000e+00   7.182028676944722e+00   4.199717700000000e+00  1.60300914e+00   1.31772562e+00  -6.80500100e-02
C     6.140208758500000e+00   6.584161233786937e+00   4.481780700000000e+00  1.18795794e+00  -4.01032136e+00   1.63615380e-01
C     7.403788070099999e+00   7.236694995087158e+00   4.540779300000000e+00 -3.51484558e+00   4.05103631e+00  -1.29355319e+00
C     8.571255454099999e+00   6.556165746367838e+00   4.432039200000000e+00  3.10759690e+00  -1.99553650e-01  -1.06004497e+00
C     9.805213550900000e+00   7.209037140142438e+00   4.128611400000000e+00  4.43680300e-01   8.17956650e-01   1.13729787e+00
C     1.102644386670000e+01   6.426401648927260e+00   4.003122600000000e+00  1.41509289e+00   3.45062452e+00  -4.35032100e-02
C     1.226674480290000e+01   7.370650551211948e+00   4.185792900000000e+00 -2.16715466e+00  -2.41532935e+00  -8.21271370e-01
