32
Lattice="10.068 0 0 5.034 8.71914376530173 0 0 0 30 " PBC="1 1 1" Properties=species:S:1:pos:R:3:force:R:3 Energy="-257.07727812"
C    -3.800487925249944e-03  -4.690622651828887e-03   3.007340819661819e+00  2.95679250e-01   3.14870790e-01  -7.91607200e-02
C     1.265657426588003e+00   7.362017969162405e-01   3.010863485490578e+00 -3.85816300e-01  -8.83372240e-01  -7.92604700e-02
C     2.526702916241013e+00  -9.181117471595156e-03   3.004293198319876e+00 -6.86559040e-01   6.79501180e-01   6.38282000e-03
C     3.774398618346776e+00   7.229899324350901e-01   2.993847046545404e+00  8.98271600e-02  -1.11167170e-01   1.18439740e-01
C     5.021728150313732e+00   1.021757230494539e-03   3.003422498575566e+00  7.43892230e-01  -1.11693620e-01  -3.07127100e-02
C     6.294542936766443e+00   7.246080353783234e-01   3.010052129973945e+00 -4.80807420e-01   3.28097820e-01  -1.71589500e-01
C     7.550490919080960e+00   3.256534638010771e-03   3.002117641677575e+00 -7.32301400e-02  -1.07930910e-01  -5.24539200e-02
C     8.808250339770352e+00   7.241356624529248e-01   2.988991293045040e+00 -2.62145900e-02   2.25907380e-01   1.53980760e-01
C     1.245643861530737e+00   2.172936079565283e+00   3.001892652795812e+00  6.18568870e-01   2.48264150e-01  -5.76138000e-02
C     2.519593945227826e+00   2.891751338370800e+00   2.992439482597659e+00 -3.02847270e-01   3.59930350e-01   9.71936200e-02
C     3.777929602675970e+00   2.167420948944428e+00   2.997828700980716e+00 -9.48543400e-02   6.09078120e-01  -6.92759800e-02
C     5.029384619009544e+00   2.921346294824519e+00   2.994802919562106e+00  3.75737200e-02  -5.75766200e-01   1.25580030e-01
C     6.286230081225090e+00   2.184257843126278e+00   2.991370682935834e+00  1.40977300e-01  -2.99688100e-02   9.02749200e-02
C     7.554049154309567e+00   2.908097731908770e+00   2.988960134477777e+00 -5.29550070e-01  -3.46442800e-02  -1.93420100e-02
C     8.798076480019201e+00   2.184706222843088e+00   2.987594925657249e+00  5.90176910e-01  -3.43098480e-01   3.06685700e-02
C     1.006543037371867e+01   2.904054415741948e+00   2.993244963142246e+00 -1.96936790e-01   7.92286900e-02   5.23880100e-02
C     2.514267938124304e+00   4.348858784596136e+00   2.994227640832994e+00  1.56897420e-01   3.99063970e-01   1.06544720e-01
C     3.777864674359737e+00   5.094271766441762e+00   3.008155607512193e+00 -5.98039480e-01  -5.26094950e-01  -9.83072300e-02
C     5.023978754986440e+00   4.373273655830231e+00   3.016954482633756e+00  2.95008040e-01  -2.22752970e-01  -2.55935590e-01
C     6.280091230828620e+00   5.097312179820837e+00   2.996376265311344e+00  7.10811310e-01  -6.12048580e-01   5.03642000e-03
C     7.549665698497050e+00   4.352822558506875e+00   2.988085030252079e+00 -2.06743900e-02   6.27914010e-01   1.41777930e-01
C     8.815160492245443e+00   5.087457400385293e+00   3.007773844035179e+00 -3.76991760e-01  -5.21527800e-02  -2.63883140e-01
C     1.007489138643471e+01   4.356203999301505e+00   3.000505881118259e+00 -2.81361210e-01   3.24148700e-01   2.58000100e-02
C     1.132497887148075e+01   5.097836122817154e+00   3.003452693374476e+00  3.33238650e-01  -8.34596580e-01  -1.75804140e-01
C     3.776263035057902e+00   6.532200845780441e+00   2.993851448733178e+00 -2.64331950e-01   7.12652550e-01   1.39109980e-01
C     5.030534086904049e+00   7.265621401621168e+00   3.003671756657214e+00  2.43157750e-01  -1.82572340e-01  -9.56857800e-02
C     6.302421310769443e+00   6.535720257575635e+00   2.988057808245034e+00 -8.92725930e-01   4.02761420e-01   2.47389440e-01
C     7.539865002289839e+00   7.270047037507926e+00   3.006805363364789e+00  6.27990400e-01  -2.36814760e-01  -2.07727830e-01
C     8.801041247174602e+00   6.549235165637703e+00   2.990457809917342e+00  2.97809620e-01  -4.45820480e-01   2.23042990e-01
C     1.006249053918194e+01   7.269093230104870e+00   2.997449137556896e+00  4.47153700e-02  -6.72617400e-02  -7.40358400e-02
C     1.133270142136800e+01   6.538985431436941e+00   2.984897324253794e+00 -5.38977680e-01   4.04700300e-01   2.40129030e-01
C     1.257700959586798e+01   7.272668608641410e+00   2.997463334290595e+00  5.23594380e-01  -3.38362550e-01  -7.29503700e-02
