32
Lattice="9.86 0 0 4.93 8.53901048131456 0 0 0 30 " PBC="1 1 1" Properties=species:S:1:pos:R:3:force:R:3 Energy="-255.21190918"
C     5.005133791600000e+00   7.779586068631978e+00   3.669660000000000e-02  8.44051380e-01  -1.37661668e+00  -8.22243190e-01
C     6.234697730100000e+00   8.497259244428355e+00  -9.429000000000087e-02  6.33992700e-02  -6.25855550e-01   1.28049480e-01
C     7.475755174800000e+00   7.785994595997217e+00  -8.292330000000092e-02 -1.01933589e+00  -6.85883170e-01   3.05717820e-01
C     8.691428936900000e+00   8.523506454841778e+00  -1.219622999999999e-01  6.90033470e-01  -2.96242803e+00  -9.59753790e-01
C     9.925238492799998e+00   7.767687299088516e+00  -2.529477000000000e-01 -7.84220830e-01   8.62244240e-01   1.08282583e+00
C     1.116051442790000e+01   8.425018361866506e+00  -1.471520999999996e-01  1.70505366e+00   1.92304109e+00  -1.18236552e+00
C     1.245821520620000e+01   7.759927900265341e+00  -2.556744000000002e-01 -2.67692182e+00  -3.41263420e-01   5.31111890e-01
C     1.366393781260000e+01   8.503960574462953e+00  -9.397170000000088e-02 -4.49027460e-01  -2.36777219e+00  -1.22006450e-01
C     1.305753391000000e+00   1.363400748013304e+00  -3.353667000000016e-01 -1.01724800e-01  -1.95415090e-01   1.33464013e+00
C     2.557328349800000e+00   2.001090635055512e+00  -3.769980000000004e-01 -3.95402210e-01   3.39739027e+00  -5.34467480e-01
C     3.781990833000000e+00   1.354445887722928e+00  -2.469672000000003e-01 -9.46007760e-01  -4.27939720e-01  -1.55879490e-01
C     4.990950723899999e+00   2.019210671464386e+00  -2.459291999999991e-01  1.47460635e+00   2.81036050e+00   8.81027230e-01
C     6.195197781299999e+00   1.342863146957332e+00  -1.557186000000002e-01  3.19504204e+00  -9.12341730e-01  -1.25098230e-01
C     7.517658005600000e+00   2.094590750448997e+00  -2.070717000000002e-01 -2.22057253e+00  -4.85333239e+00   9.08828920e-01
C     8.746267791899999e+00   1.331276734417230e+00  -1.238097000000025e-01 -3.08031460e-01   4.31002746e+00  -9.69478220e-01
C     9.966975724899999e+00   2.134244121925916e+00  -2.506452000000010e-01  6.23408000e-03  -2.17260775e+00  -1.12582598e+00
C     2.597321298600000e+00   3.452872020119122e+00  -4.886169000000002e-01 -1.38029499e+00   3.02010840e-01   9.89974230e-01
C     3.839525905000000e+00   4.176417046472070e+00  -3.311112000000023e-01 -1.80043759e+00  -1.21189868e+00   5.54835000e-02
C     5.059590620900000e+00   3.477040237650980e+00  -1.266599999999976e-01 -1.28723073e+00  -1.45799464e+00  -4.08341160e-01
C     6.266238884100000e+00   4.142934305528419e+00   8.887529999999999e-02  2.74081200e-02   4.42345470e-01  -1.42797204e+00
C     7.478720372600000e+00   3.435035393468079e+00  -1.277250000000016e-01  1.95570223e+00   2.99777569e+00  -2.45189080e-01
C     8.719167433999999e+00   4.180828299286039e+00  -3.331136999999984e-01 -7.66735180e-01   1.06505495e+00   7.75887600e-01
C     1.001030924170000e+01   3.544386217845273e+00  -4.961042999999989e-01 -4.65934064e+00  -2.41658735e+00   1.78624636e+00
C     1.116221591880000e+01   4.220727338094467e+00  -4.225950000000012e-01  4.35323118e+00   6.27107780e-01  -9.68405970e-01
C     3.705996016900000e+00   5.551745169713943e+00  -2.890946999999997e-01  2.88995908e+00   3.54844703e+00   1.09227928e+00
C     4.990043801100000e+00   6.327243243629308e+00   3.249300000000000e-02 -9.89037030e-01  -1.34953254e+00  -9.39334960e-01
C     6.248495074599999e+00   5.557781993952989e+00   7.932570000000000e-02 -2.02294916e+00   2.20923632e+00   6.65321500e-02
C     7.422563629999999e+00   6.323130258451407e+00  -2.451239999999899e-02  1.19970933e+00   5.99014070e-01  -4.90075100e-02
C     8.629124582899999e+00   5.605670728697238e+00  -2.015564999999988e-01  2.31539327e+00   7.28605080e-01  -5.86348480e-01
C     9.886192251899999e+00   6.391937348728932e+00  -3.138233999999969e-01 -4.23314320e-01  -3.36741738e+00   3.04550280e-01
C     1.113011333640000e+01   5.646309672763760e+00  -3.620973000000021e-01 -9.47153940e-01   2.96223030e-01  -7.72038730e-01
C     1.234782032910000e+01   6.322950170720383e+00  -4.075503000000005e-01  2.45791486e+00   6.06002500e-01   1.15060159e+00
