32
Lattice="9.86 0 0 4.93 8.53901048131456 0 0 0 30 " PBC="1 1 1" Properties=species:S:1:pos:R:3:force:R:3 Energy="-251.72281303"
C     4.945279992700000e+00   8.249162393656984e+00  -8.131331999999993e-01  5.28666325e+00   5.36760030e-01   6.98420740e-01
C     1.367154963400000e+00   3.816847171048912e-01  -6.977555999999971e-01 -2.11827407e+00   9.97163440e-01  -6.41343190e-01
C     7.565389328900000e+00   8.228947311026843e+00  -6.995046000000009e-01 -1.85828483e+00   1.39137390e+00   1.26863650e-01
C     3.827418860300000e+00   4.637086585835704e-01  -7.142879999999998e-01 -5.54783060e-01  -1.13017630e+00  -2.74922662e+00
C     9.945526182300000e+00   8.278531466301896e+00  -1.009430699999999e+00  1.54748502e+00  -3.07979882e+00   6.26004410e-01
C     6.283563397100000e+00   4.065596231440744e-01  -8.986917000000005e-01 -3.53599269e+00   7.24973130e-01   2.79871900e-02
C     1.242697177490000e+01   8.253564082779215e+00  -9.245877000000000e-01 -1.27958090e+00  -5.22971900e-02  -1.44565192e+00
C     8.712195723799999e+00   4.174761503120208e-01  -8.185517999999981e-01 -1.50720768e+00   1.64898584e+00  -2.08417280e-01
C     1.280020072800000e+00   1.805107365243582e+00  -8.872605000000000e-01  3.57938370e-01   2.92280040e-01  -1.05590403e+00
C     2.502998961000000e+00   2.508600404066557e+00  -1.328936400000000e+00 -6.21861120e-01   2.71982590e-01   1.55437680e+00
C     3.706003116100000e+00   1.815483714608564e+00  -1.145395199999999e+00  2.63919581e+00   1.46344455e+00   1.20393784e+00
C     5.008461541599999e+00   2.556394441184584e+00  -1.104193200000001e+00 -2.25038573e+00   2.04159800e-01   1.99503120e-01
C     6.122215491000000e+00   1.834501201018886e+00  -7.833737999999997e-01  4.42162788e+00  -1.34791036e+00  -1.08302842e+00
C     7.415849610899999e+00   2.490181160730463e+00  -8.017079999999979e-01 -2.03190385e+00   3.62607144e+00   1.21858076e+00
C     8.643491243800000e+00   1.896641971204781e+00  -8.404583999999993e-01 -9.57063200e-02  -4.70645571e+00   1.21475104e+00
C     9.842750225800000e+00   2.528272405630172e+00  -8.716884000000000e-01  4.57062438e+00   6.62031470e-01  -2.29585700e+00
C     2.582405978000000e+00   3.971604952164450e+00  -1.545823200000001e+00 -6.77571100e-01  -3.00016203e+00   5.29666200e-02
C     3.801901722600000e+00   4.628848319304810e+00  -1.433298600000001e+00  2.02660054e+00   4.24452422e+00   6.71246170e-01
C     5.095839678399999e+00   3.986986784082703e+00  -1.176917099999997e+00 -4.02042283e+00  -4.20621340e-01  -6.54458360e-01
C     6.236533415600000e+00   4.743610058452865e+00  -9.161982000000002e-01  1.38047847e+00  -4.04263719e+00   1.49949751e+00
C     7.430962476600000e+00   3.933043805518027e+00  -6.319814999999984e-01  1.44942688e+00   1.63730202e+00  -2.56273426e+00
C     8.696498455899999e+00   4.701544587295555e+00  -8.456225999999987e-01  1.02880589e+00  -4.89294413e+00  -1.04103159e+00
C     9.953521902799999e+00   3.868865456651395e+00  -1.311930600000000e+00 -1.66935596e+00   3.26776728e+00   2.62627322e+00
C     1.119747828610000e+01   4.595668884013407e+00  -1.600593000000000e+00 -1.65218954e+00   2.11550856e+00   1.93725278e+00
C     3.791194797900000e+00   6.208052490525485e+00  -1.291679100000003e+00 -9.60740030e-01  -3.07034969e+00  -4.85547760e-01
C     5.040425837500000e+00   6.864535544172706e+00  -9.486666000000028e-01 -2.28417921e+00  -2.07096000e+00  -3.74631980e-01
C     6.234707146400000e+00   6.078737801206470e+00  -7.602519000000001e-01  2.06196512e+00   5.29295728e+00  -1.09446914e+00
C     7.566109404699999e+00   6.858764539329903e+00  -7.718457000000001e-01 -1.72286097e+00  -3.61076210e+00   1.41101208e+00
C     8.791785693100000e+00   6.064332405136606e+00  -8.092244999999991e-01 -2.90154550e+00   1.14291175e+00  -1.42176891e+00
C     9.947546447000001e+00   6.682240393550321e+00  -1.221058499999998e+00 -2.11103400e-02   5.88965980e+00   2.13151274e+00
C     1.116403489160000e+01   6.084587194165480e+00  -1.373013300000000e+00  6.75193860e-01  -1.81209968e+00  -1.89704756e+00
C     1.232128489990000e+01   6.909071436451985e+00  -1.372622700000001e+00  4.31795026e+00  -2.17268258e+00   1.81093137e+00
