32
Lattice="9.86 0 0 4.93 8.53901048131456 0 0 0 30 " PBC="1 1 1" Properties=species:S:1:pos:R:3:force:R:3 Energy="-255.64738252"
C     4.968908398100000e+00   8.535089793338109e+00  -6.410009999999744e-02 -4.06734560e-01  -1.59753924e+00   2.59767410e-01
C     1.298714682100000e+00   6.693852423121864e-01  -3.017790000000176e-02 -1.89820337e+00   6.66647640e-01  -1.24187507e+00
C     7.448894267000000e+00   8.517822804076186e+00  -3.735479999999924e-02 -8.39236070e-01   7.46949370e-01   2.61441000e-02
C     3.727773946800000e+00   7.335609440855696e-01  -5.359409999999798e-02 -1.27116806e+00  -1.92069604e+00   3.80413790e-01
C     9.826423889899999e+00   8.488789912273871e+00  -2.362170000000319e-02  1.84857529e+00   6.08960280e-01   3.40313900e-02
C     6.124566361499999e+00   6.037525291806008e-01  -7.410899999999998e-03  1.49938033e+00   4.82956775e+00  -8.27435300e-01
C     1.234339866140000e+01   8.497155495451022e+00  -6.511740000000188e-02 -1.04371442e+00   1.69558920e+00   8.72140140e-01
C     8.668005520900000e+00   7.007435628385191e-01  -1.742910000000109e-02 -1.08849973e+00   5.33222700e-01  -3.13066120e-01
C     1.234308767700000e+00   2.082863871186498e+00  -1.789076999999999e-01 -2.16971640e-01   1.15642791e+00   3.12634729e+00
C     2.426526970200000e+00   2.799130671956819e+00   7.431840000000001e-02  1.29043170e-01   2.68204946e+00  -1.75365670e+00
C     3.642500870700000e+00   2.127730906292191e+00   1.840830000000000e-02  1.42073234e+00   8.27328620e-01  -9.18306400e-02
C     4.853566512500000e+00   2.893651796833397e+00  -7.057199999998431e-03  1.47097114e+00  -1.25106095e+00   2.36503250e-01
C     6.073740279999999e+00   2.170765725919190e+00  -7.400909999999783e-02  2.46401462e+00  -2.06383988e+00   3.23365410e-01
C     7.381571764599999e+00   2.888818119170984e+00  -1.204877999999994e-01 -9.37401490e-01  -1.57949197e+00   1.19823400e+00
C     8.633070949300000e+00   2.154089977742903e+00   2.418810000000000e-02 -7.47389370e-01  -3.92915520e-01  -1.10041281e+00
C     9.873547393500001e+00   2.850463701968283e+00   1.459590000000000e-02  3.86976760e-01  -1.03611884e+00  -1.09748253e+00
C     1.233121461010000e+01   4.323658534392798e+00   4.305780000000000e-02  4.10150730e-01  -3.61392983e+00   5.35522090e-01
C     3.685186388300000e+00   5.014970674766053e+00  -5.063099999999920e-02  6.47738110e-01  -4.30784490e-01   1.85480876e+00
C     4.935353339100000e+00   4.298423196721253e+00   5.400300000000000e-02 -9.48009110e-01   4.44172060e-01  -8.74898810e-01
C     6.178410884800000e+00   4.997795223696476e+00   4.163970000000000e-02 -2.70039400e-01  -7.35357420e-01  -1.19715546e+00
C     7.413573577799999e+00   4.313389776559863e+00  -8.593830000000224e-02  5.68410420e-01  -1.30257065e+00   1.78708110e-01
C     8.686558935000001e+00   4.968517176903280e+00  -1.029309000000005e-01 -7.02050020e-01   1.57398737e+00   8.92333480e-01
C     9.931871906400000e+00   4.268502247829019e+00   1.296660000000000e-02 -1.95169090e+00  -8.54776900e-02   2.32299530e-01
C     1.112912531510000e+01   4.999219786814853e+00   1.599435000000000e-01 -5.79246140e-01  -1.14288908e+00  -1.34762624e+00
C     1.350936559990000e+01   6.425820825434410e+00   7.190700000000000e-02  1.32045904e+00  -9.82819930e-01  -1.53149246e+00
C     4.900046404599999e+00   7.064838443216154e+00  -9.062070000000233e-02  6.48990160e-01   2.58000646e+00   7.91435610e-01
C     6.149245793600000e+00   6.384238662270269e+00  -1.018506000000023e-01 -2.88018900e-02   1.13334305e+00   9.67387740e-01
C     7.375937366200000e+00   7.120320663809953e+00  -2.839680000000300e-02  1.70583510e+00  -9.89943840e-01  -6.59967870e-01
C     8.653335714299999e+00   6.437463937004100e+00  -4.257840000000002e-02 -1.18718704e+00  -2.89369569e+00  -5.29102600e-02
C     9.886317227399999e+00   7.077271584035453e+00  -3.261599999998310e-03 -1.40515109e+00   8.16657280e-01   8.36876500e-02
C     1.110170588760000e+01   6.372258259786619e+00   6.893700000000000e-02 -7.58102170e-01   1.66104053e+00   1.34696140e-01
C     1.228197194600000e+01   7.106241884890948e+00   3.821100000000000e-02  1.75831926e+00   6.31813800e-02  -3.80156200e-02
