32
Lattice="9.86 0 0 4.93 8.53901048131456 0 0 0 30 " PBC="1 1 1" Properties=species:S:1:pos:R:3:force:R:3 Energy="-252.26573962"
C     9.639266743600000e+00   6.532512089607504e-01   4.402394100000000e+00  3.07704639e+00  -4.21278958e+00   1.22373080e+00
C     1.142583652700000e+00   1.263045088055951e+00   4.328713499999999e+00 -2.77279207e+00  -9.73592790e-01   9.01926060e-01
C     2.335096965000000e+00   6.331203209739408e-01   4.762075500000000e+00  6.49355490e-01  -3.71929877e+00  -2.28300600e-01
C     3.593561056500000e+00   1.262740416162025e+00   4.564160100000000e+00  9.26371900e-02  -2.41493777e+00   1.16201026e+00
C     4.861849849200000e+00   4.755696003106048e-01   4.712446200000000e+00 -3.99359810e+00   2.41462287e+00  -4.12758180e-01
C     6.021080139900000e+00   1.260943125236194e+00   4.643499300000000e+00  2.14417980e-01  -3.76712884e+00   7.51177590e-01
C     7.189936699299999e+00   4.605051634118936e-01   4.608290700000000e+00  3.21448252e+00   2.39924211e+00  -1.16347017e+00
C     8.385699029500000e+00   1.286422337047047e+00   4.377634200000000e+00  8.84544640e-01  -3.61035133e+00  -3.01409150e-01
C     1.096424580350000e+01   2.608498714622601e+00   4.012687200000000e+00  1.96193490e-01   3.14495318e+00  -5.80154880e-01
C     2.369281387800000e+00   3.354036730977733e+00   4.024037700000000e+00 -1.31798803e+00   8.00674210e-01   7.27951590e-01
C     3.591892054300000e+00   2.636627581385398e+00   4.368568799999999e+00 -1.00107980e-01   2.16937551e+00  -5.12379400e-01
C     4.813812570100000e+00   3.345099546439050e+00   4.637250000000000e+00 -3.53122540e-01   7.63297300e-01   2.99601810e-01
C     6.046282102699999e+00   2.640918946492226e+00   4.790618400000000e+00 -3.19137060e-01   1.04509442e+00  -1.40878069e+00
C     7.252958614799999e+00   3.362384296842771e+00   4.609875900000000e+00 -8.49221200e-01   8.30617890e-01  -6.90676730e-01
C     8.414956163799999e+00   2.623726929742318e+00   4.115126699999999e+00 -4.18703210e-01   4.14001664e+00   2.04568498e+00
C     9.654933346900000e+00   3.333224173784305e+00   3.959505300000000e+00  1.44280990e+00   1.03023656e+00   5.94464960e-01
C     1.216301385610000e+01   4.845945402599901e+00   4.052736299999999e+00  1.40334967e+00  -2.46411546e+00   1.60216807e+00
C     3.547296605400000e+00   5.403544067795473e+00   4.526235000000000e+00 -1.79362770e-01   3.77923304e+00  -4.54896830e-01
C     4.756129203700000e+00   4.768298301722956e+00   4.762760700000000e+00  2.39316207e+00  -4.72136250e-01   9.78436190e-01
C     6.054820665499999e+00   5.532351369111767e+00   5.159608200000000e+00 -4.17542796e+00   5.61277840e-01  -2.30864535e+00
C     7.177150695000000e+00   4.824166400200347e+00   4.794854100000000e+00  3.38609730e+00  -2.68355877e+00   1.26261110e-01
C     8.477573129100000e+00   5.415492278209613e+00   4.667677800000000e+00 -5.64614200e-01   3.76809534e+00   8.06833280e-01
C     9.659900223299999e+00   4.820758566507884e+00   4.192646100000000e+00  1.08059325e+00  -2.12744076e+00  -3.85463060e-01
C     1.093009672880000e+01   5.566866476422451e+00   4.172860800000000e+00 -9.70125260e-01  -6.76904860e-01   1.04859647e+00
C     1.349638283930000e+01   6.889480726268141e+00   4.641771299999999e+00 -1.05879648e+00  -2.16265380e-01  -1.07425045e+00
C     4.815800986999999e+00   7.698623953106486e+00   4.684179600000000e+00 -3.75575290e-01   7.11827880e-01   1.01568442e+00
C     6.039506705100000e+00   7.027570188146508e+00   5.122228200000000e+00 -1.61715679e+00  -2.52102178e+00  -8.14172180e-01
C     7.268065022200000e+00   7.620534702266887e+00   5.168973300000000e+00  1.78316484e+00   3.90354985e+00  -2.03867096e+00
C     8.509761887899998e+00   6.887595654314575e+00   4.998094200000001e+00 -1.18929282e+00  -1.17201780e+00  -1.31198297e+00
C     9.688806933199999e+00   7.600600040740908e+00   4.712279100000000e+00  1.80512598e+00   1.25883831e+00   1.09677691e+00
C     1.093701830090000e+01   6.953386851480669e+00   4.586338200000000e+00  1.78804430e+00  -2.57784241e+00  -2.00003663e+00
C     1.226624080900000e+01   7.591071700506695e+00   4.521411899999999e+00 -3.15600321e+00   8.88449570e-01   1.30474372e+00
