32
Lattice="9.86 0 0 4.93 8.53901048131456 0 0 0 30 " PBC="1 1 1" Properties=species:S:1:pos:R:3:force:R:3 Energy="-249.46904732"
C     1.081323226200000e+00   8.759279378737888e-01   4.120813800000000e+00  5.64980042e+00  -6.52006640e-01  -1.50079168e+00
C     2.493114606800000e+00   1.557136550266897e+00   4.119948600000000e+00 -6.26586386e+00   2.57965716e+00   1.15686545e+00
C     3.620258485500000e+00   8.395070942041785e-01   3.865298100000000e+00  3.67418930e-01   3.00219302e+00   7.69082340e-01
C     4.790070380300000e+00   1.638053323646740e+00   4.015886399999999e+00  1.58588103e+00  -1.56490532e+00  -9.64055660e-01
C     6.046838748999999e+00   1.048613883832715e+00   3.826899900000000e+00  2.08596633e+00  -4.10632988e+00  -1.72332347e+00
C     7.363825292900000e+00   1.626655110897617e+00   3.849085200000000e+00 -9.85409100e-02  -8.32397410e-01   1.12087740e-01
C     8.571315600100000e+00   8.484288231338919e-01   4.065848100000000e+00  3.46895600e-01   6.48200747e+00  -2.03176276e+00
C     9.823443852800001e+00   1.688186110345134e+00   4.056056100000000e+00 -1.69883233e+00  -3.28429761e+00   2.01365961e+00
C     2.459921459100000e+00   3.087722840638436e+00   4.412663999999999e+00 -2.39534865e+00  -1.60612112e+00  -1.39846650e-01
C     3.612391783100000e+00   3.819134686566399e+00   4.438583400000001e+00  2.10626238e+00  -1.46656775e+00  -3.79071690e-01
C     4.843118412800000e+00   3.013233551227099e+00   4.145641800000000e+00 -9.27030650e-01   2.50737518e+00   2.24655190e-01
C     6.064853116900000e+00   3.601019838612196e+00   3.810681900000000e+00  2.81533138e+00   4.57631659e+00  -1.57477802e+00
C     7.417662421199999e+00   2.970666754764509e+00   3.566881800000000e+00 -1.17084152e+00   3.71533782e+00   4.37794794e+00
C     8.621790813499999e+00   3.847236911616498e+00   4.079357399999999e+00 -1.65459220e+00  -1.55987762e+00  -2.62605383e+00
C     9.821243692400000e+00   3.053582937448243e+00   4.318737900000000e+00  1.49133910e-01   5.09016525e+00  -6.96335170e-01
C     1.106214367290000e+01   3.920141275292642e+00   4.460180100000001e+00 -1.43663650e-01  -5.88298756e+00  -1.32769707e+00
C     3.567476722300000e+00   5.228674953027126e+00   4.472226000000000e+00  4.36991079e+00   1.12653940e-01  -3.51815006e+00
C     4.798784056700000e+00   5.828082748285397e+00   3.874050599999999e+00  1.46815395e+00   1.18142601e+00   1.50774355e+00
C     6.092467230099999e+00   5.161167756314970e+00   3.606791400000000e+00 -3.16443605e+00  -2.38062775e+00   2.25242797e+00
C     7.266695369599999e+00   5.935069462221099e+00   3.580269000000000e+00  2.90122411e+00  -1.36364808e+00  -2.10703590e-01
C     8.549372860300000e+00   5.314922374479317e+00   3.894150600000000e+00  1.27255185e+00  -2.98181797e+00   3.02099250e-01
C     9.855899078099998e+00   5.981151171567572e+00   3.972926700000000e+00 -2.75088418e+00   1.00618313e+00  -1.91122536e+00
C     1.108761289100000e+01   5.258883154231907e+00   4.099955400000000e+00 -1.51665244e+00   1.12050026e+00   1.90473258e+00
C     1.230056741300000e+01   5.967831425290134e+00   4.178700600000000e+00 -1.50532430e+00   1.83044858e+00  -8.96492590e-01
C     4.881508421400000e+00   7.300944303130878e+00   3.906167100000000e+00 -2.50613893e+00  -3.06346204e+00  -8.85366660e-01
C     6.092745084899999e+00   7.876454396709298e+00   3.884716500000000e+00  5.36783140e-01   6.91554436e+00  -6.15745520e-01
C     7.332034927399999e+00   7.347956850009775e+00   3.491684400000000e+00 -2.63959728e+00  -1.86341679e+00   1.88541872e+00
C     8.503995020400000e+00   8.042345937419393e+00   3.582422700000000e+00  2.69495522e+00  -1.02974531e+00  -6.84387500e-02
C     9.763715275899999e+00   7.387806447947526e+00   3.631350900000000e+00  3.45939429e+00  -8.48051260e-01  -1.46108510e-01
C     1.108011317780000e+01   8.135844003450364e+00   3.489881700000000e+00 -2.16017855e+00  -9.83597110e-01   3.65421695e+00
C     1.232022100590000e+01   7.382444803267133e+00   3.819215700000000e+00 -2.51115440e+00  -3.68164170e-01  -9.90144450e-01
C     1.352535304760000e+01   8.093645579899880e+00   3.803248500000000e+00  1.29941658e+00  -4.28178738e+00   2.04515419e+00
