32
Lattice="9.86 0 0 4.93 8.53901048131456 0 0 0 30 " PBC="1 1 1" Properties=species:S:1:pos:R:3:force:R:3 Energy="-257.23542215"
C     1.183790761900000e+00   8.649140659863703e-01   3.603754800000000e+00  1.12231956e+00  -1.45922970e+00  -5.67467870e-01
C     2.443118441500000e+00   1.529007085773367e+00   3.579988200000000e+00 -8.93930520e-01   1.34180822e+00   3.20833860e-01
C     3.676028962600000e+00   8.615050368324400e-01   3.544189500000000e+00 -1.48957299e+00  -2.37754708e+00  -2.27866950e-01
C     4.865368587400000e+00   1.556115284613490e+00   3.552641400000000e+00  1.41630907e+00   9.98829750e-01   1.44744800e-02
C     6.078362697299999e+00   8.384070988741448e-01   3.535838100000000e+00  2.68596311e+00  -1.29542650e-01  -5.93100370e-01
C     7.370313912399999e+00   1.515196346393330e+00   3.536048100000000e+00 -3.54724600e-01   1.17957223e+00  -7.13292100e-02
C     8.627707158600000e+00   8.486888360030079e-01   3.578518500000000e+00 -1.12908110e+00  -2.15004580e-01  -5.95161160e-01
C     9.843654092000000e+00   1.607986699235717e+00   3.586325700000000e+00 -7.34674620e-01  -2.29904020e+00   2.99804090e-01
C     2.430650816600000e+00   2.961702330782395e+00   3.633958800000000e+00 -3.02557280e-01   3.23337600e-01   4.77439700e-02
C     3.649609585600000e+00   3.689955938294225e+00   3.647267700000000e+00  8.55120460e-01   3.84069270e-01  -1.14107750e-01
C     4.900021261599999e+00   2.989919661693765e+00   3.572828700000000e+00 -1.44000630e-01  -5.87339280e-01   3.90531000e-02
C     6.167500597600000e+00   3.651678969916577e+00   3.506768700000000e+00 -8.86578640e-01   1.23982930e-01  -6.98170100e-02
C     7.410100047699999e+00   2.956015947533448e+00   3.473726700000000e+00 -1.24565041e+00  -4.33794080e-01   9.63623900e-01
C     8.596063953599998e+00   3.711870967130726e+00   3.589050000000000e+00  1.74625080e-01   3.57658040e-01  -6.89020420e-01
C     9.823004096800000e+00   2.988252163727231e+00   3.606249600000000e+00  1.49474130e-01   1.60495407e+00   1.64380690e-01
C     1.105024102600000e+01   3.691207074109755e+00   3.634587300000000e+00  7.07227600e-01  -2.64808480e-01  -3.33460740e-01
C     3.661777713000000e+00   5.126841873476524e+00   3.663756000000000e+00  1.39493010e-01  -3.15302060e-01  -7.62616600e-01
C     4.915826545800000e+00   5.816956844580481e+00   3.544021500000000e+00 -7.41541000e-01  -7.81453140e-01   1.64497230e-01
C     6.150760930500000e+00   5.059329297187765e+00   3.487530600000000e+00 -1.53239737e+00   1.36730173e+00   4.13656320e-01
C     7.322724720999999e+00   5.815946167300068e+00   3.501912000000000e+00  1.73365927e+00   2.82594640e-01  -4.81216750e-01
C     8.565782661100000e+00   5.165217296645006e+00   3.547541400000000e+00  1.59141614e+00  -1.99172652e+00   7.59790000e-03
C     9.854104755300000e+00   5.831334061915762e+00   3.524625000000000e+00 -1.99192256e+00   3.08821500e-01  -1.81676740e-01
C     1.104655200560000e+01   5.106923606850666e+00   3.545767500000000e+00  1.05853352e+00   8.96204700e-02   7.07269940e-01
C     1.228048269160000e+01   5.843168703490519e+00   3.594078300000000e+00  5.23476690e-01  -1.58136134e+00  -2.48105040e-01
C     4.887814483000000e+00   7.246249550083544e+00   3.520918200000000e+00  8.03007480e-01  -4.75023110e-01   7.49440400e-02
C     6.121260648600000e+00   7.944138436328495e+00   3.537614100000000e+00  3.44401390e-01   1.28348915e+00  -3.38657540e-01
C     7.370532262100000e+00   7.227733303588398e+00   3.440730000000000e+00 -1.32869754e+00   1.11983753e+00   8.52320810e-01
C     8.590329377600000e+00   7.945281809831767e+00   3.473196300000000e+00  1.21571123e+00   5.57405730e-01   9.11543700e-02
C     9.863865070699999e+00   7.252448273961290e+00   3.472615800000000e+00 -1.41327526e+00  -2.79879710e-01  -1.05394380e-01
C     1.107816903230000e+01   7.956058468008050e+00   3.444639300000000e+00 -5.39414190e-01   3.87428030e-01   6.82719220e-01
C     1.230368070800000e+01   7.226644494362093e+00   3.496491900000000e+00 -1.20981580e-01   2.03019365e+00  -4.18996400e-02
C     1.352921008240000e+01   7.967845974244957e+00   3.502028100000000e+00  3.28262550e-01  -5.49852630e-01   5.76824260e-01
