32
Lattice="9.86 0 0 4.93 8.53901048131456 0 0 0 30 " PBC="1 1 1" Properties=species:S:1:pos:R:3:force:R:3 Energy="-254.21414517"
C     1.082583284900000e+00   1.151376007723542e+00   3.896862300000000e+00  2.15018052e+00  -5.01478180e-01  -7.43216490e-01
C     2.405029606600000e+00   1.862731511226186e+00   3.935195700000000e+00 -2.06853610e+00  -3.47208584e+00  -3.59677310e-01
C     3.630929963500000e+00   1.101369512990146e+00   3.632219700000000e+00 -1.14852522e+00   1.60728459e+00   2.55182000e-02
C     4.808126801100000e+00   1.913753208915548e+00   3.609373800000000e+00  1.12569693e+00  -3.10154836e+00   3.32979210e-01
C     6.067544749000000e+00   1.144603462341539e+00   3.472903500000000e+00 -1.76211787e+00   1.01386932e+00   3.44980160e-01
C     7.275333370500000e+00   1.871796439361649e+00   3.570580800000000e+00 -8.24290600e-01  -2.32227441e+00  -1.11093490e-01
C     8.462369009100000e+00   1.167532840232959e+00   3.696149700000000e+00  1.20051139e+00  -2.94876692e+00  -2.82027740e-01
C     9.678133286000001e+00   1.844527707124502e+00   3.830235300000000e+00  1.96205180e+00  -7.91681260e-01   1.66769332e+00
C     2.336454834900000e+00   3.206395275806122e+00   4.193525400000000e+00 -2.27959850e-01   3.16332971e+00  -1.01472470e-01
C     3.559187814700000e+00   3.947012004251316e+00   4.002315300000000e+00 -1.61520810e-01   2.70758971e+00   8.42845480e-01
C     4.783368193199999e+00   3.304117163371024e+00   3.856759500000000e+00  1.98370196e+00  -3.04566700e-02  -1.11661525e+00
C     6.062031431399999e+00   4.035702521991941e+00   3.690102900000000e+00 -2.96400970e-01  -2.51558109e+00  -1.02916983e+00
C     7.306303926300000e+00   3.229575273655130e+00   3.542408100000000e+00 -1.53247814e+00   3.62016823e+00   1.24973900e+00
C     8.529348679300000e+00   3.923969826031455e+00   3.721417500000000e+00 -1.05855523e+00   1.37411884e+00  -6.55399380e-01
C     9.705137607499999e+00   3.233427733623287e+00   4.078980300000000e+00 -1.10411810e-01   8.01680250e-01  -8.85923490e-01
C     1.088704195420000e+01   3.951522224196747e+00   4.342873200000000e+00  2.37218743e+00   1.60597590e-01  -2.34521468e+00
C     3.603196593600000e+00   5.446082002402642e+00   3.957331200000000e+00 -9.69755220e-01  -2.69932615e+00  -2.73905870e-01
C     4.824329541899999e+00   6.098927352195277e+00   3.600812700000000e+00 -7.23877280e-01   2.63471542e+00   8.52154950e-01
C     6.051122820400000e+00   5.410309184238359e+00   3.479304300000000e+00  1.63570498e+00   5.81856930e-01  -3.74795660e-01
C     7.368863506400000e+00   6.086963088441435e+00   3.205441800000000e+00 -3.92847370e+00   1.16031074e+00   1.27617646e+00
C     8.515154814899999e+00   5.348001988738209e+00   3.456186600000000e+00  1.54940959e+00  -2.17788430e-01   1.00084723e+00
C     9.729610571200000e+00   6.071343530471419e+00   3.662514000000000e+00  8.02346610e-01   9.24339440e-01  -2.07359250e-01
C     1.092922111150000e+01   5.397352858246950e+00   4.014210000000000e+00 -5.00369860e-01  -2.45911787e+00   1.23971249e+00
C     1.215663330220000e+01   6.057781532466664e+00   4.012970999999999e+00  1.85813724e+00   3.37079233e+00  -1.75515227e+00
C     4.824601825799999e+00   7.621730676074716e+00   3.616252200000000e+00  1.04271304e+00  -4.09659873e+00   3.61893350e-01
C     6.094005537999999e+00   8.275567148813765e+00   3.675057000000000e+00 -5.25282610e-01   1.77034440e-01  -1.77446744e+00
C     7.333351483900000e+00   7.562149815840620e+00   3.253005600000000e+00 -1.57500481e+00  -1.70576878e+00   1.67991775e+00
C     8.555236750200001e+00   8.196267066288101e+00   3.365273700000000e+00  3.28254350e-01   2.79683879e+00   7.92840490e-01
C     9.781039986100000e+00   7.511197540306460e+00   3.512403300000000e+00 -1.04913010e+00  -1.01195623e+00  -9.53494860e-01
C     1.097026528420000e+01   8.256873547070949e+00   3.475355400000000e+00  1.28036195e+00  -3.58933100e-01   1.02278664e+00
C     1.217892720590000e+01   7.507175324809961e+00   3.667837200000000e+00  5.44335450e-01  -7.99888260e-01   9.13126840e-01
C     1.343649398810000e+01   8.207649481867836e+00   3.708566100000000e+00 -1.37290305e+00   2.93872396e+00  -6.34226120e-01
