2
Lattice="2.446 0 0 1.223 2.11829813765674 0 0 0 30 " PBC="1 1 1" Properties=species:S:1:pos:R:3:force:R:3 Energy="-16.12193073"
C     0.000000000000000e+00   0.000000000000000e+00   3.000000000000000e+00  0.00000000e+00   0.00000000e+00   0.00000000e+00
C     1.223000000000000e+00   7.060993792189123e-01   3.000000000000000e+00 -0.00000000e+00   0.00000000e+00  -0.00000000e+00
