32
Lattice="9.86 0 0 4.93 8.53901048131456 0 0 0 30 " PBC="1 1 1" Properties=species:S:1:pos:R:3:force:R:3 Energy="-257.4029521"
C     4.998920364699999e+00   6.771806672205775e+00  -1.171490999999989e-01  8.19748790e-01  -2.61549900e-02  -2.02884200e-01
C     6.237876939200000e+00   7.474227296702566e+00  -2.457510000000021e-01  5.22938400e-02   6.09934220e-01   7.53321480e-01
C     7.475929992599999e+00   6.755135876655566e+00  -1.800002999999997e-01  7.69164100e-02   4.94296340e-01  -4.63140820e-01
C     8.721916254100000e+00   7.469863264616553e+00  -1.782672000000005e-01 -1.11311862e+00   1.86121690e-01  -1.59946890e-01
C     9.928306530399999e+00   6.728278126992822e+00  -1.472465999999990e-01  1.40879302e+00   2.01705044e+00   3.39789850e-01
C     1.118989052310000e+01   7.474152580360866e+00  -7.056539999999956e-02 -9.92984040e-01   1.16793470e-01  -2.48395620e-01
C     1.242569870100000e+01   6.803303068531569e+00  -1.260360000000205e-02 -1.46355344e+00  -2.33747058e+00  -2.43689520e-01
C     1.362609942170000e+01   7.492907492198929e+00  -7.910790000000034e-02  1.07211425e+00  -1.46995580e-01   3.00496200e-02
C     1.304872005600000e+00   3.842471033697296e-01  -2.773649999999996e-01  8.94846390e-01  -7.84208370e-01   1.32248700e-01
C     2.561830228600000e+00   1.107882643233767e+00  -2.772452999999970e-01 -8.25466340e-01  -1.30343272e+00   4.09021500e-02
C     3.771044606100000e+00   3.712465453040344e-01  -2.160707999999971e-01  8.08471540e-01  -7.73742060e-01   2.32656010e-01
C     5.019618180899999e+00   1.054705357738833e+00  -1.500416999999992e-01 -3.80942150e-01   4.78171950e-01  -5.07735590e-01
C     6.250300982900000e+00   3.595351216505048e-01  -1.384514999999986e-01  6.45760820e-01  -2.84011000e-02   5.01820460e-01
C     7.503214781800000e+00   1.097947162979867e+00  -1.457522999999981e-01 -2.14219057e+00  -5.28185720e-01  -1.76842870e-01
C     8.691974737199999e+00   3.598552491534000e-01  -1.481546999999992e-01  1.47815130e+00   1.21029755e+00  -1.72959720e-01
C     9.945427631599999e+00   1.084058803994566e+00  -2.397372000000004e-01 -3.86798350e-01  -4.38052970e-01  -1.03375420e-01
C     2.560239859899999e+00   2.508669826221759e+00  -2.644736999999999e-01 -1.54944410e-01   4.98396420e-01   5.95497500e-02
C     3.812467008400000e+00   3.216373194942107e+00  -2.212130999999999e-01 -1.46039531e+00  -3.17120270e-01   2.37714150e-01
C     5.014612061699999e+00   2.474377672474708e+00  -1.825796999999980e-01  1.83823360e-01   8.87163380e-01  -1.05232600e-02
C     6.224381606500000e+00   3.228039788790617e+00  -1.845096000000019e-01  3.95872550e-01  -1.25274512e+00  -2.38211160e-01
C     7.443992565199999e+00   2.523263934423232e+00  -2.176067999999987e-01  1.73296257e+00  -6.33881990e-01  -5.83741500e-02
C     8.696713748999999e+00   3.209820699860174e+00  -3.022695000000013e-01  5.08053520e-01   3.63177300e-02   4.03156520e-01
C     9.972784595999999e+00   2.503528402621646e+00  -2.828942999999988e-01 -3.12869834e+00  -6.28469370e-01  -5.33020500e-02
C     1.115085172650000e+01   3.194652940934655e+00  -2.567190000000004e-01  2.96890463e+00   1.21143088e+00   1.35155210e-01
C     3.782252813200000e+00   4.635130981655574e+00  -1.383131999999989e-01  6.76044500e-01   2.36012480e-01   5.25585910e-01
C     5.039334384800000e+00   5.344756567025075e+00  -9.016169999999946e-02 -1.13288809e+00   1.52460620e-01  -6.45269300e-01
C     6.268941017100000e+00   4.624633207561567e+00  -1.994870999999989e-01 -1.24011792e+00   8.61068080e-01   5.29595990e-01
C     7.486160679299999e+00   5.331617847769814e+00  -1.980515999999994e-01  8.05816500e-02   4.93180020e-01  -3.46287370e-01
C     8.707808664700000e+00   4.629400195552132e+00  -2.818062000000019e-01  5.69651620e-01  -2.28495690e-01   4.83741970e-01
C     9.946234771199999e+00   5.340361025990391e+00  -1.861248000000018e-01  1.94746500e-01  -1.23156529e+00  -1.54080750e-01
C     1.120120438010000e+01   4.619899521711875e+00  -1.537772999999980e-01 -1.96360487e+00   2.17801500e-01  -1.40603340e-01
C     1.239059394580000e+01   5.334766778664523e+00  -4.397520000000199e-02  1.81796519e+00   9.52425070e-01  -4.79665750e-01
