32
Lattice="9.86 0 0 4.93 8.53901048131456 0 0 0 30 " PBC="1 1 1" Properties=species:S:1:pos:R:3:force:R:3 Energy="-254.11793715"
C     9.736478159799999e+00   7.140964404766192e-01   3.005352300000000e+00  6.68234300e-02  -1.76547044e+00   1.05157166e+00
C     1.146779427800000e+00   1.343154241824595e+00   3.134588400000000e+00  1.02004777e+00  -1.04493385e+00   1.30338360e-01
C     2.425472689700000e+00   5.738412293702088e-01   3.070225500000000e+00 -1.93710799e+00   1.90254240e+00   3.82482990e-01
C     3.594002192900000e+00   1.354710682437913e+00   3.315157800000000e+00 -5.78526500e-01  -1.37068107e+00  -5.23766000e-02
C     4.820374695899999e+00   6.886338797362024e-01   3.243285900000000e+00  1.45387859e+00  -4.16801080e+00  -1.79063900e-01
C     6.087276827499999e+00   1.301507523741225e+00   3.152187900000000e+00 -1.23622870e+00   7.68539060e-01   1.32086264e+00
C     7.295537792299999e+00   5.300036573679848e-01   3.133517700000000e+00 -1.09294290e-01   1.66902453e+00   5.38938500e-01
C     8.461839280600000e+00   1.368548405091067e+00   3.119181900000000e+00  2.13098604e+00  -1.57083231e+00  -1.34771520e-01
C     1.103304429860000e+01   2.704623636447533e+00   3.464959200000000e+00 -2.12598423e+00   3.18840172e+00  -6.28701010e-01
C     2.357206881100000e+00   3.507959994599060e+00   3.519904500000000e+00  6.36632630e-01  -2.45094156e+00   4.04117200e-01
C     3.560652024700000e+00   2.719700540301544e+00   3.576182100000000e+00  1.74916301e+00   2.70055295e+00  -1.51522540e+00
C     4.843565908900000e+00   3.424318508365154e+00   3.426908100000000e+00 -9.12737820e-01   1.84621599e+00   7.11734890e-01
C     6.052514707300000e+00   2.757744735253508e+00   3.285823800000000e+00  2.34966985e+00  -1.62500458e+00  -1.95498149e+00
C     7.338564416600000e+00   3.441681988445501e+00   3.039755100000000e+00 -5.40523475e+00   3.71588207e+00   1.12026817e+00
C     8.502706170500000e+00   2.787761918793852e+00   3.205273500000000e+00  3.10735459e+00  -6.30384330e-01   1.92928010e-01
C     9.775790423500000e+00   3.495489452913858e+00   3.458372400000000e+00 -4.91738710e-01  -9.48483220e-01  -5.90617400e-01
C     1.221933501420000e+01   4.896790342772327e+00   3.455615700000000e+00  1.02964340e-01   4.82305930e-01   1.38397698e+00
C     3.669044828800000e+00   5.581555794590776e+00   3.454840200000000e+00 -3.29135873e+00   7.20389620e-01  -3.68968500e-02
C     4.857475460200000e+00   4.928485783432411e+00   3.405230100000000e+00 -2.41530560e-01  -3.87455084e+00  -1.09652367e+00
C     5.956558962099999e+00   5.656267098274593e+00   2.993117100000000e+00  4.11016935e+00  -1.34759163e+00   1.03958517e+00
C     7.227481558000000e+00   4.919545951800480e+00   2.961150000000000e+00  1.01916365e+00  -2.56817426e+00   6.46633350e-01
C     8.496492546399999e+00   5.526654909830454e+00   3.129758700000000e+00 -8.85247360e-01   2.61978861e+00   6.41330710e-01
C     9.731815119299998e+00   4.986276696289688e+00   3.515044500000000e+00 -1.46812930e+00  -6.65833067e+00  -1.25146622e+00
C     1.093639366990000e+01   5.582227729325448e+00   3.508590000000000e+00  3.76038837e+00   1.86092573e+00  -4.76042550e-01
C     1.354863097930000e+01   6.975345258490409e+00   3.329682900000000e+00 -1.67493857e+00   2.73645374e+00  -5.39756770e-01
C     4.864962897699999e+00   7.804992271903227e+00   3.061706100000000e+00 -1.24744360e+00  -1.04137883e+00   5.99683940e-01
C     6.064820135200000e+00   7.053708867736731e+00   3.001708800000000e+00  4.44233700e-02   1.28711919e+00  -1.10138418e+00
C     7.354027164400000e+00   7.714180493179160e+00   2.904119700000000e+00 -1.26639797e+00  -5.71883810e-01   1.18652238e+00
C     8.506768244000000e+00   6.929164325842158e+00   3.138003300000000e+00  2.26932982e+00   2.99146240e+00  -8.49519550e-01
C     9.786400227199998e+00   7.700308187533561e+00   3.246846900000000e+00 -2.07628025e+00   1.21003998e+00  -9.50235900e-02
C     1.099783487950000e+01   6.982965983783389e+00   3.359595900000000e+00 -4.80878000e-02   9.33349590e-01   3.68022750e-01
C     1.224873413250000e+01   7.651592193454008e+00   3.350031300000000e+00  1.17527231e+00   1.00365869e+00  -1.21664702e+00
