32
Lattice="9.848 0 0 4.924 8.52861817646915 0 0 0 30 " PBC="1 1 1" Properties=species:S:1:pos:R:3:force:R:3 Energy="-258.08330243"
C    -1.015945179174845e-03  -6.635653809036457e-04   2.999781032355913e+00  3.35162300e-02   6.68160800e-02  -4.80809000e-03
C     1.230534147003855e+00   7.108805647754841e-01   3.000110946838716e+00 -1.41252000e-03  -4.21678300e-02  -8.72474000e-03
C     2.462756078828249e+00   1.029497874132217e-03   3.000054387433501e+00 -7.10365100e-02  -7.02027500e-02   2.39896000e-03
C     3.692814580037538e+00   7.096639627085305e-01   3.000981178029141e+00  1.64353800e-02   6.90534700e-02  -1.95362300e-02
C     4.923804305039748e+00   2.023020179043299e-04   2.999296246005325e+00  1.42375400e-02  -3.00145700e-02   1.74361900e-02
C     6.154870709743626e+00   7.106390620588260e-01   2.999016768680379e+00  3.80707200e-02   1.20992300e-02   8.11623000e-03
C     7.387051982797004e+00  -8.346503892286858e-04   3.000922250872913e+00 -9.91287200e-02   7.41256300e-02  -1.95217700e-02
C     8.615897418059985e+00   7.119301736737965e-01   2.999027872691608e+00  7.43582400e-02  -8.37342700e-02   1.37808900e-02
C     1.230758699017685e+00   2.131100405714322e+00   2.998816253258870e+00  8.04377000e-03   5.58408600e-02   6.63436000e-03
C     2.462544875429614e+00   2.841743814449792e+00   2.998814917620320e+00 -6.14106300e-02   6.65576500e-02   1.30562100e-02
C     3.691973192713291e+00   2.131615131128888e+00   2.999825546884559e+00  5.34562400e-02  -1.78052000e-02   5.03425000e-03
C     4.922817576106482e+00   2.842778351851676e+00   3.000417522150766e+00  5.34411500e-02  -3.95571000e-03  -1.65945300e-02
C     6.155426033998583e+00   2.132885674172531e+00   2.998975119238870e+00 -1.87105700e-02  -2.99175400e-02   1.41367000e-02
C     7.386972179644568e+00   2.843578598753084e+00   3.000403827360547e+00 -4.45767700e-02  -2.03483900e-02  -2.15184700e-02
C     8.617868295569780e+00   2.132263827219676e+00   2.999255174605963e+00 -4.57022600e-02   4.03673600e-02   5.33415000e-03
C     9.848095302374807e+00   2.842890673446634e+00   2.999451853046247e+00  3.72402000e-02   2.02336300e-02  -4.50436000e-03
C     2.462414808171261e+00   4.264878689989833e+00   3.000474461869891e+00 -1.05987100e-02  -7.71818300e-02  -1.30920900e-02
C     3.693244388597580e+00   4.974279407058141e+00   3.000392052235207e+00 -6.20984000e-03   6.69312300e-02  -1.05236100e-02
C     4.923528794282475e+00   4.263987479503041e+00   2.999470138598940e+00  5.31304900e-02   1.23777600e-02   1.46304200e-02
C     6.156051562427836e+00   4.975705603986236e+00   3.000347918625810e+00 -9.41017900e-02  -4.83780200e-02  -8.20077000e-03
C     7.385473286722312e+00   4.264714666739323e+00   2.999100307190178e+00  6.56944700e-02  -3.50533000e-03   2.46684700e-02
C     8.616986859923395e+00   4.975388565491314e+00   3.001078467045457e+00  1.43897000e-02  -3.71295400e-02  -1.53896200e-02
C     9.849224913250339e+00   4.265069365529168e+00   2.999890395490904e+00 -6.41700000e-02  -3.08723300e-02   4.01360000e-03
C     1.107947025005845e+01   4.975538277146931e+00   2.999699966105255e+00  2.19277800e-02  -1.45149800e-02   1.08578000e-03
C     3.693200543790993e+00   6.396779030369944e+00   2.999041188834991e+00 -7.38389000e-03  -3.01869300e-02   1.70850300e-02
C     4.924398842077500e+00   7.107375552191741e+00   2.999533790456422e+00 -5.15198400e-02  -2.29603000e-02   7.20701000e-03
C     6.154732162785920e+00   6.396249787781866e+00   3.001054566813440e+00  3.34469900e-02   3.86915400e-02  -1.95433200e-02
C     7.385528804829972e+00   7.107622661422849e+00   2.999407787216597e+00  7.41351000e-03  -6.96106000e-03   2.02299000e-02
C     8.616072461046365e+00   6.395717103392956e+00   3.000870294277852e+00  3.43374300e-02   6.50782700e-02  -1.19319000e-03
C     9.847522644752312e+00   7.107305976765041e+00   3.001131141590951e+00  2.76168600e-02  -2.96718400e-02  -1.96361900e-02
C     1.107994997828192e+01   6.396344884171239e+00   2.999185949422511e+00 -8.72173000e-02   3.33973300e-02   2.17860700e-02
C     1.230949842196596e+01   7.107279189691640e+00   3.000642949307451e+00  7.64226500e-02  -2.20615900e-02  -1.38472600e-02
