32
Lattice="9.86 0 0 4.93 8.53901048131456 0 0 0 30 " PBC="1 1 1" Properties=species:S:1:pos:R:3:force:R:3 Energy="-253.21308145"
C     4.949770631100000e+00   8.169200708599330e+00  -1.040896799999999e+00  2.36791504e+00   4.23169298e+00  -2.05747350e-01
C     1.303910211900000e+00   4.161374896390712e-01  -1.119245700000000e+00 -9.46175970e-01   1.32531228e+00   1.40633755e+00
C     7.519974316800000e+00   8.321921167204446e+00  -1.155732299999997e+00 -3.50354839e+00  -2.04063642e+00   7.02120700e-01
C     3.776854413900000e+00   4.958395887781336e-01  -1.015086000000000e+00 -1.04504670e-01  -2.24553892e+00  -1.50907066e+00
C     9.911237539300000e+00   8.343510091230714e+00  -1.124826899999999e+00  3.38581677e+00  -4.01106865e+00   2.25005997e+00
C     6.301154475199999e+00   4.416478688381760e-01  -1.022441100000002e+00 -3.16179911e+00  -9.88317480e-01  -8.56920810e-01
C     1.245300937270000e+01   8.261778269300557e+00  -1.048083899999998e+00 -2.09414780e+00   3.23790573e+00   3.38890800e-02
C     8.722135491200000e+00   4.696498459052400e-01  -1.067889000000001e+00  5.60569240e-01  -1.14094092e+00  -5.95438540e-01
C     1.246763673200000e+00   1.873476831234008e+00  -8.436489000000016e-01  1.46334130e+00   1.20903920e-01  -1.69108439e+00
C     2.560336438600000e+00   2.644603444124241e+00  -8.410152000000011e-01 -2.56756755e+00  -2.69203521e+00   6.00823810e-01
C     3.714056566900000e+00   1.840396960804803e+00  -9.935349000000002e-01  3.02262298e+00   4.69206065e+00   1.47594497e+00
C     5.069855127399999e+00   2.525031680372801e+00  -9.016044000000001e-01 -3.56249883e+00  -3.01443380e-01  -9.91563820e-01
C     6.234813930200000e+00   1.818358030926237e+00  -1.014997200000000e+00  3.15246633e+00   1.05117985e+00  -6.21233080e-01
C     7.495191256100000e+00   2.553488018187506e+00  -1.148996700000001e+00 -3.05720180e+00   1.60285848e+00   3.36899350e-01
C     8.704447390700000e+00   1.932251438098582e+00  -1.192887000000002e+00  1.98494300e-02  -3.29267882e+00   1.39139792e+00
C     9.854681023000001e+00   2.641774811512636e+00  -9.174402000000015e-01  3.83008020e+00  -3.47390837e+00  -9.09349060e-01
C     2.580885911100000e+00   4.048095444071880e+00  -5.946002999999997e-01 -3.32610600e-01  -1.28551780e+00  -6.63728410e-01
C     3.825940057500000e+00   4.697330585623676e+00  -5.823644999999971e-01 -4.13825000e-03   1.10648102e+00  -3.02287015e+00
C     5.093272430199999e+00   3.909711130161637e+00  -9.472281000000002e-01 -3.37708270e+00   3.45607853e+00   2.32206146e+00
C     6.242616838400000e+00   4.715039895628463e+00  -1.001865600000002e+00 -2.81277200e-02  -1.15403068e+00  -2.67393760e-01
C     7.445754596500000e+00   3.985432428005028e+00  -1.078100700000000e+00  1.75062059e+00   7.82212570e-01   4.63380920e-01
C     8.658865547400000e+00   4.738439004486387e+00  -9.041822999999987e-01  1.58060957e+00  -1.89043962e+00  -1.17973617e+00
C     9.968202210299999e+00   3.978730158679276e+00  -9.648753000000028e-01 -1.81796700e+00   5.00813045e+00   2.31467689e+00
C     1.118162463860000e+01   4.721390699282858e+00  -6.671709000000021e-01  5.88413700e-02  -7.70866610e-01  -3.71213480e-01
C     3.711179024500000e+00   6.187869856135167e+00  -8.761484999999993e-01 -1.29140238e+00  -4.04478343e+00   1.76929013e+00
C     4.929478356700000e+00   6.775908129719530e+00  -8.962454999999991e-01  1.12163930e+00   2.51317117e+00  -1.40284035e+00
C     6.158991121800000e+00   6.120702255869801e+00  -9.944820000000014e-01  2.82226290e+00   5.70812690e-01  -4.70144600e-02
C     7.420910551700000e+00   6.889644846049566e+00  -1.094937900000001e+00  9.71064980e-01  -1.13474817e+00   1.03311498e+00
C     8.679476497000000e+00   6.145324321808672e+00  -8.722218000000019e-01 -1.24670581e+00   1.21258930e-01  -1.12109320e+00
C     9.943906775899999e+00   6.771435737590523e+00  -8.866143000000015e-01 -2.00013860e+00   4.71344416e+00  -5.39828600e-01
C     1.115936371660000e+01   6.133620070923945e+00  -6.914331000000011e-01 -6.60684700e-01   6.25063630e-01  -1.38550036e+00
C     1.230886593410000e+01   6.927929157976227e+00  -9.326115000000001e-01  3.64860188e+00  -4.69161255e+00   1.28162891e+00
