32
Lattice="9.928 0 0 4.964 8.59790020877191 0 0 0 30 " PBC="1 1 1" Properties=species:S:1:pos:R:3:force:R:3 Energy="-257.98953813"
C     1.040228616925569e-03   3.529294790110093e-04   3.000629713754188e+00 -1.07015300e-01  -5.27879300e-02  -8.48407000e-03
C     1.240104778758031e+00   7.154674111824358e-01   3.000714821108047e+00  4.99329900e-02   8.18265200e-02  -1.76025900e-02
C     2.481568506625720e+00   1.019303329033517e-04   2.999355263706504e+00  3.41222500e-02   2.06776000e-03   1.80151700e-02
C     3.723112739701280e+00   7.162448603424592e-01   3.000534106264229e+00  1.48720000e-04   1.32385400e-02  -2.24714700e-02
C     4.964835639613764e+00   2.196101958008671e-04   2.999494055627931e+00 -7.10392800e-02  -4.93971800e-02   5.48863000e-03
C     6.204456485908204e+00   7.170019764255654e-01   2.999807884339731e+00  2.86334200e-02  -3.85796800e-02  -3.72301000e-03
C     7.444901258275384e+00   6.131217752470758e-04   2.999881640898413e+00  3.40136800e-02  -7.81229800e-02  -2.78923000e-03
C     8.686195272899795e+00   7.153732377766242e-01   2.999484923790641e+00  4.39987300e-02   6.09835800e-02   1.66070200e-02
C     1.239924795443369e+00   2.150098422591207e+00   2.998917280922768e+00  7.68784000e-02  -7.87695000e-02   1.06731900e-02
C     2.481830996448780e+00   2.865629612187468e+00   2.999136193326769e+00 -1.71694300e-02   5.84681000e-03   4.11876000e-03
C     3.723115935063175e+00   2.149334305512306e+00   2.998848504171427e+00  4.86438000e-03  -2.42238000e-03   1.09696000e-02
C     4.964801420900632e+00   2.865404048696831e+00   2.999178421314235e+00 -2.45355700e-02  -1.72713000e-03   5.30282000e-03
C     6.205358325731193e+00   2.148500969150565e+00   2.999635754333527e+00 -1.55667000e-02   5.88244400e-02   6.97907000e-03
C     7.445716316479444e+00   2.865831606025962e+00   3.001184044705679e+00  5.04353000e-02  -2.17359600e-02  -1.75215400e-02
C     8.687569355930473e+00   2.149009019607755e+00   3.000979782503928e+00 -4.37813900e-02  -9.62228000e-03  -1.08486800e-02
C     9.928703085063226e+00   2.865376021104495e+00   2.999527137268037e+00 -4.73876600e-02   3.98330100e-02   5.84525000e-03
C     2.481080296463095e+00   4.298756933692125e+00   3.001091496816789e+00  6.73794500e-02   1.12535000e-03  -1.83239700e-02
C     3.722670000411185e+00   5.015279899932478e+00   3.001035226201920e+00  3.06045400e-02  -3.99089200e-02   1.26415000e-03
C     4.965110183511924e+00   4.298341450843110e+00   3.000520484280587e+00 -8.93089700e-02   2.24220000e-04  -5.95748000e-03
C     6.203883041436813e+00   5.014535222886081e+00   3.000016147750791e+00  8.42631200e-02   7.45146200e-02  -4.68148000e-03
C     7.446221076944880e+00   4.298520466732643e+00   2.999118429460476e+00 -3.67749800e-02   1.90632000e-02   2.21532900e-02
C     8.686398458733105e+00   5.016328969145283e+00   3.000456622852565e+00  5.00418100e-02  -1.06173180e-01  -7.02770000e-03
C     9.929237606122090e+00   4.298501993347993e+00   2.999884359218481e+00 -6.04642100e-02   4.97710600e-02  -2.49747000e-03
C     1.116991243824524e+01   5.015785600503119e+00   2.999582756693522e+00 -6.24977100e-02  -6.31365000e-03   1.89041600e-02
C     3.723104188484481e+00   6.447462944272473e+00   3.000785611187079e+00 -3.85513500e-02   3.11136300e-02  -4.34433000e-03
C     4.963307352346236e+00   7.164954006776703e+00   3.000064749839989e+00  3.99012100e-02   4.63391000e-03   4.97461000e-03
C     6.204446734124790e+00   6.449428928586712e+00   2.999802499822851e+00  2.54697700e-02  -5.74895400e-02   3.26576000e-03
C     7.447114453996537e+00   7.165627862116128e+00   2.999954199395844e+00 -1.00968660e-01  -3.50561600e-02  -3.63900000e-05
C     8.685788589295994e+00   6.447332383556651e+00   3.000808431451389e+00  7.09340900e-02   6.87595900e-02  -1.29905800e-02
C     9.927763309002415e+00   7.163807766668027e+00   2.999403424117650e+00 -2.17053900e-02   6.71257500e-02   1.64776200e-02
C     1.116845681594074e+01   6.449525434726848e+00   3.000976988070594e+00  1.87191000e-02  -7.76486500e-02  -1.91318400e-02
C     1.240926108196688e+01   7.163924936170535e+00   3.000181292888660e+00  2.64256700e-02   7.68031400e-02   7.39273000e-03
