32
Lattice="9.86 0 0 4.93 8.53901048131456 0 0 0 30 " PBC="1 1 1" Properties=species:S:1:pos:R:3:force:R:3 Energy="-252.78267503"
C     1.132708665500000e+00   9.634860120445560e-01   3.704332200000000e+00 -2.06318730e-01  -2.96085343e+00   1.11253040e-01
C     2.362470149100000e+00   1.496954031354382e+00   3.334620300000000e+00  4.63219360e-01   4.89378435e+00   4.99114980e-01
C     3.609728350599999e+00   8.607320856037903e-01   3.605930100000000e+00  2.34946190e-01   2.96578421e+00  -1.30569050e+00
C     4.876270444299999e+00   1.644970263695959e+00   3.608175600000000e+00 -4.28121054e+00   7.61369790e-01   6.21839300e-01
C     6.003750549000000e+00   9.420099737368319e-01   3.889470900000000e+00  3.74310599e+00  -9.43165250e-01  -2.18633322e+00
C     7.269851752799999e+00   1.661133329683027e+00   3.830621100000000e+00  8.77115270e-01   2.21470850e-01  -8.97101900e-02
C     8.557334465199999e+00   9.178163953438480e-01   3.785313900000000e+00 -4.25663473e+00  -1.71199235e+00   5.48399200e-01
C     9.723339216799998e+00   1.603427038419606e+00   3.757397400000000e+00  3.42619425e+00   2.92809818e+00  -1.96417427e+00
C     2.362511709000000e+00   3.014755373674845e+00   3.025320600000000e+00  6.09963220e-01  -2.12523592e+00   1.50097924e+00
C     3.568032530500000e+00   3.749360724132223e+00   3.203147400000000e+00  4.36899900e-01  -1.41396590e-01  -5.34848760e-01
C     4.805172597199999e+00   3.077610175917076e+00   3.518760900000000e+00  9.29798740e-01  -6.94313930e-01  -1.22126047e+00
C     6.057959497899999e+00   3.818244750894173e+00   3.511862400000000e+00 -7.18957190e-01  -6.62894528e+00   1.23441532e+00
C     7.286479607500000e+00   3.135698075558849e+00   3.736226100000000e+00  1.05704149e+00  -4.02086848e+00  -3.12645570e-01
C     8.610471434899999e+00   3.718483833016753e+00   3.696367800000000e+00 -2.04059250e+00   9.41524010e-01   1.90915800e-01
C     9.819448630100000e+00   3.056477405830649e+00   3.488698500000000e+00 -1.14940113e+00  -1.69698911e+00   4.15944890e-01
C     1.101269034990000e+01   3.763551705648935e+00   3.090928200000000e+00 -3.64793000e-03  -2.17523887e+00   1.14717723e+00
C     3.565700098200000e+00   5.181869135591949e+00   3.156477000000000e+00  2.64814834e+00   1.22955630e+00   1.87225858e+00
C     4.880735298799999e+00   5.853321928511658e+00   3.634203300000000e+00 -5.39847801e+00   2.01884138e+00  -1.63434705e+00
C     6.018913059799999e+00   5.108162617271314e+00   3.653182500000000e+00  1.89501785e+00   5.85357215e+00   6.90426620e-01
C     7.226030461799999e+00   5.807245086401158e+00   3.829328700000000e+00  3.52571327e+00   2.54725976e+00   8.32817970e-01
C     8.564481584799999e+00   5.106628840208896e+00   3.847680600000000e+00 -1.76559990e+00   2.42246683e+00  -1.83382397e+00
C     9.724986477700000e+00   5.846750049875935e+00   3.572198700000000e+00  3.31742033e+00   1.03260499e+00  -1.15672592e+00
C     1.105398333970000e+01   5.143509082642330e+00   3.175660500000000e+00 -3.68989565e+00   3.02633650e+00   8.26340640e-01
C     1.222204498590000e+01   5.952853573957690e+00   3.103059900000000e+00  3.41832640e-01  -1.44969910e+00   8.17797840e-01
C     4.790605778299999e+00   7.315656249676975e+00   3.833717399999999e+00  3.14936423e+00  -2.17784443e+00  -3.21997130e-01
C     6.071492397200000e+00   8.090408441026911e+00   3.955099800000000e+00 -1.02789000e+00  -2.10591333e+00  -7.66097100e-01
C     7.286643677900000e+00   7.309953386137803e+00   3.915618600000000e+00 -2.18491850e-01  -8.50124810e-01  -9.65536210e-01
C     8.544469186499999e+00   8.044115818121583e+00   3.696336900000000e+00 -4.95335040e-01  -3.56948785e+00   8.70691840e-01
C     9.778462729999999e+00   7.320916707083179e+00   3.531779700000000e+00 -1.29161433e+00  -1.41160931e+00   1.13559148e+00
C     1.097003894790000e+01   8.061991382660414e+00   3.575490900000000e+00  1.26624769e+00  -4.41629410e-01   4.17169530e-01
C     1.223576172490000e+01   7.347397288653021e+00   3.428190300000000e+00 -3.06553123e+00  -1.12737152e+00  -4.12678970e-01
C     1.342902548180000e+01   7.926444411152468e+00   3.673239000000000e+00  1.68756999e+00   5.39000966e+00   9.72735860e-01
