32
Lattice="9.86 0 0 4.93 8.53901048131456 0 0 0 30 " PBC="1 1 1" Properties=species:S:1:pos:R:3:force:R:3 Energy="-256.63749742"
C     4.962759356999999e+00   7.203855753973278e+00  -1.764659999999978e-01  1.83723914e+00   3.54885700e-02   4.88908300e-02
C     6.227360411099999e+00   7.897783990987291e+00  -1.186262999999990e-01 -6.80289860e-01   5.74972760e-01   2.16436190e-01
C     7.449836439299999e+00   7.176879568235177e+00  -2.460579000000003e-01  2.77682560e-01   1.48105128e+00   4.98466020e-01
C     8.691176816700001e+00   7.936264700154991e+00  -1.434885000000001e-01 -6.74017650e-01  -5.83843840e-01  -5.72812030e-01
C     9.905903821599999e+00   7.212150377973341e+00  -1.625067000000016e-01  8.20254780e-01  -1.13934706e+00   4.83955770e-01
C     1.115573153910000e+01   7.913935529310210e+00  -5.580540000000056e-02 -1.59392311e+00   8.62041570e-01  -8.44901020e-01
C     1.238216709680000e+01   7.249551243875740e+00  -6.926610000000011e-02  8.26541000e-02  -1.60115473e+00   1.25026000e-03
C     1.361660670670000e+01   7.923867764740128e+00  -1.360773000000002e-01 -4.34950470e-01  -4.12024210e-01   4.85575970e-01
C     1.292621695100000e+00   7.892456246178504e-01   1.322229000000000e-01 -2.01753500e-02  -1.06497864e+00  -1.27831280e+00
C     2.518020079400000e+00   1.515301547002443e+00   7.579619999999999e-02  1.12658010e-01   5.69948040e-01  -1.01192300e-02
C     3.734596721700000e+00   8.273635966203609e-01  -1.144512000000013e-01  1.46853175e+00   7.92730300e-02   1.27879300e-02
C     5.019192919100000e+00   1.575613858874255e+00  -2.604681000000006e-01 -2.31123622e+00  -3.88437342e+00   1.15169540e+00
C     6.203169147600000e+00   8.003073149639568e-01  -1.449957000000026e-01  1.07738959e+00   3.04638330e-01  -5.87061500e-01
C     7.461808155500000e+00   1.481994368114260e+00  -1.547105999999978e-01 -1.31893662e+00   1.63934424e+00   3.88908730e-01
C     8.664863730499999e+00   7.820033482693433e-01  -7.405800000000085e-02  1.20576133e+00   4.09468160e-01   1.23523830e-01
C     9.903835095000000e+00   1.468878191846666e+00   7.107329999999999e-02  2.57371120e-01   4.77303510e-01  -1.87338900e-01
C     2.531228141000000e+00   2.967074222275363e+00   1.260192000000000e-01 -7.13357100e-01  -1.84011895e+00  -3.04450340e-01
C     3.740677482300000e+00   3.638309697378356e+00   1.475400000000000e-03  1.73117279e+00   1.86747915e+00  -6.81718150e-01
C     4.979526780000000e+00   2.931019275204821e+00  -2.481711000000004e-01  1.02415860e-01   2.29667225e+00   6.11623480e-01
C     6.236153756299999e+00   3.638862000576202e+00  -2.999988000000009e-01 -1.70748479e+00  -2.43970130e-01   2.38053970e-01
C     7.434815074399999e+00   2.944075251448531e+00  -1.639626000000014e-01  1.67504849e+00  -1.11337795e+00  -3.55808290e-01
C     8.678708452300000e+00   3.658661745736597e+00  -8.447190000000049e-02  6.53672980e-01  -1.78699200e+00  -2.27201550e-01
C     9.918610107799999e+00   2.876374902319319e+00   1.952850000000000e-02 -6.89584490e-01   2.34456987e+00   4.89388540e-01
C     1.114396850980000e+01   3.636496609283137e+00   1.004193000000000e-01  2.78639000e-01  -4.59189800e-02   7.35156500e-02
C     3.797631455199999e+00   5.112454323938561e+00  -3.181500000000170e-03 -2.44488641e+00  -1.88229666e+00  -5.16727580e-01
C     4.995945898500000e+00   5.776435397298166e+00  -2.028266999999992e-01  1.03906800e-01   4.77081520e-01  -1.61429280e-01
C     6.194241114799999e+00   5.031605777252454e+00  -3.501212999999979e-01  1.96888593e+00   2.06809283e+00   4.91930960e-01
C     7.449630316000000e+00   5.781338240945467e+00  -3.487548000000018e-01  3.17274500e-01  -1.46235368e+00   6.96557370e-01
C     8.725023978199999e+00   5.068887609348764e+00  -1.741530000000004e-01 -2.89066001e+00  -7.02314950e-01  -7.84552030e-01
C     9.913980887099999e+00   5.736304438965099e+00  -1.500273000000014e-01  2.37740634e+00   2.71223935e+00   7.86687560e-01
C     1.118812139260000e+01   5.058018473688981e+00   4.428780000000000e-02 -1.69404774e+00   6.59148080e-01  -7.51948330e-01
C     1.239103730070000e+01   5.825033638423199e+00  -7.385700000000384e-03  8.25584750e-01  -1.09574735e+00   4.65132580e-01
