32
Lattice="9.784 0 0 4.892 8.47319255062695 0 0 0 30 " PBC="1 1 1" Properties=species:S:1:pos:R:3:force:R:3 Energy="-257.81021593"
C     6.137972209059055e-03  -1.544800434938599e-02   2.988297918393517e+00 -3.24223290e-01   1.10505858e+00  -6.95730000e-03
C     1.230394495731460e+00   7.010310925576198e-01   2.992035630882016e+00 -5.15004740e-01   3.94000950e-01   2.13700500e-02
C     2.449958931821585e+00   8.568044096648599e-03   2.988882284456807e+00 -6.35619500e-02  -4.34367930e-01   1.89383490e-01
C     3.661249269657036e+00   6.993211518457566e-01   3.002142948878914e+00  8.50597840e-01   7.95752270e-01  -9.73069000e-02
C     4.898213136719024e+00  -6.450890556610985e-03   2.990201441209941e+00 -2.93916220e-01   5.86350410e-01   1.67201700e-01
C     6.122929582892402e+00   7.055558143598291e-01   3.003139763688226e+00 -3.28257320e-01   1.26013410e-01  -1.08536850e-01
C     7.345964497212454e+00   7.996449712399342e-03   3.009316685067667e+00 -1.54010930e-01  -5.47447190e-01  -1.60778380e-01
C     8.559360474407725e+00   7.079611040562708e-01   2.988002177558124e+00  5.09414960e-01  -8.37630500e-02   1.75651690e-01
C     1.226489691965473e+00   2.122188897864853e+00   3.005389371505965e+00 -4.73345700e-01  -3.70067380e-01  -1.69354680e-01
C     2.451943766222504e+00   2.823802326448342e+00   2.998996873445311e+00 -7.93633740e-01   4.67320610e-01   1.23168490e-01
C     3.658875457898163e+00   2.130116038483283e+00   3.010563076165111e+00  6.06909120e-01  -1.21470087e+00  -7.09800700e-02
C     4.886580175312117e+00   2.811017302574327e+00   3.010452122409815e+00  2.76499970e-01   1.14892409e+00  -1.71175110e-01
C     6.111708643428119e+00   2.121466466347161e+00   2.989271863165615e+00  3.27542910e-01  -3.85769210e-01   2.88959940e-01
C     7.346621454412928e+00   2.821539295439517e+00   3.011954587497427e+00 -1.27571125e+00   9.49872410e-01  -1.86724260e-01
C     8.545743677680944e+00   2.124641570989469e+00   3.002194843590267e+00  9.36520840e-01  -6.45993210e-01  -5.66020200e-02
C     9.770892443256722e+00   2.820007238605246e+00   2.996142211518069e+00  6.06791020e-01   4.36124480e-01   3.83028800e-02
C     2.438464952221500e+00   4.238894574335360e+00   3.002151801079184e+00  5.60825450e-01  -3.18485050e-01   8.56962500e-02
C     3.670615768760758e+00   4.937864193017338e+00   3.005149293749493e+00 -1.61947240e-01   3.02073890e-01  -7.71089500e-02
C     4.902859446622400e+00   4.243806349966307e+00   2.998383891061275e+00 -8.80983440e-01  -9.19878910e-01   1.84417200e-02
C     6.110401059365598e+00   4.944277498088591e+00   2.986328403641535e+00  1.67368000e-01   6.99067210e-01   2.46744720e-01
C     7.327947707646304e+00   4.252221443015316e+00   3.005249632209491e+00  4.97479080e-01  -9.64133440e-01  -2.45330100e-02
C     8.551696578738021e+00   4.947461353899386e+00   3.006759609240115e+00  1.67829710e-01   4.21656700e-02  -8.44696300e-02
C     9.778100432799411e+00   4.240733634708517e+00   2.991224007907734e+00 -2.44818690e-01  -5.25937290e-01   2.15806850e-01
C     1.100296734073515e+01   4.931244870073206e+00   3.012187638795503e+00 -6.39510100e-02   8.61535050e-01  -2.57080850e-01
C     3.660656008376803e+00   6.355844324979032e+00   2.997301437861382e+00  6.14179080e-01  -4.84358730e-01   1.97321800e-02
C     4.887703699657958e+00   7.058342590128206e+00   2.992829003643830e+00 -1.00796150e-01  -7.57055300e-02   6.15384300e-02
C     6.104567519670277e+00   6.365552848471925e+00   3.008119573800092e+00  8.75683330e-01  -3.16073150e-01  -1.59710570e-01
C     7.347854147552471e+00   7.073373852014650e+00   3.012301937982706e+00 -9.21787400e-01  -5.37522870e-01  -1.58847150e-01
C     8.554633406973263e+00   6.355634725781686e+00   3.003957491100946e+00  5.05159220e-01   3.11940270e-01   5.90417500e-02
C     9.789355018809376e+00   7.064399699612473e+00   2.998163346255953e+00 -2.76510950e-01  -4.57579660e-01  -7.71788200e-02
C     1.100704485465158e+01   6.356159916172343e+00   2.993779736292356e+00  3.11000530e-01  -2.77803230e-01   1.73508030e-01
C     1.224207748649590e+01   7.058745229351232e+00   3.001304611717393e+00 -9.41341060e-01   3.33387400e-01  -1.72035900e-02
