32
Lattice="9.972 0 0 4.986 8.63600532653842 0 0 0 30 " PBC="1 1 1" Properties=species:S:1:pos:R:3:force:R:3 Energy="-257.82055366"
C     3.678447660370874e-04   1.782417271520882e-05   3.000070655060719e+00 -1.70910600e-02   4.10978700e-02  -1.10287200e-02
C     1.247487939013597e+00   7.201656885832025e-01   3.000534242674965e+00 -4.39946100e-02  -3.74683400e-02  -1.48382400e-02
C     2.493541824586554e+00  -6.910110807781273e-04   2.999190160226647e+00  9.55026000e-03   5.32070400e-02   3.88145000e-03
C     3.739392405830427e+00   7.207359554546940e-01   2.998778145516392e+00 -2.16475500e-02  -3.84174400e-02   1.74368800e-02
C     4.984977676031347e+00   8.730492677623318e-04   2.999964153299826e+00  6.84724500e-02  -3.79222400e-02  -1.75526700e-02
C     6.233439451130728e+00   7.191867940544593e-01   2.999720698106580e+00 -5.29532100e-02   2.03242000e-03   1.33417100e-02
C     7.479203044237151e+00  -9.630778589740731e-04   3.000667825300704e+00 -5.65970000e-03   7.17571100e-02  -1.87698200e-02
C     8.725032727137229e+00   7.200311146210309e-01   2.998835018400071e+00  5.97512600e-02  -2.76628700e-02   1.78144400e-02
C     1.245668324173291e+00   2.158827577094342e+00   2.999321421529728e+00  6.70140900e-02   4.34818900e-02   1.29831300e-02
C     2.494162504512957e+00   2.879677956125130e+00   3.000911597642275e+00 -1.08587750e-01  -3.53759800e-02  -4.50967000e-03
C     3.738333681816459e+00   2.159747979527251e+00   3.001012545690446e+00  8.86298900e-02  -1.04596100e-02  -1.65615400e-02
C     4.986508405793569e+00   2.877994615309052e+00   2.999779208948648e+00 -1.68628300e-02   3.88183200e-02   8.68177000e-03
C     6.233693259396232e+00   2.158575143213060e+00   3.000238153975306e+00 -3.68667400e-02   4.57890000e-04  -1.05607600e-02
C     7.479089364927841e+00   2.878571454396677e+00   2.999316418557163e+00  2.11952800e-02   2.73904300e-02   1.59762000e-03
C     8.726548438544720e+00   2.159277612979285e+00   2.999302189160508e+00 -9.34684500e-02  -1.06430900e-02  -7.14320000e-03
C     9.970851436507191e+00   2.878787830896765e+00   2.998978335485785e+00  9.53384000e-02  -2.97409600e-02   8.86187000e-03
C     2.493792944222170e+00   4.318460302235080e+00   3.001086519179574e+00 -6.58104800e-02  -2.53335700e-02  -7.37316000e-03
C     3.738477648279899e+00   5.036456574337858e+00   2.999292268323355e+00  7.91093800e-02   1.18181510e-01   1.26619700e-02
C     4.985710082580495e+00   4.318594834718059e+00   2.999389350284644e+00 -6.32106000e-03  -8.67874100e-02  -3.86138000e-03
C     6.231890208488179e+00   5.037018926847227e+00   2.999019056875134e+00 -6.61827000e-03   8.57248900e-02   1.08713900e-02
C     7.478207913054198e+00   4.318982243575919e+00   2.998902425339926e+00  1.70062500e-02  -8.58135000e-02   1.00488800e-02
C     8.724667247052194e+00   5.036515545961665e+00   3.000500727639026e+00  6.06492200e-02   4.17741400e-02  -1.38502800e-02
C     9.973238147612227e+00   4.317032954050876e+00   3.000559820828573e+00 -9.57629500e-02   4.31938400e-02  -3.28489000e-03
C     1.121809467158777e+01   5.036864105147368e+00   3.001101576618338e+00  4.84058000e-02   6.71450400e-02   2.20250000e-04
C     3.740686504682765e+00   6.477664056187967e+00   2.999757044725738e+00 -9.55724900e-02  -4.73851700e-02  -9.07221000e-03
C     4.985795603342714e+00   7.197032534294839e+00   2.998842460145170e+00  2.27286400e-02  -9.21950000e-04   2.42246800e-02
C     6.231589260865997e+00   6.477339988340382e+00   3.001073363923476e+00  7.02781600e-02  -2.04523200e-02  -3.00480400e-02
C     7.480122903444722e+00   7.196829011362047e+00   2.999282093582705e+00 -6.88386200e-02  -3.86314100e-02   7.67431000e-03
C     8.725602018673051e+00   6.476189614665224e+00   2.999121215219952e+00  2.09547900e-02  -5.78908000e-03   4.74531000e-03
C     9.972564652119805e+00   7.195947557802037e+00   2.998808570558027e+00 -4.54537200e-02   6.05938800e-02   1.72510400e-02
C     1.121881403930826e+01   6.478128169672586e+00   3.000981243756150e+00 -1.22566200e-02  -8.11663900e-02  -1.36025300e-02
C     1.246467407430504e+01   7.197739820825033e+00   3.000037097620470e+00  6.46822400e-02  -7.48849700e-02   9.76042000e-03
