32
Lattice="9.86 0 0 4.93 8.53901048131456 0 0 0 30 " PBC="1 1 1" Properties=species:S:1:pos:R:3:force:R:3 Energy="-256.98179515"
C     9.812135172300000e+00   5.747599415077520e-02   3.679334700000000e+00  1.99714554e+00  -6.58257300e-02  -2.50445910e-01
C     1.216658677500000e+00   7.826336980229769e-01   3.657580200000000e+00 -1.05446502e+00  -5.61334600e-01  -3.13061930e-01
C     2.409045633900000e+00   1.840609325995440e-02   3.573384300000000e+00  2.24066337e+00   1.92818248e+00   4.95132830e-01
C     3.726150448499999e+00   7.127224283002824e-01   3.649554300000000e+00 -1.79070983e+00   8.79659500e-02  -4.83866850e-01
C     4.985770181299999e+00   4.275303228115920e-02   3.644115900000000e+00 -2.83294213e+00  -3.30494660e-01   3.54847520e-01
C     6.162361072600000e+00   7.875473008234832e-01   3.676272900000000e+00  1.03733135e+00  -1.74739072e+00  -8.42675340e-01
C     7.381551896700000e+00   1.838167168998160e-02   3.608827800000000e+00  3.38381680e-01   2.10341391e+00   3.62414250e-01
C     8.608813870299999e+00   7.689454934433272e-01   3.617086500000000e+00 -3.47494940e-01  -7.08076370e-01   3.23981210e-01
C     1.108750028980000e+01   2.219992779775971e+00   3.649013100000000e+00 -1.17749468e+00  -1.16363362e+00  -8.95667100e-02
C     2.441011113000000e+00   2.883680025784958e+00   3.639756000000000e+00  1.65314525e+00  -1.51273294e+00   4.18864800e-01
C     3.693547766900000e+00   2.122475999242799e+00   3.661556400000000e+00 -7.28409930e-01   1.21621845e+00  -3.05321740e-01
C     4.894392483399999e+00   2.867083092675402e+00   3.622092900000000e+00  6.68640860e-01   1.07396213e+00   6.73627620e-01
C     6.138247703099999e+00   2.186857064218226e+00   3.604986900000000e+00  2.86073840e-01   1.69297720e-01   1.40693380e-01
C     7.380787746699999e+00   2.871990205827943e+00   3.571437900000000e+00  4.15388760e-01   6.34640180e-01   9.27623270e-01
C     8.624273906599999e+00   2.183483215787474e+00   3.637929600000000e+00 -6.45079500e-02   6.96110290e-01  -7.07175190e-01
C     9.856304767799999e+00   2.951980667350915e+00   3.620313600000000e+00 -6.82040460e-01  -2.02983588e+00   5.21245470e-01
C     1.230509685050000e+01   4.262105248127927e+00   3.701678100000000e+00  9.69785700e-01   2.07466157e+00  -9.78964800e-02
C     3.690308904800000e+00   4.995771648992925e+00   3.667550100000000e+00 -7.19768600e-01   1.34050449e+00   2.34303110e-01
C     4.902661325900000e+00   4.326570678526896e+00   3.697584300000000e+00  1.67322621e+00  -1.38346035e+00  -1.06664446e+00
C     6.176620949700000e+00   5.039474731580089e+00   3.598233900000000e+00 -1.15727771e+00  -1.14583518e+00   8.05430820e-01
C     7.413676811999999e+00   4.291506342062139e+00   3.663180600000000e+00 -2.12482089e+00   2.99051510e-01  -1.23827568e+00
C     8.595873409099999e+00   5.013863677447425e+00   3.629357700000000e+00  7.94589740e-01   1.55502291e+00   3.87174890e-01
C     9.833468317600000e+00   4.352456091066284e+00   3.664493100000000e+00  1.34447652e+00  -5.56818550e-01   2.64931970e-01
C     1.110758358150000e+01   4.997440598591242e+00   3.763320900000001e+00 -1.32697433e+00   2.12992310e+00  -1.01185972e+00
C     1.357048049280000e+01   6.444186273004480e+00   3.638157300000000e+00 -1.15470389e+00  -9.22556570e-01   4.27259770e-01
C     4.919722281099999e+00   7.158512156692696e+00   3.690242400000000e+00 -3.84970440e-01   5.74319030e-01  -7.94648240e-01
C     6.141963739900000e+00   6.456090080564125e+00   3.581789700000000e+00 -3.79716900e-02  -6.26211210e-01   1.69954140e-01
C     7.347263303000000e+00   7.167844355856184e+00   3.516877200000000e+00  8.13567260e-01  -8.03182700e-01   8.18227010e-01
C     8.576444722800000e+00   6.443839930739411e+00   3.627341400000000e+00  8.74643990e-01   6.28716980e-01  -3.83129830e-01
C     9.833866415099999e+00   7.163425674103098e+00   3.673344000000000e+00  9.61159200e-01  -7.41752790e-01  -2.66225760e-01
C     1.109564726270000e+01   6.475323689329695e+00   3.688309800000000e+00 -7.89858580e-01  -2.43713012e+00   3.21512630e-01
C     1.232328337400000e+01   7.151974092538476e+00   3.626989200000000e+00  3.06191790e-01   2.24281270e-01   2.03569150e-01
