32
Lattice="9.86 0 0 4.93 8.53901048131456 0 0 0 30 " PBC="1 1 1" Properties=species:S:1:pos:R:3:force:R:3 Energy="-248.61949913"
C     5.309759773400000e+00   7.993350461526830e+00  -3.913307999999986e-01 -2.61776025e+00   1.02188239e+00  -6.64930220e-01
C     1.624998548300000e+00   2.011113725556936e-01  -5.940027000000008e-01 -7.46767041e+00   4.78844524e+00   3.23984484e+00
C     7.565397266200000e+00   8.001248704660410e+00  -4.269219000000000e-01  1.07486995e+01  -3.93195067e+00  -2.03436066e+00
C     3.959328109499999e+00   1.330223276694312e-01  -3.609575999999990e-01 -1.82382336e+00   3.25435824e+00   2.29134120e-01
C     1.009263467080000e+01   8.064560514743533e+00  -5.930789999999995e-01  3.48769148e+00  -1.37272785e+00   1.92342085e+00
C     6.411417819900000e+00   2.450999142632040e-01  -5.321732999999966e-01  8.06121310e-01   2.48459560e+00   1.59719020e-01
C     1.255938348970000e+01   8.146948730409289e+00  -2.686394999999990e-01  1.61669459e+00  -3.20691401e+00  -2.00835770e-01
C     8.942088377899999e+00   1.632043141120392e-01  -4.051220999999998e-01  1.56123328e+00   2.68364243e+00   1.14919507e+00
C     1.702576436700000e+00   1.653582880446297e+00  -1.026953999999982e-01 -5.66586633e+00  -7.06296350e-01  -1.86301787e+00
C     2.805527178499999e+00   2.452698832668084e+00  -1.662518999999989e-01  2.44199270e+00  -3.32035437e+00   2.98552410e+00
C     4.077164328599999e+00   1.565181835160944e+00  -1.096286999999982e-01 -1.11739234e+00   1.40710039e+00  -2.79212959e+00
C     5.328583992400000e+00   2.282287764491135e+00  -3.358257000000009e-01 -5.06464843e+00   4.18516839e+00   2.74869280e+00
C     6.534335439299999e+00   1.759898342768166e+00  -4.997144999999996e-01  4.40975150e-01  -4.92721934e+00  -6.95877960e-01
C     7.750326693400000e+00   2.444164177083429e+00  -3.989315999999974e-01  1.91667069e+00  -4.57689892e+00   1.03770163e+00
C     8.992317288499999e+00   1.650230294151639e+00  -2.474076000000025e-01 -7.65522930e-01  -4.02073410e-01  -6.98222280e-01
C     1.017056771640000e+01   2.353484496851488e+00   7.342980000000000e-02  3.07840812e+00   3.04894040e-01  -1.28438981e+00
C     2.712003993900000e+00   3.821576672783470e+00   2.549184000000000e-01  7.63031789e+00  -3.84115415e+00  -1.51056276e+00
C     3.988657123200000e+00   4.452477107202925e+00   2.047341000000000e-01 -3.06358630e-01   4.23320244e+00  -1.16794530e+00
C     5.163684760800000e+00   3.778205074583139e+00  -3.596399999999988e-02  3.33976378e+00  -8.25402460e-01  -9.88389890e-01
C     6.417073811700000e+00   4.557277492895327e+00  -1.748478000000020e-01  2.58456177e+00  -3.20280641e+00  -1.67064092e+00
C     7.765653718299999e+00   3.751902104431281e+00  -1.744188000000015e-01 -3.36998184e+00   5.12785579e+00  -5.22283120e-01
C     8.928971817099999e+00   4.523073290956219e+00  -1.593378000000030e-01  3.47717599e+00   1.63376390e-01   1.08915795e+00
C     1.023757376210000e+01   3.857147287179587e+00   1.315722000000000e-01 -5.06120423e+00  -4.50271554e+00  -1.34425736e+00
C     1.145112417320000e+01   4.413673623439080e+00   1.547208000000000e-01 -4.90011169e+00   9.22079985e+00   4.06477400e-01
C     4.087452006099999e+00   6.030735839183255e+00  -2.784089999999750e-02 -4.59480869e+00  -5.02391060e+00   2.68346343e+00
C     5.316712946800000e+00   6.531981133935858e+00  -2.307026999999984e-01  1.09034345e+00   5.50154958e+00  -2.57731611e+00
C     6.551062091199999e+00   5.910161168650939e+00  -5.970669000000015e-01 -3.06037097e+00  -3.56418302e+00   3.03144411e+00
C     7.740835950399999e+00   6.571300544712904e+00  -7.273284000000011e-01  8.39380700e-01   2.02455831e+00   2.27299961e+00
C     8.990955030899999e+00   5.923849629400903e+00  -3.719099999999997e-01 -1.64768634e+00  -4.77502340e-01  -8.35133910e-01
C     1.021362042040000e+01   6.644404550454071e+00  -3.144869999999997e-01 -1.37858786e+00   2.58048070e-01  -2.87785620e-01
C     1.138468404220000e+01   6.008115061130582e+00   6.359010000000001e-02  1.99049695e+00  -2.86067406e+00  -1.42845080e-01
C     1.260592081630000e+01   6.729347808835652e+00   7.598370000000000e-02  1.79126698e+00   8.33063300e-02  -1.67585070e+00
