32
Lattice="9.86 0 0 4.93 8.53901048131456 0 0 0 30 " PBC="1 1 1" Properties=species:S:1:pos:R:3:force:R:3 Energy="-254.03490389"
C     5.083422092999999e+00   8.065332612071135e+00  -1.323068400000000e+00 -3.18711775e+00  -7.67008590e-01  -1.62969620e-01
C     1.319352845300000e+00   2.024315035759016e-01  -1.262741399999999e+00  3.82157118e+00   1.99658332e+00  -1.16777204e+00
C     7.574728523699999e+00   8.061720183687569e+00  -1.455295200000002e+00 -1.80107108e+00  -2.32325100e-01   2.17186177e+00
C     3.887448956000000e+00   1.789696329909488e-01  -1.291868399999998e+00 -1.60986639e+00   4.23207140e+00  -2.03210330e-01
C     1.003342270860000e+01   8.089938624670301e+00  -1.217575199999999e+00  6.25826180e-01  -2.54046029e+00  -7.33636960e-01
C     6.411803099399999e+00   2.585286183143664e-01  -1.315939499999999e+00 -5.31808895e+00  -3.75486246e+00   3.26508150e-01
C     1.244879698350000e+01   8.013802160137374e+00  -1.346540699999998e+00  3.57418796e+00  -3.81573480e-01   6.53161780e-01
C     8.746417565300000e+00   2.302225670841096e-01  -1.436460000000000e+00  7.20601210e-01  -9.69631670e-01   6.09045250e-01
C     1.291036404300000e+00   1.640096879634814e+00  -1.120214699999998e+00  1.93054717e+00   4.57327650e-01   2.07191530e-01
C     2.567960782200000e+00   2.351514717913961e+00  -9.275130000000011e-01  4.36685830e-01  -2.26020390e-01  -1.16739485e+00
C     3.829841511600000e+00   1.681698340962640e+00  -1.157018700000002e+00  3.38113820e-01  -1.01383026e+00   6.24719760e-01
C     5.095643316500000e+00   2.393138893009665e+00  -1.152009300000000e+00 -1.76530638e+00  -4.83121820e-01   1.41549580e-01
C     6.310987212300001e+00   1.598944997208759e+00  -1.324790400000001e+00 -1.54752029e+00   4.01914774e+00  -1.37628570e-01
C     7.467774441500000e+00   2.326307473586897e+00  -1.408870500000003e+00  3.44651632e+00   9.79508590e-01   6.22712140e-01
C     8.712126999600001e+00   1.636263290879818e+00  -1.423122899999999e+00  1.52859017e+00   1.05443889e+00   4.69878180e-01
C     9.968200435499998e+00   2.405105803856756e+00  -1.178510100000000e+00 -1.21184659e+00  -1.28047925e+00   1.47999900e-02
C     2.586480672300000e+00   3.792338417779111e+00  -7.811667000000000e-01 -9.56356000e-01  -7.60762260e-01   3.79050920e-01
C     3.769790709900000e+00   4.536616332357710e+00  -7.588305000000020e-01  4.05505351e+00  -9.97456880e-01  -3.90031240e-01
C     5.070688790399999e+00   3.843074058617393e+00  -9.997097999999980e-01  4.44308130e-01  -1.00087307e+00  -5.41226820e-01
C     6.356026114700001e+00   4.553859668560603e+00  -1.213688699999999e+00 -2.32394920e+00  -2.91124413e+00   1.61560373e+00
C     7.606986943399999e+00   3.715624033016896e+00  -1.238327400000003e+00 -3.37071253e+00   3.79754869e+00  -4.71768150e-01
C     8.759998039100001e+00   4.540689952697297e+00  -1.122671399999998e+00  4.87145990e-01  -4.16655761e+00   2.08006580e-01
C     9.999338364800000e+00   3.826598037896233e+00  -9.713943000000000e-01 -7.55047160e-01  -5.50036490e-01  -4.45292500e-01
C     1.121170444200000e+01   4.499449691512776e+00  -7.650924000000003e-01  2.91201180e-01   1.76090318e+00  -5.99975080e-01
C     3.853052691100000e+00   5.963510259036731e+00  -7.448343000000008e-01 -5.98851740e-01  -8.10304250e-01  -2.52297318e+00
C     5.024734041900000e+00   6.655050049429382e+00  -1.187763600000000e+00 -3.98268290e-01  -4.94787810e-01   1.76770665e+00
C     6.198713906600000e+00   5.940037629298573e+00  -1.154867400000001e+00  5.32676992e+00   9.19302810e-01  -1.53067305e+00
C     7.528149538599999e+00   6.661027271375277e+00  -1.319167199999999e+00 -2.55586131e+00  -7.80712200e-01   2.00050040e-01
C     8.696466312300000e+00   5.900041501940986e+00  -1.156540499999998e+00  1.23098333e+00   2.76975630e+00  -6.75997170e-01
C     9.926718873200000e+00   6.621106714260439e+00  -1.177785900000000e+00  3.45148960e+00   1.49045301e+00   1.27041690e+00
C     1.123239047550000e+01   5.980003528559060e+00  -8.954795999999980e-01 -1.68316383e+00  -2.80075596e+00  -5.16426750e-01
C     1.250154684960000e+01   6.585108466219483e+00  -9.959501999999993e-01 -2.62656401e+00   3.44576241e+00  -1.52866400e-02
