32
Lattice="9.86 0 0 4.93 8.53901048131456 0 0 0 30 " PBC="1 1 1" Properties=species:S:1:pos:R:3:force:R:3 Energy="-254.66327344"
C     9.773816895199998e+00   7.375934063946448e-01   3.998910300000000e+00 -2.45241440e-01   3.26259094e+00  -3.67106070e-01
C     1.155364529800000e+00   1.434544196948262e+00   3.852372000000000e+00  2.29301890e-01   1.59274661e+00  -1.57210383e+00
C     2.366872146100000e+00   7.054518024369816e-01   3.607719000000000e+00 -3.52118180e-01   3.97144268e+00   9.75106250e-01
C     3.551082746800000e+00   1.541601528500634e+00   3.476187600000000e+00  3.01536350e-01  -4.69452430e-01  -8.88313760e-01
C     4.737187453500000e+00   8.389054355257576e-01   3.489529500000000e+00  5.19047817e+00  -3.13338520e-01   6.15326530e-01
C     6.113634283700000e+00   1.439018382269468e+00   3.621087000000000e+00 -4.35211430e+00   5.01184834e+00  -3.43604260e-01
C     7.300940727200000e+00   8.202501739399969e-01   3.776587500000000e+00  1.90341530e+00  -2.26391421e+00  -3.21305890e-01
C     8.549850380099999e+00   1.467360895074475e+00   3.940800600000000e+00 -4.37286480e-01   2.77134145e+00  -1.49867740e-01
C     1.101614401210000e+01   2.905688556786215e+00   3.566790900000000e+00  1.56815160e-01  -2.69285206e+00  -1.77406390e-01
C     2.368283112100000e+00   3.606208482940263e+00   3.275433900000000e+00  7.33886650e-01   1.51081818e+00   7.82336740e-01
C     3.644665091400000e+00   2.954557228373150e+00   3.256992000000000e+00 -1.35145833e+00  -1.00464257e+00   1.09479431e+00
C     4.925516362200000e+00   3.636863615953568e+00   3.365863200000000e+00 -2.04414836e+00  -2.00159993e+00   1.57853660e-01
C     6.115456608900001e+00   2.933997767450350e+00   3.630228900000000e+00  2.07385500e-02  -2.40750420e+00  -1.26438910e-01
C     7.306348542800000e+00   3.656920214549201e+00   3.787484100000000e+00  3.38945820e-01   1.15970190e-01  -9.54061200e-02
C     8.552118475899999e+00   2.954991266275849e+00   3.857777700000000e+00 -6.59425200e-01  -2.90465161e+00  -6.56598070e-01
C     9.760457088199999e+00   3.570336697644517e+00   3.526504500000000e+00  1.36659050e+00   1.40444120e-01   1.96756014e+00
C     1.222703251900000e+01   5.072899748812896e+00   3.324373800000000e+00  5.31738640e-01  -4.42354620e-01  -6.01219140e-01
C     3.617060493099999e+00   5.794524949439626e+00   3.306668100000000e+00  6.35640360e-01  -1.24764798e+00   9.33832580e-01
C     4.879546281400000e+00   4.991588216978563e+00   3.425686500000000e+00 -1.11465835e+00   4.84262770e+00  -1.98532310e-01
C     6.076840411899999e+00   5.773951569929744e+00   3.636858000000000e+00 -1.55131784e+00  -4.95968850e-01   3.22109480e-01
C     7.261404099199999e+00   5.090292517699189e+00   3.758006400000000e+00  4.13349399e+00  -1.21918122e+00  -2.71438830e-01
C     8.594341904599998e+00   5.714883904225496e+00   3.740183700000000e+00 -9.65395040e-01   2.10161734e+00  -3.98882540e-01
C     9.803639747000000e+00   4.955938360565192e+00   3.588707400000000e+00 -6.93244820e-01   3.62537041e+00  -4.10344420e-01
C     1.100393220490000e+01   5.756107428949477e+00   3.471839700000000e+00 -6.01024700e-02   1.46541476e+00  -2.24932390e-01
C     1.346249051900000e+01   7.218501181627737e+00   3.523171200000000e+00  4.47625370e-01  -3.18313890e-01   6.74402300e-01
C     4.801118510300000e+00   7.934204236926168e+00   3.873483000000000e+00  1.91266328e+00  -4.77568641e+00  -1.30062778e+00
C     6.074268677399999e+00   7.154975213161776e+00   3.811578600000000e+00 -1.91804950e-01   2.54427648e+00  -5.04752050e-01
C     7.356930539999999e+00   7.882433668017709e+00   3.714965700000000e+00 -5.27374230e-01  -2.52969548e+00   5.18899880e-01
C     8.645819830699999e+00   7.218983891890170e+00   3.679909500000000e+00 -2.70253899e+00  -2.83861065e+00   6.71824100e-02
C     9.798368196599998e+00   7.986224144940641e+00   3.561524700000000e+00 -5.23307710e-01  -1.41472422e+00  -1.45628410e-01
C     1.102996571080000e+01   7.278696252885657e+00   3.488272500000000e+00 -1.03713484e+00  -2.88143025e+00   1.58979950e-01
C     1.223901922240000e+01   7.949462509362775e+00   3.543101400000000e+00  9.05801500e-01  -7.34940110e-01   4.86124670e-01
