2
Lattice="2.42 0 0 1.21 2.09578147715834 0 0 0 30 " PBC="1 1 1" Properties=species:S:1:pos:R:3:force:R:3 Energy="-16.08204433"
C     0.000000000000000e+00   0.000000000000000e+00   3.000000000000000e+00  0.00000000e+00  -0.00000000e+00   0.00000000e+00
C     1.210000000000000e+00   6.985938257194471e-01   3.000000000000000e+00 -0.00000000e+00   0.00000000e+00  -0.00000000e+00
