32
Lattice="9.972 0 0 4.986 8.63600532653842 0 0 0 30 " PBC="1 1 1" Properties=species:S:1:pos:R:3:force:R:3 Energy="-257.66520691"
C    -4.109031589100365e-03  -3.364304092137989e-04   3.002568998437261e+00  1.51645150e-01   2.24936280e-01  -3.38713200e-02
C     1.247027667596510e+00   7.101632682072769e-01   2.995314860070408e+00 -1.24008780e-01   6.60577440e-01   6.68942900e-02
C     2.492411570135064e+00   3.825062542456910e-03   2.996362017940197e+00 -1.77364040e-01  -5.08765320e-01   3.70708800e-02
C     3.731767126538044e+00   7.265242350043412e-01   3.002402876722398e+00  7.91511300e-02  -4.86107280e-01  -1.59544410e-01
C     4.970535239510256e+00   2.149226640168645e-03   2.991185489635479e+00  8.90403280e-01  -6.53585900e-02   7.82843200e-02
C     6.230988845529467e+00   7.132972334537461e-01   2.997785029679080e+00 -1.73818210e-01   5.90922800e-02   2.68453200e-02
C     7.486317547474879e+00  -8.328961178522262e-03   3.004625094262211e+00 -5.96817670e-01   7.34399920e-01  -6.43234300e-02
C     8.718226905707848e+00   7.192953908356177e-01   3.000068685859952e+00  5.53533630e-01   1.03257090e-01   1.02901640e-01
C     1.244669684542651e+00   2.166547508836278e+00   3.002151685914984e+00  2.09817450e-01  -4.94178730e-01  -1.95816900e-02
C     2.480294037531739e+00   2.886206946734355e+00   2.994125820033373e+00  7.89292620e-01  -2.50890790e-01   2.36360200e-02
C     3.745841013435995e+00   2.147085062750177e+00   2.988915728437921e+00 -5.39703440e-01   1.03756529e+00   1.87412050e-01
C     4.997528919609572e+00   2.866166867472839e+00   3.005373106405973e+00 -5.96943630e-01   3.75587610e-01  -1.50112000e-01
C     6.229246240546164e+00   2.156160245199909e+00   3.004621038537042e+00  5.01680870e-01  -4.10444650e-01  -8.06391200e-02
C     7.478670899172728e+00   2.869893979829990e+00   2.994944898756931e+00  2.76750730e-01   7.20858340e-01   1.98734300e-01
C     8.732170938367377e+00   2.160986050875759e+00   3.007199578626791e+00 -2.99680180e-01  -1.21372680e-01  -5.97184800e-02
C     9.980973353156694e+00   2.886982449397606e+00   3.012805413218010e+00 -6.00971710e-01  -5.10167140e-01  -1.83706760e-01
C     2.486412624344528e+00   4.331850427989068e+00   3.001558406579412e+00  5.45266540e-01  -7.55819480e-01  -9.31633500e-02
C     3.750612879616742e+00   5.023886734942606e+00   3.003411031951860e+00 -5.61071700e-01   1.02026163e+00   2.24951100e-02
C     4.991680338719012e+00   4.313222049831199e+00   2.995758458316170e+00 -1.10973960e-01  -1.86842950e-01   7.66375400e-02
C     6.219933688157595e+00   5.050673821004022e+00   2.993419095619654e+00  8.90531020e-01  -6.55186640e-01   7.36306000e-02
C     7.492574232622748e+00   4.327388903337091e+00   3.007037547599152e+00 -8.56491390e-01  -5.12959570e-01  -1.99054670e-01
C     8.737539830735107e+00   5.030883348746553e+00   2.993141849459014e+00 -7.19189330e-01   6.69545950e-01   6.93527300e-02
C     9.962884534232572e+00   4.310400761669495e+00   2.987515889490139e+00  1.03476721e+00   4.49946850e-01   1.23214870e-01
C     1.122434805065556e+01   5.035370608589641e+00   2.986907097633462e+00 -7.41050520e-01   4.10795610e-01   1.19253580e-01
C     3.733685911114744e+00   6.486173597281967e+00   3.014623567793023e+00  6.48705340e-01  -5.79771670e-01  -1.32251700e-01
C     4.993936694783121e+00   7.206787157276351e+00   3.004577994317210e+00 -7.94526680e-01  -3.59628590e-01  -2.15444900e-02
C     6.223602856404740e+00   6.478051616876802e+00   2.990771208916819e+00  3.60120340e-01   1.29577530e-01   1.07006370e-01
C     7.482211426424743e+00   7.183275145022655e+00   2.998547926931598e+00 -5.08030360e-01   8.71632610e-01  -5.57004400e-02
C     8.711768251590854e+00   6.485290665614131e+00   2.998257179834976e+00  1.23302252e+00  -7.02700520e-01  -1.08501680e-01
C     9.982794425505134e+00   7.198737169782619e+00   2.987257254489394e+00 -1.17898028e+00   7.24888700e-02   1.10686170e-01
C     1.121024700602105e+01   6.478657219955613e+00   2.998013218673854e+00  6.78128260e-01  -3.81093000e-03  -9.73497000e-02
C     1.246747631249200e+01   7.209166246697152e+00   3.005514273937347e+00 -2.63194210e-01  -9.36517750e-01   3.50074300e-02
