26
Lattice="8.88768389401873 1.33226762955019e-15 0 4.44384194700937 7.69696003302603 0 0 0 30 " PBC="1 1 1" Properties=species:S:1:pos:R:3:force:R:3 Energy="-209.32580361"
C     1.429932796509731e-01   1.863508683775291e-01   3.672447600000000e+00  6.50341340e-01   3.39090210e-01   4.48733090e-01
C     6.978358540295771e+00   7.305285825558193e+00   3.559212600000000e+00  8.52594700e-02  -2.57366420e-01   5.42679980e-01
C     8.344992406853320e+00   7.694623848691694e+00   3.554570700000000e+00  1.49268220e-01  -1.13697614e+00  -1.59679910e-01
C     9.386739254271220e+00   6.698366749634240e+00   3.522027300000000e+00 -2.78461990e-01   5.93488270e-01   3.60575740e-01
C     1.074344002313645e+01   7.111163336638374e+00   3.635029200000000e+00  4.71600030e-01  -7.42052270e-01  -2.27583560e-01
C     1.176780104994841e+01   6.098221845202289e+00   3.670835400000000e+00  2.27211270e-01   1.01457549e+00   3.39865130e-01
C     4.266424092556313e+00   6.497049142478376e+00   3.757900500000000e+00 -1.05678486e+00   2.77670860e-01  -6.57854450e-01
C     5.280606188343485e+00   5.513618642462915e+00   3.732145800000000e+00  3.36803930e-01   3.69375180e-01  -1.31462880e-01
C     6.637505863574336e+00   5.926668767330437e+00   3.619286400000000e+00  3.82314670e-01  -6.30713610e-01  -7.48539000e-02
C     7.662542132175533e+00   4.922495883669329e+00   3.551814600000000e+00  5.05373790e-01   5.34412940e-01   6.24553600e-02
C     9.054118039304553e+00   5.327120377300812e+00   3.498818400000000e+00 -6.79897960e-01  -1.00843719e+00  -3.23918200e-02
C     1.007240673384687e+01   4.305743787367851e+00   3.508963800000000e+00 -3.86622150e-01   1.59002762e+00   7.24865900e-01
C     1.142701356439572e+01   4.731025151419045e+00   3.644087700000000e+00  9.69034200e-02  -4.28483930e-01  -4.80982600e-01
C     3.577301433657886e+00   3.757799281011359e+00   3.682181400000000e+00 -1.71627020e-01  -2.32770720e-01   3.30355840e-01
C     4.937478708935526e+00   4.142886350089890e+00   3.735769800000000e+00  1.53893150e-01  -3.63618070e-01   6.00565000e-02
C     5.945438937162665e+00   3.137262050675926e+00   3.733798500000000e+00  6.73222520e-01   3.68748800e-01  -6.78690070e-01
C     7.328509553000210e+00   3.540586450788741e+00   3.608261400000000e+00 -5.29742040e-01  -4.58374100e-02   2.77489170e-01
C     8.355510844082167e+00   2.553501511120636e+00   3.581564100000000e+00 -1.64637710e-01   2.56970590e-01   4.42016420e-01
C     9.718426725842560e+00   2.949838841827018e+00   3.581436300000000e+00  3.13163970e-01  -3.25487630e-01  -7.62862930e-01
C     1.874730668332917e+00   1.981311349760844e+00   3.555291600000000e+00 -3.50411570e-01  -2.62958870e-01   1.11758134e+00
C     3.237418669882851e+00   2.384547619681315e+00   3.669834000000000e+00 -1.52391870e-01  -1.06874721e+00  -8.06128910e-01
C     4.237849741118453e+00   1.344218266279283e+00   3.631101600000000e+00  4.78493860e-01   1.94752229e+00   2.68618110e-01
C     5.608937270527023e+00   1.757143084637516e+00   3.680544300000000e+00 -1.40947180e-01   1.37756650e-01   1.48591500e-01
C     6.644458562029926e+00   7.907992971014530e-01   3.679735500000000e+00 -4.16276800e-02  -2.35947060e-01  -8.33678100e-02
C     8.011752694627425e+00   1.185928512961526e+00   3.678269400000000e+00  1.83490900e-02  -5.61948990e-01  -3.26457890e-01
C     1.526021012420099e+00   5.994534095428551e-01   3.639542700000000e+00 -5.89046710e-01  -1.28293400e-01  -7.01567360e-01
