32
Lattice="9.86 0 0 4.93 8.53901048131456 0 0 0 30 " PBC="1 1 1" Properties=species:S:1:pos:R:3:force:R:3 Energy="-257.09476479"
C     4.982105613699999e+00   7.673405266505378e+00  -2.625561000000012e-01  2.62812580e-01   1.44452440e-01   1.41147850e-01
C     6.230684463599999e+00   8.418650565581256e+00  -2.056496999999986e-01 -1.17120913e+00  -2.57767967e+00   2.27525200e-01
C     7.444504447100000e+00   7.701730872069635e+00  -2.446245000000005e-01  3.74786770e-01  -6.79038990e-01  -3.88025680e-01
C     8.693893443899999e+00   8.408264652524537e+00  -2.226959999999991e-01 -8.42668130e-01  -1.93371133e+00   3.66859200e-02
C     9.907053744100001e+00   7.631725502451451e+00  -2.525943000000019e-01  1.08442750e-01   2.31504662e+00   3.75811560e-01
C     1.111916079910000e+01   8.354845798423124e+00  -1.704128999999988e-01  1.50514852e+00   5.48449750e-01  -5.42736700e-01
C     1.240502814770000e+01   7.687178348849200e+00  -1.733456999999987e-01 -1.75890473e+00  -1.00136023e+00   2.71169580e-01
C     1.361727462310000e+01   8.375968748647500e+00  -2.266215000000003e-01  1.00282600e-01   1.17135604e+00   5.88625610e-01
C     1.267286030700000e+00   1.232910749291822e+00  -8.301299999999401e-03 -5.50893700e-02   2.63518576e+00  -8.82470990e-01
C     2.509510998000000e+00   1.957875215356861e+00  -6.084210000000212e-02 -4.78809540e-01   1.01003420e+00   4.79961860e-01
C     3.728055006100000e+00   1.266119814949590e+00  -1.568292000000007e-01  1.58011972e+00   3.72553710e-01  -5.04983890e-01
C     4.997524040800000e+00   1.956653112176963e+00  -2.835164999999975e-01 -1.68429640e+00   1.09639978e+00   5.74252900e-01
C     6.196325173700000e+00   1.251523401215287e+00  -2.289686999999994e-01  1.96132540e-01  -7.73343350e-01  -7.64170100e-02
C     7.416069439599998e+00   1.980181672433765e+00  -1.990017000000002e-01  7.39544220e-01  -1.91221760e+00   1.74912850e-01
C     8.656400399499999e+00   1.272211374245812e+00  -1.271462999999997e-01  7.92930200e-02  -6.45738390e-01  -4.74435180e-01
C     9.875744201500000e+00   1.957810916607946e+00  -5.616719999999731e-02  1.06830085e+00   1.02192223e+00   2.67787960e-01
C     2.527194217800000e+00   3.398197589916730e+00  -9.609000000001089e-03  1.25057390e-01  -1.38433500e-02  -4.79480540e-01
C     3.777092335700000e+00   4.132193938146674e+00  -1.207335000000000e-01 -1.13954165e+00  -1.71591168e+00  -2.70596080e-01
C     5.008031201900000e+00   3.395856107853009e+00  -3.073629000000011e-01 -1.07312043e+00  -1.60826210e-01   6.24552410e-01
C     6.225270584100000e+00   4.093276373202817e+00  -3.442185000000002e-01  4.16707560e-01   5.93819270e-01   1.11501160e-01
C     7.448913543300000e+00   3.348692420488615e+00  -2.403138000000027e-01  2.19228550e-01   2.94678906e+00  -3.74936350e-01
C     8.703516803899999e+00   4.093349808692945e+00  -2.051447999999993e-01 -2.15686988e+00   1.03516522e+00  -1.40288760e-01
C     9.903343721899999e+00   3.416633057372735e+00  -7.378620000000069e-02  5.66861150e-01  -1.87345600e+00   2.63534000e-03
C     1.113158444840000e+01   4.110044513472498e+00  -3.506580000000170e-02  1.16589109e+00   2.65026400e-02   2.51071460e-01
C     3.714391954800000e+00   5.541184036162174e+00  -1.236296999999986e-01  2.14618351e+00  -1.87137840e-01  -3.48356020e-01
C     4.935329428599999e+00   6.252068613236847e+00  -2.764710000000008e-01  1.66919112e+00  -1.75819600e-01  -1.03628170e-01
C     6.195086511200000e+00   5.534945093545067e+00  -3.710889000000002e-01 -8.31516230e-01  -1.84062820e-01   4.13800260e-01
C     7.398148002199999e+00   6.262253603376971e+00  -3.516699000000010e-01  1.81622114e+00   8.25445300e-02   3.06766640e-01
C     8.658227506799999e+00   5.538433962446986e+00  -2.884397999999990e-01  2.49586400e-01  -2.76016770e-01  -2.60372200e-02
C     9.919806963899999e+00   6.248729603968852e+00  -2.464487999999996e-01 -1.03897590e+00  -1.85099695e+00   4.97675420e-01
C     1.114150508740000e+01   5.524213948294642e+00  -7.184070000000276e-02  4.91072940e-01   1.06031058e+00  -4.49155290e-01
C     1.240459775870000e+01   6.262310729357083e+00  -7.276229999999728e-02 -2.64986304e+00  -9.93710500e-02  -2.84336050e-01
