32
Lattice="9.86 0 0 4.93 8.53901048131456 0 0 0 30 " PBC="1 1 1" Properties=species:S:1:pos:R:3:force:R:3 Energy="-256.47925076"
C     1.247582644800000e+00   7.142626096205600e-01   3.497327700000000e+00 -1.03612001e+00   3.60252572e+00   2.13836900e-01
C     2.445608042200000e+00   1.542906118521768e+00   3.450840000000000e+00  5.37476600e-02  -2.67113136e+00   4.92245690e-01
C     3.700708986300000e+00   8.055529144919256e-01   3.630344400000000e+00 -1.54545451e+00   8.75464160e-01  -5.07006300e-01
C     4.898192675300000e+00   1.551357945704767e+00   3.614404500000000e+00  7.32204870e-01  -2.10789224e+00   1.91440390e-01
C     6.134209885200001e+00   7.874255345340384e-01   3.674420100000000e+00 -5.39906070e-01   1.67483270e-01  -3.47523750e-01
C     7.358675710700000e+00   1.497296104114211e+00   3.662474700000000e+00 -6.36133270e-01   3.51212050e-01  -8.79946800e-02
C     8.580903858499999e+00   8.833122179665784e-01   3.656549700000000e+00  1.40996470e+00  -4.27534982e+00  -5.46904600e-01
C     9.843193087700000e+00   1.476501905793314e+00   3.529784700000000e+00  7.75795110e-01   1.19199688e+00  -1.66186500e-02
C     2.404334230100000e+00   2.942999250737946e+00   3.351384300000000e+00  1.44757276e+00   5.10000450e-01   3.29543450e-01
C     3.690741512300000e+00   3.649585119156777e+00   3.432363600000000e+00 -2.24853195e+00   6.12175140e-01  -2.65373100e-01
C     4.862391113899999e+00   2.953908519746985e+00   3.536749800000000e+00  3.02901316e+00  -3.24414840e-01   1.03149600e-01
C     6.153207738800000e+00   3.640500892857629e+00   3.584496300000000e+00 -8.40072480e-01   5.02771000e-02  -1.66436750e-01
C     7.391242501899999e+00   2.876544743237766e+00   3.610308300000000e+00 -1.81195674e+00   3.60228572e+00   4.58315940e-01
C     8.583261088699999e+00   3.652784003262794e+00   3.636793200000000e+00  1.31209681e+00  -1.13449935e+00  -9.82129410e-01
C     9.825580613400000e+00   2.924257574366128e+00   3.483849600000000e+00 -8.56789600e-02  -2.68365360e-01   3.07740790e-01
C     1.103183713880000e+01   3.642789176886059e+00   3.362319600000000e+00  2.07574580e-01   6.18003540e-01   1.03501470e-01
C     3.706368675600000e+00   5.080485122602490e+00   3.458346300000000e+00 -1.79715602e+00  -1.53474653e+00  -1.15961660e-01
C     4.854916247899999e+00   5.819285518128483e+00   3.598152000000000e+00  2.97046305e+00  -2.80706600e-02  -1.33765190e-01
C     6.140945201899999e+00   5.071465622002780e+00   3.598026600000000e+00 -2.68787760e-01   3.05916230e-01   8.59238400e-01
C     7.395582183699998e+00   5.769936697982256e+00   3.759831900000000e+00 -1.37199233e+00   3.18502950e-01  -1.08193906e+00
C     8.613045930199998e+00   5.079372831097364e+00   3.636946800000000e+00  3.46067900e-01  -2.25087960e-01   9.61194200e-01
C     9.853576012800000e+00   5.822625210517315e+00   3.650808000000000e+00 -6.98072130e-01  -1.95751739e+00  -9.41992250e-01
C     1.105561906440000e+01   5.082826860836525e+00   3.408992700000000e+00 -5.21187130e-01  -9.31784650e-01   6.95120540e-01
C     1.230383871450000e+01   5.710177116258815e+00   3.434686500000000e+00  4.36891800e-01   2.94277961e+00   4.83802430e-01
C     4.867083241400000e+00   7.262056795503910e+00   3.648456600000000e+00  1.19513698e+00  -1.97185910e+00  -3.17189040e-01
C     6.162870588100000e+00   7.868682360150612e+00   3.649303800000000e+00 -1.65106879e+00   1.14657380e+00  -1.08247620e-01
C     7.358961256299999e+00   7.196395989027845e+00   3.738545700000000e+00  1.97741430e+00  -9.33341220e-01   1.56029610e-01
C     8.601995384500000e+00   7.920427568197945e+00   3.734736900000000e+00 -8.04363710e-01   5.73553020e-01  -1.43866140e-01
C     9.817784360699999e+00   7.221040256393964e+00   3.708346800000000e+00  6.43866460e-01  -3.44755590e-01  -1.82464670e-01
C     1.105301523560000e+01   7.889293738257131e+00   3.626282700000000e+00  1.25506390e+00   7.23014180e-01   5.02070700e-01
C     1.231516253010000e+01   7.149123856230356e+00   3.586201500000000e+00 -8.12314550e-01   1.55778413e+00  -5.09749400e-01
C     1.352433298130000e+01   7.963448640018072e+00   3.597654300000000e+00 -1.12407762e+00  -4.40731880e-01   5.97932170e-01
