32
Lattice="10.032 0 0 5.016 8.68796685076549 0 0 0 30 " PBC="1 1 1" Properties=species:S:1:pos:R:3:force:R:3 Energy="-257.46211882"
C    -1.702650963529364e-04  -8.170681198973327e-04   2.999174726762676e+00  3.35818700e-02   5.58964300e-02   1.57119200e-02
C     1.254821701677033e+00   7.242158630841860e-01   2.999898059194078e+00 -3.69914300e-02  -6.46618000e-03  -1.11827200e-02
C     2.508809293373109e+00   8.064426620569277e-04   2.999516257590755e+00 -5.02247000e-02  -2.71683600e-02   1.33430700e-02
C     3.761249843094393e+00   7.237545445681125e-01   3.001123306445540e+00  6.32720600e-02   1.28649300e-02  -1.64296700e-02
C     5.016445281431677e+00   2.733095611233968e-04   3.000432287327074e+00 -6.52009100e-02  -1.58714900e-02  -2.31267000e-03
C     6.268766020388655e+00   7.235873298335516e-01   2.999642039014272e+00  6.52956500e-02   6.06138900e-02   1.39204800e-02
C     7.523965038448554e+00   9.487323056834830e-04   3.000639310995301e+00 -2.80592500e-02  -2.17622500e-02  -1.41098200e-02
C     8.778327206080448e+00   7.236874586481699e-01   3.000226125279013e+00 -8.37189000e-03   3.46313900e-02  -2.82456000e-03
C     1.254595220489573e+00   2.172232847991814e+00   2.998977938918130e+00 -1.16103800e-02  -1.53909000e-02   4.42018000e-03
C     2.507754895563003e+00   2.896213883996239e+00   2.999035455510610e+00  3.04123100e-02  -1.22654500e-02   7.57439000e-03
C     3.761719591197241e+00   2.170887594407256e+00   3.000210566281711e+00 -1.74485400e-02   4.99748100e-02  -2.87786000e-03
C     5.015164147296587e+00   2.895607973472970e+00   2.999804122989579e+00  2.14234900e-02   5.00264000e-03   1.15696400e-02
C     6.269371680464969e+00   2.172668754319024e+00   3.000128686020605e+00 -1.56826300e-02  -4.21332400e-02  -1.11534900e-02
C     7.522811940475216e+00   2.896668557600903e+00   2.998979789524097e+00  6.60151700e-02  -6.01660200e-02   2.15202000e-02
C     8.778508612878113e+00   2.172191196082262e+00   3.000248838261026e+00 -2.64819100e-02  -7.46640000e-04  -1.40768100e-02
C     1.003289603308910e+01   2.896117283729140e+00   2.998952518757839e+00 -4.44475300e-02  -1.99830100e-02   3.82551000e-03
C     2.508585607459361e+00   4.344068340311388e+00   2.999603959365133e+00 -6.30175200e-02   1.42093400e-02   2.16296000e-03
C     3.761928800666908e+00   5.067282365702818e+00   2.999188600430315e+00  1.19125000e-03   6.57088900e-02   9.05774000e-03
C     5.015936136358321e+00   4.343635408379495e+00   3.000813694950933e+00 -1.84418900e-02   1.79852000e-02  -2.49526900e-02
C     6.269112168334596e+00   5.068782142406734e+00   2.999207143377223e+00  5.23522700e-02  -4.71875700e-02   2.66387800e-02
C     7.524158037238494e+00   4.343040638062892e+00   3.000486348310749e+00 -6.29717400e-02   7.26214200e-02  -1.32376900e-02
C     8.776841218189260e+00   5.067464098574946e+00   3.000995218320332e+00  4.11978100e-02   2.34854300e-02  -2.32538300e-02
C     1.003145782208728e+01   4.343270803753430e+00   2.998817495453219e+00  3.99227000e-03   5.60056700e-02   2.57371400e-02
C     1.128483468659668e+01   5.068917284689805e+00   3.001197067285192e+00  5.21797000e-02  -4.67910600e-02  -3.17338100e-02
C     3.761409402119393e+00   6.517088014579643e+00   2.998846619897606e+00 -4.34062000e-03  -5.19930100e-02   1.12327400e-02
C     5.015468985384909e+00   7.240423164820639e+00   3.000298865647062e+00  2.17844100e-02  -3.17246900e-02  -8.23000000e-03
C     6.270547621173946e+00   6.516145726494554e+00   3.001050752779653e+00 -4.31681700e-02   2.04491600e-02  -1.84796300e-02
C     7.524015700529662e+00   7.240927497372616e+00   2.999915974293301e+00 -5.47548000e-03  -2.30003300e-02   9.65600000e-05
C     8.777285905911128e+00   6.516861822119421e+00   2.999139766407778e+00 -8.14970000e-04  -4.69303700e-02   2.01890100e-02
C     1.003078029360534e+01   7.240504286883941e+00   2.999970639763719e+00  4.37374500e-02  -1.34081000e-02  -6.08099000e-03
C     1.128537984219183e+01   6.516275517843647e+00   2.999552138366930e+00 -2.46489300e-02   1.77409600e-02   1.09471600e-02
C     1.253895652641260e+01   7.241115779456527e+00   2.999381333395033e+00  3.09627600e-02  -2.42015000e-02   2.98871000e-03
