2
Lattice="2.461 0 0 1.2305 2.1312885187135 0 0 0 30 " PBC="1 1 1" Properties=species:S:1:pos:R:3:force:R:3 Energy="-16.13008922"
C     0.000000000000000e+00   0.000000000000000e+00   3.000000000000000e+00 -0.00000000e+00  -0.00000000e+00   0.00000000e+00
C     1.230500000000000e+00   7.104295062378344e-01   3.000000000000000e+00  0.00000000e+00   0.00000000e+00  -0.00000000e+00
