26
Lattice="8.88768389401873 1.33226762955019e-15 0 4.44384194700937 7.69696003302603 0 0 0 30 " PBC="1 1 1" Properties=species:S:1:pos:R:3:force:R:3 Energy="-208.36657315"
C     8.381986681450181e-01   9.879707827979571e-01   3.316944300000000e+00  9.30185770e-01  -9.86974830e-01   7.24270240e-01
C     3.294126135675393e+00   3.497350086303421e-01   3.192443400000000e+00 -7.37250480e-01   1.14854666e+00   9.50717340e-01
C     4.654823296072971e+00   8.130135704136363e-01   3.237899100000000e+00  4.58012560e-01  -3.01918720e+00   4.63724390e-01
C     1.013160128803094e+01   7.458943856208298e+00   3.334838400000000e+00 -9.43047500e-01   3.65846243e+00   5.52490020e-01
C     7.022740162839258e+00   2.141456686202633e-01   3.479408700000000e+00 -1.24956830e-01  -1.02501320e+00  -2.22589040e-01
C     1.247332859452042e+01   6.912341622711438e+00   3.535491600000000e+00  9.72070200e-01   5.77642080e-01  -6.78755390e-01
C     4.949325460359588e+00   7.313611781161845e+00   3.451460400000000e+00  5.83007580e-01  -3.88058220e-01  -7.42978480e-01
C     6.005523815110571e+00   6.336882100609301e+00   3.359813400000000e+00 -1.03530717e+00  -6.97509330e-01   1.13401151e+00
C     7.382667590026633e+00   6.674637791557752e+00   3.362123400000000e+00 -5.06253340e-01   1.61538314e+00  -2.84602180e-01
C     8.385926589024475e+00   5.732366400454715e+00   3.548790000000000e+00  1.43399067e+00   2.05606250e-01  -1.12618923e+00
C     9.754597557190149e+00   6.155751079615317e+00   3.461462400000000e+00  3.26642030e-01  -3.03492843e+00  -1.67725020e-01
C     1.078762629770839e+01   5.131350200147369e+00   3.410077200000000e+00 -3.82316480e-01   6.24507160e-01   9.95729920e-01
C     3.269946883964082e+00   5.553450256678964e+00   3.443594100000000e+00 -2.31314970e-01  -2.31639635e+00  -8.03332000e-03
C     4.291208153241950e+00   4.503907565151422e+00   3.416865000000000e+00 -5.66860410e-01   1.11652235e+00  -1.88201920e-01
C     5.669778223738357e+00   4.948921625631528e+00   3.471998100000000e+00 -4.68733090e-01  -5.36326490e-01  -7.36942240e-01
C     6.724944940590714e+00   3.985902155132422e+00   3.466394400000000e+00 -1.26267686e+00  -6.08499840e-01   8.29609870e-01
C     8.075194672964443e+00   4.372866974579873e+00   3.524804700000000e+00 -5.88004940e-01  -8.17858990e-01   2.45363300e-01
C     9.049531593193029e+00   3.358992688557753e+00   3.497856900000000e+00  1.10416667e+00  -1.48575590e-01  -3.48968550e-01
C     1.041797952491566e+01   3.758016104375403e+00   3.472171500000000e+00  5.10847540e-01  -1.00911605e+00  -1.17292927e+00
C     2.531343333662019e+00   2.721490742559398e+00   3.274150800000000e+00  4.38915590e-01   2.88812810e-01   7.75209820e-01
C     3.890222073894918e+00   3.121983969864378e+00   3.279183300000000e+00  2.66064782e+00   2.37210660e-01   9.14928140e-01
C     5.017362010325244e+00   2.133746564370982e+00   3.367406700000000e+00 -1.37937532e+00   3.06427720e+00  -2.72381360e-01
C     6.388439807755114e+00   2.600796328690575e+00   3.546022200000000e+00 -1.62522826e+00  -7.37097230e-01  -1.27019638e+00
C     7.365739526282333e+00   1.582400232590031e+00   3.500795100000000e+00  3.42504800e-01   3.72771620e-01  -2.07778590e-01
C     8.722007642678221e+00   1.968142312967115e+00   3.386769900000000e+00 -1.40826300e-02   9.38255400e-01   8.50536790e-01
C     2.226859014959480e+00   1.311216780454655e+00   3.288992700000000e+00  1.04417060e-01   1.47754401e+00  -1.00832038e+00
