32
Lattice="9.86 0 0 4.93 8.53901048131456 0 0 0 30 " PBC="1 1 1" Properties=species:S:1:pos:R:3:force:R:3 Energy="-253.48984828"
C     5.113456195300000e+00   8.071683501115634e+00  -9.386556000000006e-01 -4.62844507e+00  -2.59924308e+00   5.46863180e-01
C     1.325690458900000e+00   1.994621480715864e-01  -8.023233000000012e-01  5.47725817e+00  -7.93385190e-01  -1.87831965e+00
C     7.608013320100000e+00   7.966829063486893e+00  -9.482238000000009e-01 -2.55049444e+00   1.83335656e+00   1.89873765e+00
C     3.879388504600000e+00   1.297251595527888e-01  -9.484029000000014e-01 -5.61688700e-02   2.66034513e+00  -1.80393696e+00
C     1.002284011850000e+01   7.955649449406058e+00  -1.065531600000000e+00  7.17731180e-01   3.09283969e+00   4.64660130e-01
C     6.348052924299999e+00   2.198994157544184e-01  -9.663035999999998e-01 -2.88302695e+00  -3.10944821e+00  -9.27547100e-01
C     1.245743843540000e+01   8.007620001939959e+00  -1.035086099999997e+00  1.97113379e+00   4.12327150e-01   4.83824020e-01
C     8.741305253900000e+00   1.920724884021944e-01  -7.499649000000019e-01  9.64668730e-01  -4.08356900e-01  -2.24416903e+00
C     1.307023901300000e+00   1.550536151336172e+00  -1.153975199999998e+00  3.10422262e+00   8.89203140e-01   5.01355180e-01
C     2.547700109100000e+00   2.256607288203268e+00  -1.395044100000000e+00  1.01211458e+00   1.66569733e+00  -6.73091600e-01
C     3.824601020200000e+00   1.624393041631360e+00  -1.253847900000000e+00 -6.03512600e-01  -1.31456622e+00   1.28269434e+00
C     5.006698820100000e+00   2.395339225230151e+00  -1.182933000000002e+00  2.12748951e+00  -3.07600180e-01  -1.74050310e-01
C     6.269366821199999e+00   1.605046717927453e+00  -9.654480000000021e-01 -2.32927554e+00   1.71189122e+00   3.57617800e-02
C     7.441210467599999e+00   2.296107299051966e+00  -8.725773000000032e-01  4.30121836e+00   3.32422687e+00  -4.07344600e-01
C     8.727641019399998e+00   1.607297771870190e+00  -8.415593999999977e-01 -1.20419750e-01  -6.01122000e-02   3.71071300e-02
C     1.000307653730000e+01   2.248458852062623e+00  -1.138094400000000e+00 -3.48432665e+00   3.27461394e+00  -5.36272300e-02
C     2.608817910700000e+00   3.729035659047098e+00  -1.715271000000001e+00 -8.54784810e-01  -1.07802989e+00   1.75812045e+00
C     3.820782981700000e+00   4.473923258973969e+00  -1.627029300000000e+00  2.01673443e+00   2.70829270e-01   5.05449460e-01
C     5.100526678700000e+00   3.876108159950427e+00  -1.335983100000000e+00 -1.53795193e+00  -4.37959820e+00  -2.01117190e-01
C     6.347765751800000e+00   4.519966713553491e+00  -1.135518900000001e+00 -1.10951515e+00  -1.14554618e+00   2.77301030e-01
C     7.565776728299999e+00   3.782551345527355e+00  -9.673881000000009e-01 -1.00026754e+00  -1.21795323e+00  -4.00313250e-01
C     8.817817374899999e+00   4.507951044956559e+00  -1.104468900000001e+00 -8.08097050e-01  -6.00300419e+00  -2.12856580e-01
C     9.997367202900000e+00   3.699458405326684e+00  -1.374744000000000e+00  1.36851868e+00   1.47843285e+00   7.81405950e-01
C     1.126294814380000e+01   4.484072299879973e+00  -1.582576500000002e+00 -2.16390349e+00  -7.07051650e-01  -1.77155050e-01
C     3.838891857700000e+00   5.885850349644065e+00  -1.520313600000001e+00  9.63286360e-01   2.19794659e+00   5.83071720e-01
C     5.095219040700000e+00   6.666476953253718e+00  -1.241330999999999e+00 -1.32702968e+00  -2.04936164e+00   6.84394920e-01
C     6.245400365700000e+00   5.891848321385426e+00  -1.036658700000000e+00  4.06473452e+00   2.70324087e+00   2.49824060e-01
C     7.621487207300000e+00   6.585877574893417e+00  -8.064353999999980e-01 -4.05332746e+00  -1.06318826e+00  -1.73207717e+00
C     8.776122343600001e+00   5.839425030515876e+00  -1.036424999999998e+00  1.73383578e+00   3.68511517e+00  -1.77746980e-01
C     9.997160833099999e+00   6.586595193334156e+00  -1.245138300000001e+00 -2.67535170e-01  -4.22174520e-01   6.69284990e-01
C     1.120851369670000e+01   5.965768314968061e+00  -1.502424000000001e+00  2.38857289e+00  -3.35732478e+00  -7.18950100e-02
C     1.250632806220000e+01   6.616243406231660e+00  -1.419696900000002e+00 -2.43343745e+00   8.15878730e-01   3.75391720e-01
