32
Lattice="9.884 0 0 4.942 8.55979509100539 0 0 0 30 " PBC="1 1 1" Properties=species:S:1:pos:R:3:force:R:3 Energy="-257.96583436"
C    -5.775603327606746e-03  -4.817925747531311e-04   2.998692694568355e+00  1.01805620e-01  -3.98325970e-01   4.94526400e-02
C     1.229909142761814e+00   7.053474034810480e-01   3.009589511382237e+00 -1.20728000e-02   1.94900160e-01  -1.54444680e-01
C     2.468312200157975e+00  -5.763027500355723e-03   2.997572221966089e+00  7.22605800e-02   2.57400530e-01   1.28983140e-01
C     3.698325877605418e+00   7.091840567196280e-01   3.009309516356463e+00  6.59624370e-01   2.87091790e-01  -9.94976500e-02
C     4.950689387645827e+00   8.680176516894398e-04   3.001611873362833e+00 -3.70994550e-01  -8.00680400e-02   5.17167000e-03
C     6.187003863578509e+00   7.213916778267290e-01   3.001671683732111e+00 -2.66011250e-01  -3.13285990e-01   2.57945100e-02
C     7.417252278109046e+00   1.994495785716380e-04   3.010825529767368e+00 -4.02229980e-01  -2.19192130e-01  -9.87401100e-02
C     8.641459859160898e+00   7.048621115290830e-01   3.005920288347455e+00  4.53768660e-01   2.51282320e-01  -5.46769400e-02
C     1.225265983530357e+00   2.135076619062285e+00   3.002006081973239e+00  6.28768560e-01   7.52725200e-02  -3.00895800e-02
C     2.470981966121290e+00   2.860829708213043e+00   2.987367358337181e+00 -2.34137910e-01  -3.55018350e-01   2.58697990e-01
C     3.712395692607497e+00   2.149286786962320e+00   3.008827484140124e+00 -7.04502240e-01  -5.75313930e-01  -6.43204900e-02
C     4.935512063761501e+00   2.851972380351024e+00   3.013032542572949e+00  7.97964820e-01   3.32726700e-01  -1.31585640e-01
C     6.184575660898502e+00   2.143225827380612e+00   2.996293667161851e+00 -5.80638730e-01   4.91343100e-02   1.42842740e-01
C     7.406129822202865e+00   2.861279465321467e+00   2.998028101606941e+00  6.06883680e-01  -7.63054850e-01  -5.03221100e-02
C     8.649731324532619e+00   2.125530624706427e+00   2.996876963878055e+00 -4.24199980e-01   6.78571750e-01   8.58029300e-02
C     9.879456857681898e+00   2.841486497511210e+00   3.002701675666489e+00  9.04172000e-03   7.68698700e-01  -3.33985000e-03
C     2.469338125015655e+00   4.284139730098405e+00   3.002121273173624e+00  1.13094260e-01   9.66191000e-02  -1.57310420e-01
C     3.702240480664138e+00   4.999586610104286e+00   3.004443649151836e+00  5.19824120e-01  -8.05869200e-02  -3.35345600e-02
C     4.953270074330279e+00   4.284164318867911e+00   3.005208310834879e+00 -9.12883680e-01  -3.83741800e-02   7.57756400e-02
C     6.179729588612212e+00   4.996910742541054e+00   3.007292982721072e+00  9.43821100e-02  -1.19708390e-01  -1.66435940e-01
C     7.406464760814057e+00   4.269113637084536e+00   2.993850853744788e+00  4.80434480e-01   9.28324030e-01   6.10700900e-02
C     8.649278150811021e+00   5.000586587549345e+00   2.987668645939223e+00 -2.29608280e-01  -7.44857330e-01   1.93518230e-01
C     9.887859410809920e+00   4.294479573640670e+00   3.007677372810937e+00 -1.03501850e-01  -7.47248770e-01  -2.73291800e-01
C     1.112389852551211e+01   5.005055619324749e+00   2.988284640576043e+00 -2.49757560e-01  -2.61609140e-01   3.07752050e-01
C     3.707955758633869e+00   6.433009199089017e+00   2.996913697156730e+00 -4.57147070e-01  -9.04937950e-01   3.20743300e-02
C     4.932859129675128e+00   7.123828398162273e+00   2.988862988065796e+00  6.76142800e-01   7.51251050e-01   6.94268900e-02
C     6.176018534304904e+00   6.421716114510451e+00   2.991546853745979e+00  1.86664230e-01   1.89480900e-02   9.22412400e-02
C     7.421137002830190e+00   7.136074066022788e+00   3.000016276662745e+00 -5.13487840e-01  -3.65278210e-01  -8.34059000e-02
C     8.646671882237085e+00   6.411414174724561e+00   3.000345691969213e+00  4.20340700e-01   6.27461720e-01  -1.25274100e-01
C     9.897571526226084e+00   7.122793290922592e+00   2.992836932158635e+00 -8.68129070e-01   7.72737600e-01   2.09255170e-01
C     1.111980924900905e+01   6.431394571810102e+00   3.012650546375716e+00  4.36505020e-01  -6.16485070e-01  -2.66580100e-01
C     1.235481074297373e+01   7.132898790537522e+00   3.005561442568053e+00  7.17970400e-02   4.92924850e-01   5.49906200e-02
