32
Lattice="9.86 0 0 4.93 8.53901048131456 0 0 0 30 " PBC="1 1 1" Properties=species:S:1:pos:R:3:force:R:3 Energy="-255.5754992"
C     5.017940008899999e+00   8.259883462875043e+00  -7.043405999999983e-01 -2.18885331e+00  -1.44645158e+00   4.25625550e-01
C     1.280767953800000e+00   4.339712984166560e-01  -6.832616999999992e-01  1.22024328e+00  -2.93376648e+00  -8.18108870e-01
C     7.401855312900000e+00   8.143707834371709e+00  -7.609470000000016e-01  2.31399836e+00   4.23285772e+00   7.49201480e-01
C     3.766374860800000e+00   3.458290705389520e-01  -6.844752000000014e-01 -1.50443926e+00   2.27510070e-01  -7.42307700e-01
C     9.929694818400000e+00   8.220326069875920e+00  -7.114007999999998e-01 -3.15712570e-01  -1.06497231e+00   6.85063460e-01
C     6.239864665900000e+00   3.836108616988648e-01  -6.749514000000012e-01 -9.59096440e-01  -1.55351497e+00   3.28694190e-01
C     1.237986039910000e+01   8.150553388293316e+00  -6.042888000000026e-01  1.03035962e+00   1.98756260e+00  -9.74369710e-01
C     8.663428262399998e+00   3.532214626916976e-01  -7.360526999999983e-01  1.26379731e+00   1.28292891e+00   6.17357910e-01
C     1.314009070400000e+00   1.811682915653811e+00  -6.567062999999997e-01 -8.21133700e-02   3.76260220e-01   6.87369650e-01
C     2.537880781600000e+00   2.493261437980913e+00  -5.864535000000011e-01  4.57319360e-01  -3.22266730e-01  -5.94845680e-01
C     3.763642950600000e+00   1.756480774603755e+00  -6.866258999999992e-01  1.03921456e+00   1.98125637e+00   8.42562670e-01
C     5.058389722200000e+00   2.537586758261755e+00  -6.549800999999995e-01 -4.19147855e+00  -1.91444994e+00   2.39045400e-01
C     6.210004592600000e+00   1.798313899285904e+00  -6.356196000000018e-01  1.93984040e+00  -8.51159870e-01  -8.37948700e-01
C     7.442237682400000e+00   2.462340997911995e+00  -6.982347000000004e-01  1.69655453e+00   2.72842232e+00   2.59327090e-01
C     8.693044399300000e+00   1.817789588998583e+00  -7.605344999999986e-01 -3.16135840e-01  -2.51435359e+00   1.17054016e+00
C     9.942239745700000e+00   2.486333824168594e+00  -5.802878999999983e-01 -1.45013118e+00   1.52016816e+00  -1.71921952e+00
C     2.499936001300000e+00   3.910231070509764e+00  -5.397725999999992e-01  7.40881800e-01  -5.10971130e-01  -2.35454050e-01
C     3.699991326199999e+00   4.588630433845057e+00  -5.397861000000006e-01  4.53389047e+00   2.59965255e+00  -1.75857030e-01
C     4.995659021800000e+00   3.935635907539336e+00  -6.213824999999993e-01 -1.20420836e+00  -6.33344720e-01  -5.24719300e-01
C     6.206640163399999e+00   4.617683221541791e+00  -7.941209999999970e-01  9.48633960e-01   1.39925588e+00   1.51766240e+00
C     7.484203617199999e+00   3.917258078404071e+00  -6.599003999999979e-01 -3.16798867e+00  -4.04530600e-01  -8.87647020e-01
C     8.635214611900000e+00   4.679089380656090e+00  -6.143145000000025e-01  3.39602840e+00  -2.81647555e+00  -4.16992970e-01
C     9.906900519699999e+00   3.913795765824745e+00  -6.601952999999980e-01  4.72895180e-01   1.04020028e+00   1.17164216e+00
C     1.117678697750000e+01   4.616869880793571e+00  -6.145196999999989e-01 -3.43170019e+00   2.36330611e+00   3.42241790e-01
C     3.869095897100000e+00   6.054926172752257e+00  -5.362283999999988e-01 -4.95401066e+00  -1.09303372e+00  -2.56491510e-01
C     5.022526880899999e+00   6.811313428872753e+00  -6.148425000000017e-01  9.04390790e-01  -1.36633600e-02  -8.89099430e-01
C     6.191884131100000e+00   6.057865300159473e+00  -7.785104999999994e-01  2.73405755e+00   1.80044000e-02   3.50202960e-01
C     7.476906822799999e+00   6.790739110071716e+00  -7.776941999999991e-01 -1.94758820e+00  -2.97106386e+00   3.89034590e-01
C     8.709009267599999e+00   6.054720638770003e+00  -6.295256999999985e-01 -2.64544585e+00   1.44629003e+00  -7.58746090e-01
C     9.875883079599999e+00   6.775548039647587e+00  -6.213909000000015e-01  2.90136523e+00   1.50909885e+00  -2.90553530e-01
C     1.112054253020000e+01   6.124845725315117e+00  -5.865951000000003e-01  2.88769257e+00  -3.65742697e+00  -5.02101700e-02
C     1.245350582370000e+01   6.750455901181793e+00  -5.788404000000007e-01 -2.12226094e+00  -1.13290900e-02   3.96999840e-01
