26
Lattice="8.88768389401873 1.33226762955019e-15 0 4.44384194700937 7.69696003302603 0 0 0 30 " PBC="1 1 1" Properties=species:S:1:pos:R:3:force:R:3 Energy="-208.93510631"
C     6.050466344357035e-01   6.900644090736244e-01   3.715833300000000e+00  3.67588670e-01   2.11433225e+00  -2.76527670e-01
C     2.977637845252006e+00   1.271079827834215e-01   3.663664500000000e+00 -3.27910360e-01  -4.03489440e-01   8.77544600e-02
C     4.327842694801730e+00   4.827295494751073e-01   3.586173600000000e+00  8.44444970e-01   4.95891030e-01   2.06301640e-01
C     9.819838579121763e+00   7.220763737167957e+00   3.519879900000000e+00 -3.61110400e-02  -1.14259320e+00  -7.47205170e-01
C     1.118420675286374e+01   7.610237919524388e+00   3.483390900000000e+00  1.25042438e+00  -9.29155700e-02   9.15869730e-01
C     1.224665697108790e+01   6.624943061850461e+00   3.556606800000000e+00 -8.94472570e-01   1.51610940e-01   1.52173200e-01
C     4.733848363620459e+00   7.043633980845568e+00   3.695399100000000e+00 -1.11508509e+00  -2.26077482e+00  -1.17834100e-02
C     5.749174570922056e+00   6.009813792601706e+00   3.767053200000000e+00 -6.83124790e-01   1.58779432e+00  -8.15909270e-01
C     7.083827351311966e+00   6.452691869703887e+00   3.688253400000000e+00  1.03353178e+00  -1.87721798e+00  -3.80952940e-01
C     8.100308113180310e+00   5.405039859438114e+00   3.532638000000000e+00  4.29419210e-01   1.80726104e+00   3.31598270e-01
C     9.501669004769933e+00   5.817469378418417e+00   3.435327900000000e+00 -1.33644973e+00  -1.03108700e-01   9.65493610e-01
C     1.050989590795641e+01   4.818327535711319e+00   3.536207400000000e+00  1.91932580e-01   1.08617729e+00  -4.08201720e-01
C     1.187767539698498e+01   5.234767170867252e+00   3.583905900000000e+00  9.38736800e-02   6.70912790e-01  -2.59407600e-02
C     4.015220238408928e+00   4.273867443160408e+00   3.671357700000000e+00  9.49043110e-01  -4.42278250e-01   8.15074000e-02
C     5.389560615665529e+00   4.660175481008499e+00   3.676682100000000e+00  2.30288190e-01  -1.46821576e+00   9.18018240e-01
C     6.410227343329776e+00   3.610944131514170e+00   3.731411100000000e+00 -1.31763680e+00   1.66750164e+00  -1.24627211e+00
C     7.738140815207878e+00   4.038244869998835e+00   3.590330400000000e+00  1.91675743e+00  -5.06109050e-01   3.26015800e-01
C     8.810521287075188e+00   3.044381371571511e+00   3.597296400000000e+00 -9.95988210e-01   1.37240636e+00   2.25823800e-02
C     1.016553326268106e+01   3.449479228244837e+00   3.590367300000000e+00 -9.07970000e-04   4.35641370e-01   2.13804460e-01
C     2.310020718384440e+00   2.502069192686572e+00   3.691093800000000e+00  9.36724080e-01  -3.30576470e-01  -1.46282800e-02
C     3.705952834888215e+00   2.895780012752316e+00   3.727581300000000e+00 -1.46474718e+00  -1.06066229e+00  -6.04080950e-01
C     4.672333322721864e+00   1.846606082579811e+00   3.654229800000000e+00  1.34093278e+00   1.50843424e+00  -1.06527220e-01
C     6.066952950513609e+00   2.250207727192906e+00   3.611536800000000e+00 -7.64760820e-01  -2.36098680e-01   8.17428340e-01
C     7.108076238054606e+00   1.292158337724371e+00   3.605343000000000e+00 -9.21490470e-01  -5.44682070e-01  -4.79204070e-01
C     8.455830397682412e+00   1.699982072792323e+00   3.660860700000000e+00  7.49021170e-01  -1.51106228e+00  -1.13349110e-01
C     1.973674986169408e+00   1.132357671152725e+00   3.703719300000000e+00 -4.75296990e-01  -9.18178700e-01   1.92035170e-01
