26
Lattice="8.88768389401873 1.33226762955019e-15 0 4.44384194700937 7.69696003302603 0 0 0 30 " PBC="1 1 1" Properties=species:S:1:pos:R:3:force:R:3 Energy="-209.02219453"
C     8.497351040240673e-01   9.844795186979494e-01   3.302402400000000e+00  7.27054080e-01  -8.65790620e-01  -5.31556350e-01
C     3.247373185615221e+00   3.935502614795183e-01   3.222279900000000e+00 -1.76669713e+00  -7.20322330e-01  -2.10341680e-01
C     4.576093037017501e+00   7.667265927900262e-01   3.283378800000000e+00  1.83035569e+00  -7.06719700e-01   6.54162730e-01
C     1.005868624057772e+01   7.463490835346020e+00   3.447147000000000e+00  6.17355940e-01   5.15714430e-01  -3.66415090e-01
C     7.001532593699217e+00   1.620822764333388e-01   3.511846800000000e+00 -9.62255800e-02  -3.02100950e-01  -4.64654450e-01
C     1.249618087393517e+01   6.860413466112241e+00   3.492438600000000e+00 -4.92712830e-01   1.09183438e+00  -3.65078350e-01
C     4.983604501650277e+00   7.282962563291986e+00   3.351155400000000e+00 -1.33562218e+00  -1.11747660e-01   3.57984620e-01
C     5.980885911055595e+00   6.281232309896398e+00   3.330130800000000e+00 -9.67857000e-02   1.10197540e-01  -2.45461430e-01
C     7.326317718892815e+00   6.704249844063570e+00   3.291767400000000e+00  1.19164391e+00  -9.69836380e-01   1.66786300e-01
C     8.345301119244459e+00   5.679897686352612e+00   3.385846200000000e+00  6.11764990e-01   6.08786530e-01   1.38187020e-01
C     9.753410562526264e+00   6.091166888608392e+00   3.425709000000000e+00 -1.37554623e+00  -1.37659269e+00   1.33203860e-01
C     1.077704315476028e+01   5.068499980296002e+00   3.445164900000000e+00 -3.31925050e-01   1.86558978e+00  -3.26731350e-01
C     3.248706074876503e+00   5.486316678570902e+00   3.461360100000000e+00 -2.89844840e-01   5.85997400e-01  -3.48758500e-02
C     4.262313493036508e+00   4.523147964016815e+00   3.385839300000000e+00  7.39214590e-01   6.44390000e-02  -6.99566000e-02
C     5.621094157658172e+00   4.893609577524741e+00   3.345263400000000e+00  7.16826950e-01   6.69380640e-01   6.65444990e-01
C     6.627240498483765e+00   3.893467822740146e+00   3.443377200000000e+00  1.88816110e-01   3.38962920e-01  -2.95734540e-01
C     7.995445840868141e+00   4.282525599558954e+00   3.471027900000000e+00  1.05942822e+00   9.96902390e-01  -7.49101620e-01
C     9.064430506500683e+00   3.328563757683952e+00   3.377757900000000e+00 -7.64815560e-01  -6.28486300e-01  -7.33585700e-02
C     1.044513308783035e+01   3.713069244462617e+00   3.304285800000000e+00 -1.52561874e+00   6.15525200e-01   9.19392100e-01
C     2.577713313482881e+00   2.769285785561686e+00   3.294433800000000e+00  3.17648410e-01  -1.14700220e+00  -7.97797050e-01
C     3.939315728886234e+00   3.175851067664733e+00   3.336882300000000e+00 -2.77485420e-01  -2.45909599e+00  -1.28676590e-01
C     4.938113599319355e+00   2.118811767976771e+00   3.334329000000000e+00 -5.34917210e-01   1.80163589e+00   9.82871200e-02
C     6.281593538446604e+00   2.522637471096340e+00   3.433684800000000e+00  8.76468460e-01  -4.43468700e-01  -1.79678680e-01
C     7.325952964994679e+00   1.545301885850235e+00   3.438061800000000e+00  3.27561550e-01  -1.79868480e-01   2.19721390e-01
C     8.702181219627249e+00   1.935419688004374e+00   3.358884900000000e+00 -1.25437810e-01   1.03789582e+00   2.81255350e-01
C     2.224704329368591e+00   1.392780157409359e+00   3.161664900000000e+00 -1.90504620e-01  -3.91829930e-01   1.20499273e+00
