32
Lattice="9.652 0 0 4.826 8.3588771973274 0 0 0 30 " PBC="1 1 1" Properties=species:S:1:pos:R:3:force:R:3 Energy="-256.91784872"
C    -6.788271232314015e-03   1.301783421818402e-02   2.989707498863202e+00  7.63300130e-01  -8.63072410e-01   1.71237940e-01
C     1.207217189492968e+00   6.882819239164647e-01   2.996644155147624e+00 -9.66962900e-02   1.03212769e+00  -4.29052400e-02
C     2.404686393948539e+00  -8.333576844532736e-03   2.999849586750361e+00  5.71440570e-01   2.85435580e-01  -7.92088800e-02
C     3.621644010627699e+00   6.900560076161530e-01   2.989489832176998e+00 -6.94945900e-02   1.65382000e-01   1.59284540e-01
C     4.839177175494792e+00  -4.179241716679509e-03   2.990578639210654e+00 -1.32183605e+00  -5.02768200e-02   4.14985300e-02
C     6.020361553289759e+00   6.900012089037975e-01   2.992099866713403e+00  1.45583143e+00   6.79038450e-01   1.26310290e-01
C     7.243909985553050e+00   2.547468802634374e-03   3.004125601183555e+00 -3.48733660e-01  -1.57523600e-02  -9.51876800e-02
C     8.454144447405689e+00   7.058498841389579e-01   2.999171271614451e+00 -8.49919380e-01  -4.77923180e-01  -8.75325700e-02
C     1.216172251817135e+00   2.097158310206159e+00   2.994657086616952e+00 -3.92926160e-01  -3.58110980e-01   1.41619250e-01
C     2.415556661170131e+00   2.796702750718328e+00   3.010921484283283e+00  2.89095050e-01  -6.15499760e-01  -7.73029900e-02
C     3.624631578654412e+00   2.090357260653120e+00   3.011811412354401e+00 -4.51792740e-01  -2.89345020e-01  -2.17297340e-01
C     4.823377180573274e+00   2.788732283100106e+00   2.989962097434325e+00  6.07106100e-01  -5.10847730e-01   1.98779820e-01
C     6.039000212571644e+00   2.094053228771925e+00   3.003917774161198e+00 -7.68887850e-01  -5.69443780e-01  -1.32825300e-01
C     7.237411506225390e+00   2.779843405308993e+00   3.006746595401440e+00  3.64790770e-01   3.82885990e-01  -1.16857920e-01
C     8.445894254781035e+00   2.084411863028048e+00   2.989285034772652e+00  3.09405180e-01   8.03038890e-01   1.94662060e-01
C     9.655085171241790e+00   2.796283538901731e+00   3.002807609159921e+00 -2.15908890e-01  -6.97607180e-01  -2.00669860e-01
C     2.417176137243386e+00   4.184499587614754e+00   3.001353021908639e+00 -2.84235700e-01  -3.67340260e-01   5.52791500e-02
C     3.611330234469644e+00   4.869543346844346e+00   3.002912020931395e+00  1.05412730e+00   4.87838880e-01  -7.04000400e-02
C     4.830230133988977e+00   4.166908725498581e+00   2.995256370483271e+00 -3.06043590e-01   1.15615524e+00   2.48447400e-02
C     6.034606615798747e+00   4.882954712713500e+00   2.996707684734515e+00 -1.82618620e-01  -6.63707610e-01   5.10335900e-02
C     7.240533385846644e+00   4.178636660630450e+00   2.999288269742397e+00 -2.56881310e-01   1.01398740e-01  -3.73823600e-02
C     8.439976929369703e+00   4.880902500973023e+00   2.988587055729869e+00  2.24836960e-01   1.38190790e-01   8.69969900e-02
C     9.641448733920042e+00   4.181474995021662e+00   2.992519237403452e+00  7.17704330e-01   1.98664230e-01   6.26742700e-02
C     1.086705502453432e+01   4.866455204570631e+00   2.997940689044528e+00 -9.72171830e-01   7.25079170e-01   1.90490400e-02
C     3.617533089390980e+00   6.267744847322186e+00   2.995942288010518e+00  3.76385640e-01   6.26963200e-02   1.05230760e-01
C     4.840543724070934e+00   6.970306618576568e+00   3.009219909117567e+00 -1.33453958e+00   1.27515110e-01  -1.75412710e-01
C     6.034276719328212e+00   6.274125902490820e+00   3.004880531789436e+00 -1.27916080e-01  -3.85058420e-01  -4.83497400e-02
C     7.229019516122047e+00   6.962089020640000e+00   2.994715573297264e+00  8.91382460e-01   1.81762610e-01   7.60361300e-02
C     8.451449188527141e+00   6.279483404592921e+00   2.996630794840879e+00 -1.01658777e+00  -6.02958120e-01  -1.59196500e-02
C     9.644748279962865e+00   6.963388983201503e+00   3.008585678846182e+00  6.15482750e-01   2.16478460e-01  -1.37855820e-01
C     1.084778121230437e+01   6.268402671184535e+00   3.005912748005897e+00  4.91438890e-01  -4.07857040e-01  -6.45502800e-02
C     1.205830250596649e+01   6.964923914677007e+00   2.996097709088689e+00  2.64862530e-01   1.31112540e-01   8.51212900e-02
