32
Lattice="9.86 0 0 4.93 8.53901048131456 0 0 0 30 " PBC="1 1 1" Properties=species:S:1:pos:R:3:force:R:3 Energy="-252.29388898"
C     9.632789906799999e+00   7.894395455458512e-01   4.413427500000000e+00  1.22321939e+00   3.39483700e-02   1.59957530e-01
C     1.063591544500000e+00   1.437288207966010e+00   4.369075500000000e+00 -2.26184193e+00   2.37060176e+00  -1.35858849e+00
C     2.245781634000000e+00   7.541035831577249e-01   4.568398500000000e+00  1.77030456e+00   2.47757010e-01  -8.82390950e-01
C     3.494439511800000e+00   1.445979127442450e+00   4.316946000000000e+00  4.62948300e-01   6.76268500e-02  -4.91909680e-01
C     4.704937858499999e+00   7.155356906930233e-01   4.318593900000001e+00  3.44386790e+00   2.74294396e+00  -1.34241750e-01
C     6.083091454700000e+00   1.403077687159148e+00   4.280966700000000e+00 -5.54898948e+00   4.29471650e-01  -3.93361750e-01
C     7.254857108500000e+00   7.628757940139336e-01   4.455377700000000e+00  1.98020031e+00   1.49301210e-01  -1.41423320e+00
C     8.461971010199999e+00   1.559897041574872e+00   4.344481500000000e+00 -1.92363785e+00  -2.85871180e-01  -1.62462700e-02
C     1.090465664700000e+01   2.891201186215743e+00   3.960771000000000e+00  3.08425770e-01  -2.34583570e+00   1.10943133e+00
C     2.318148413800000e+00   3.546488095274924e+00   3.937276200000000e+00 -8.42943340e-01   1.23176250e-01   7.42525630e-01
C     3.572440394200000e+00   2.868656661526656e+00   4.039822800000000e+00 -2.04318402e+00  -1.63929666e+00   1.03152657e+00
C     4.796622646099999e+00   3.522551626487493e+00   4.242244500000000e+00 -5.37803510e-01  -8.14844050e-01  -9.09800720e-01
C     6.015082400500000e+00   2.780386092321438e+00   4.185640800000001e+00  2.68356600e-02   3.49792470e+00   2.33446772e+00
C     7.132255255600000e+00   3.662524367127225e+00   4.440519300000000e+00  5.54823550e-01  -2.53035670e-01  -2.16768466e+00
C     8.357073970500000e+00   3.009097169160483e+00   4.193972100000000e+00  2.82053430e+00  -2.35980076e+00   6.12327600e-01
C     9.662230782200000e+00   3.626925744776734e+00   3.960371100000000e+00 -1.21294229e+00  -3.37206466e+00   5.54042630e-01
C     1.210971986590000e+01   4.942042743420983e+00   4.145205600000000e+00 -8.58665370e-01   1.55982206e+00  -7.05943210e-01
C     3.425477981600000e+00   5.639301023741986e+00   4.405130100000000e+00  2.43874294e+00   1.53174512e+00   5.76268800e-02
C     4.743043800499999e+00   4.892142473977959e+00   4.483463700000000e+00 -3.51064092e+00   2.72241671e+00   2.48245060e-01
C     5.838683894600000e+00   5.667827979173360e+00   4.816460699999999e+00  1.78178828e+00   5.14063399e+00  -8.15285280e-01
C     7.064617282499999e+00   5.146923149812444e+00   4.551873300000000e+00  4.62221275e+00  -4.88988534e+00   6.91458420e-01
C     8.440486858999998e+00   5.659209897456315e+00   4.563669900000000e+00 -1.45816361e+00   4.51077134e+00  -9.21485870e-01
C     9.605232291400000e+00   4.964558833205172e+00   4.059921900000000e+00 -3.61594900e-02   4.06091614e+00   1.73328286e+00
C     1.083172124100000e+01   5.678103312044364e+00   4.125497400000000e+00  2.16637913e+00   1.85560686e+00   4.77885140e-01
C     1.330279081050000e+01   7.173033768695195e+00   4.467740700000000e+00  3.17120345e+00  -4.07409430e+00  -1.10091410e-01
C     4.643648690100000e+00   7.900776743380320e+00   4.555800600000000e+00  3.90896013e+00  -1.59399480e-01   1.22866450e+00
C     5.971479409900000e+00   7.218977914582834e+00   4.844440200000000e+00 -3.89925230e+00  -2.45060038e+00  -1.00650022e+00
C     7.217608444200000e+00   7.875020611459601e+00   4.777764000000000e+00  7.41839670e-01   4.78436510e-01   1.46443640e-01
C     8.534307076099999e+00   7.255618296211885e+00   4.711717200000000e+00 -3.24387489e+00  -5.66727529e+00  -7.80799580e-01
C     9.713368390399999e+00   7.893153883334720e+00   4.398758999999999e+00 -2.85045210e-01  -1.46814630e+00   9.18812900e-01
C     1.091053266470000e+01   7.129795976789086e+00   4.315758000000000e+00  1.03797236e+00  -4.55609500e-02  -8.92941160e-01
C     1.220043127430000e+01   7.906980334494040e+00   4.320158700000000e+00 -4.79711422e+00  -1.69738973e+00   9.54805780e-01
