32
Lattice="9.86 0 0 4.93 8.53901048131456 0 0 0 30 " PBC="1 1 1" Properties=species:S:1:pos:R:3:force:R:3 Energy="-254.77295805"
C     5.039433576400000e+00   8.307969448761382e+00   7.106970000000000e-02  7.75419830e-01   6.72354240e-01   7.87542100e-01
C     1.397110925200000e+00   5.104217423649344e-01   2.667270000000000e-01 -2.02926860e+00  -1.90017927e+00  -2.51812025e+00
C     7.514503298599999e+00   8.302010414907810e+00   7.714349999999999e-02  2.52813070e-01  -7.26338800e-02   1.17638209e+00
C     3.794079291600000e+00   4.516489286925616e-01  -1.164839999999998e-01  1.02253284e+00   3.73599530e-01   1.49634113e+00
C     1.000590285700000e+01   8.232249773329983e+00   7.062120000000000e-02 -2.87164250e+00   3.52599011e+00  -1.42304406e+00
C     6.203634490300001e+00   4.941997572055544e-01   9.192359999999999e-02  2.76039344e+00  -2.04600893e+00  -5.63548820e-01
C     1.244008212390000e+01   8.333893969968768e+00  -7.298639999999779e-02 -1.46390246e+00  -1.39745253e+00   1.05238893e+00
C     8.737807270999999e+00   4.203959795555520e-01   1.151415000000000e-01 -5.56858930e-01   3.79961192e+00  -6.77059020e-01
C     1.339993424200000e+00   1.870800193008947e+00  -4.655430000000038e-02 -2.12240684e+00   1.37472582e+00  -6.67146340e-01
C     2.498000187500000e+00   2.615701882303110e+00  -3.052737000000008e-01  2.22526447e+00  -2.98587966e+00   3.62174520e-01
C     3.758528124900000e+00   1.891766452391015e+00  -2.294912999999994e-01  9.29129990e-01   2.08809160e-01   4.47708860e-01
C     5.024268551300000e+00   2.630376854933828e+00  -1.106555999999976e-01 -2.74874726e+00   4.63991060e-01  -7.60623030e-01
C     6.162733731299999e+00   1.887793592375090e+00   1.258236000000000e-01  1.54361308e+00   7.97608070e-01  -3.06339650e-01
C     7.389524396899999e+00   2.599862871763758e+00   1.400388000000000e-01  2.96796863e+00   1.49737100e-02  -7.25421160e-01
C     8.673539100799999e+00   1.917995303931907e+00   8.459730000000000e-02 -5.25206300e-02  -1.68879864e+00  -8.34775700e-02
C     9.899248370899999e+00   2.575896601829751e+00  -1.944687000000016e-01  1.07023170e+00   4.60644560e-01   1.77611814e+00
C     2.547376356000000e+00   3.966902519093114e+00  -4.934010000000022e-01  3.66219820e-01   3.35805956e+00   4.32381940e-01
C     3.758398367300000e+00   4.723208910784364e+00  -3.920624999999980e-01  2.04967600e+00   7.60284730e-01   3.61649900e-02
C     5.045733968500000e+00   4.082503557581249e+00  -2.564867999999976e-01 -8.18505970e-01  -1.46947695e+00   9.76848920e-01
C     6.281638527900000e+00   4.763943918718785e+00  -1.213110000000128e-02 -2.71693840e-01   1.27890304e+00  -4.50943990e-01
C     7.504441710900000e+00   4.015778705009271e+00   1.970760000000000e-02 -6.58387100e-01   3.78281760e-01   8.24621450e-01
C     8.766800551699999e+00   4.728260589384332e+00  -2.429999999975507e-04 -1.83314250e+00   8.35064190e-01  -5.58655020e-01
C     9.962379929600001e+00   4.023153079849904e+00  -2.260503000000007e-01  4.21918120e-01  -5.91746540e-01  -3.73881030e-01
C     1.121636403150000e+01   4.723219328377150e+00  -4.363796999999998e-01 -2.33115372e+00   3.40195130e-01   2.98171300e-01
C     3.796578703000000e+00   6.180220183596659e+00  -2.651456999999979e-01 -2.01668330e-01  -7.20256330e-01  -7.15810430e-01
C     4.998768323499999e+00   6.931277987106273e+00  -1.422096000000010e-01  3.07520845e+00  -2.06169485e+00   1.56913014e+00
C     6.302813913200000e+00   6.216569726528762e+00   7.294770000000000e-02 -2.71124079e+00  -1.80025511e+00  -6.78563040e-01
C     7.529647075400000e+00   6.857311968257151e+00   2.338140000000000e-01 -2.58926813e+00   2.84182050e+00  -1.08170902e+00
C     8.681311147199999e+00   6.194789101717216e+00   5.257650000000001e-02  3.99677768e+00  -3.21374056e+00  -3.26748950e-01
C     9.938245903400000e+00   6.872828374980569e+00  -9.054599999999979e-02  3.96123240e-01  -2.16924562e+00  -1.96198960e-01
C     1.112882493020000e+01   6.149911136678109e+00  -3.958617000000011e-01  3.08811088e+00   6.97009680e-01   1.47566805e+00
C     1.246499632260000e+01   6.902743773515990e+00  -2.513153999999993e-01 -3.68099363e+00  -6.45578800e-02  -6.04352190e-01
