32
Lattice="9.86 0 0 4.93 8.53901048131456 0 0 0 30 " PBC="1 1 1" Properties=species:S:1:pos:R:3:force:R:3 Energy="-250.92448404"
C     4.914676327500000e+00   8.402457954617926e+00  -1.334198999999998e-01 -7.49444400e-02  -2.81309568e+00  -9.71653710e-01
C     1.209735429200000e+00   4.979537623828768e-01  -1.551119999999990e-01  2.66981386e+00   3.47768784e+00  -3.71867100e-02
C     7.407990895100000e+00   8.341080401188735e+00   5.032410000000000e-02  2.07330190e-01   1.24748114e+00  -2.96345377e+00
C     3.719145411500000e+00   5.268367091611624e-01  -3.148023000000002e-01 -8.95378830e-01   2.03731085e+00   1.89616381e+00
C     9.912620897300000e+00   8.488021742891091e+00  -3.355427999999989e-01  1.41064248e+00  -4.52291560e+00  -1.50942371e+00
C     6.232370326400000e+00   5.949051750321680e-01  -3.216269999999994e-01 -7.14053880e-01   1.93871105e+00  -1.68462081e+00
C     1.237381503590000e+01   8.411273970597898e+00  -5.793078000000023e-01 -4.94618730e-01   1.95259603e+00   2.49937321e+00
C     8.614267929299999e+00   5.833229466072007e-01  -1.911498000000016e-01  1.91018726e+00  -2.01923074e+00  -5.80139700e-01
C     1.290943769600000e+00   2.004914403948456e+00  -5.532075000000027e-01 -1.21370826e+00  -2.88543303e+00   1.55810742e+00
C     2.560306513500000e+00   2.621518485461876e+00  -7.819415999999997e-01 -2.59479739e+00   2.95532770e+00  -8.44034610e-01
C     3.789304685200000e+00   1.999962631771104e+00  -4.972017000000015e-01 -2.25764803e+00  -3.08503024e+00  -6.61027910e-01
C     4.988006971600000e+00   2.679432018509647e+00  -5.460680999999994e-01  1.56734403e+00  -1.55256560e-01  -1.30752890e-01
C     6.257452391599999e+00   2.086326866886663e+00  -3.648456000000024e-01 -1.21834008e+00  -4.88056421e+00   1.72582704e+00
C     7.461755650999999e+00   2.717699252415347e+00  -9.814679999999854e-02 -3.72952500e-02  -3.46482004e+00  -6.50346940e-01
C     8.686481188900000e+00   1.944244819878161e+00  -3.277920000000023e-02 -5.37248030e-01   3.58839830e+00  -1.95198227e+00
C     9.848428402599998e+00   2.714683273913811e+00  -4.684542000000000e-01  3.19828069e+00  -3.12562160e+00   9.75351910e-01
C     2.443168678200000e+00   4.086611077792443e+00  -1.235953500000001e+00  3.77508185e+00  -6.32109290e-01   1.55550182e+00
C     3.752843637699999e+00   4.820141025269971e+00  -1.142321100000000e+00  7.02436330e-01  -5.65868530e-01   2.19867636e+00
C     4.990560662300000e+00   4.037248509839345e+00  -7.151877000000013e-01 -1.02293752e+00   5.53322730e+00   8.35595500e-01
C     6.175917635899999e+00   4.825479102281438e+00  -1.651709999999973e-01 -9.30936410e-01  -2.55718738e+00  -3.56593127e+00
C     7.397771941800000e+00   4.034528749611360e+00  -1.909167000000025e-01  2.49793360e+00   6.61285313e+00   5.31869300e-02
C     8.681525257099999e+00   4.775022772475956e+00  -4.535511000000021e-01 -1.28495616e+00   1.93298444e+00   1.09879093e+00
C     9.919078507100000e+00   4.075998197837166e+00  -6.542637000000013e-01 -1.27495181e+00   3.00292527e+00  -1.52584196e+00
C     1.111639339290000e+01   4.835623275951468e+00  -1.179137699999998e+00 -1.46007434e+00  -2.06453759e+00   1.44743257e+00
C     3.824757449100000e+00   6.273987484628063e+00  -8.292222000000002e-01 -2.05253081e+00  -8.86283930e-01  -2.88187670e-01
C     4.996273003999999e+00   6.888708372770224e+00  -3.542258999999994e-01 -2.53966207e+00   3.91852043e+00  -6.92095000e-02
C     6.181790449099999e+00   6.244000870745237e+00  -2.306735999999994e-01  1.52596856e+00  -2.29691520e+00   1.23472727e+00
C     7.404173497499999e+00   6.918320721823711e+00  -5.800919999999721e-02  1.71145840e+00   1.12600385e+00  -3.68612040e-01
C     8.635773131600001e+00   6.267633350759581e+00  -3.818087999999982e-01  2.54633772e+00  -1.70094201e+00  -6.62098710e-01
C     9.963992384699999e+00   6.984871720142316e+00  -6.533226000000028e-01 -2.69890596e+00   4.48126000e-03   7.71391570e-01
C     1.111451486570000e+01   6.243621738679925e+00  -1.148681400000001e+00  1.15231973e+00   3.69182120e+00   2.98461333e+00
C     1.245138602230000e+01   7.081304814855471e+00  -8.274293999999998e-01 -1.57214668e+00  -5.36451815e+00  -2.37023551e+00
