32
Lattice="9.86 0 0 4.93 8.53901048131456 0 0 0 30 " PBC="1 1 1" Properties=species:S:1:pos:R:3:force:R:3 Energy="-256.87063137"
C     5.011849191100000e+00   6.765181424754553e+00  -2.041110000000046e-02 -9.06296130e-01   8.39889840e-01  -3.38718480e-01
C     6.211027616899999e+00   7.515792552625958e+00  -1.522964999999985e-01  7.36564740e-01  -1.23208176e+00   3.92461780e-01
C     7.428893109100000e+00   6.810321195854977e+00  -2.783931000000024e-01  2.64377523e+00  -5.88153790e-01   5.36881160e-01
C     8.707887199600000e+00   7.529776633918740e+00  -1.712498999999994e-01 -1.00190646e+00   1.39257790e-01  -5.21966090e-01
C     9.954402302199998e+00   6.816802731759821e+00  -5.257439999999747e-02 -1.87991454e+00  -1.70298850e-01   5.20260350e-01
C     1.115274036020000e+01   7.538659254180454e+00   9.081660000000001e-02  8.80946530e-01  -1.04007960e-01  -8.19115540e-01
C     1.236487867140000e+01   6.800857495930098e+00   9.842669999999999e-02  1.72609728e+00   3.95361650e-01  -9.90681200e-02
C     1.364076789720000e+01   7.489178079371789e+00   6.420089999999999e-02 -9.44980980e-01   4.77872300e-01  -1.50959630e-01
C     1.317923096000000e+00   3.649444993994800e-01  -3.980999999981805e-04 -1.84556260e-01   1.73196915e+00  -1.03442615e+00
C     2.518837226900000e+00   1.139642041082345e+00  -1.254653999999995e-01  1.30872636e+00  -7.23233250e-01   6.12745910e-01
C     3.771126099000000e+00   4.343777553155040e-01  -2.058408000000007e-01  5.72790610e-01  -1.27863594e+00   6.45831260e-01
C     5.058217615900000e+00   1.096864672621318e+00  -1.588133999999997e-01 -2.66710096e+00   1.14212168e+00  -8.36246200e-02
C     6.268370517500000e+00   4.205156110923768e-01  -4.108919999999827e-02  6.63555270e-01  -2.00254500e-01  -6.27868600e-02
C     7.514422200099999e+00   1.166263943275631e+00  -7.746240000000171e-02 -1.20492227e+00  -3.38511858e+00   3.77602200e-02
C     8.720079385400000e+00   3.990185668188720e-01  -7.357800000001191e-03 -4.09744020e-01  -9.65824150e-01   3.58887970e-01
C     9.945624880899999e+00   1.067894542546031e+00   1.105140000000000e-02 -1.73723660e-01   1.31324868e+00   1.05100890e-01
C     2.562610154600000e+00   2.559502982559723e+00   6.489300000000000e-03 -1.94734370e+00  -4.88771760e-01  -1.58967720e-01
C     3.793659058400000e+00   3.262735240002638e+00  -5.009190000000174e-02 -1.06258277e+00  -1.13526807e+00  -7.85758470e-01
C     4.978739113900000e+00   2.523601310727297e+00  -2.031935999999988e-01  2.38311716e+00   3.43788980e-01   1.73727870e-01
C     6.237642714900000e+00   3.232633264088228e+00  -2.942904000000013e-01 -1.23983395e+00   2.29823660e-01   9.37647900e-02
C     7.457164933600000e+00   2.528579810007451e+00  -2.195831999999989e-01  5.43661710e-01   1.53365388e+00   3.38046890e-01
C     8.669190249200000e+00   3.247853964878723e+00  -7.429649999999910e-02  1.11458866e+00  -7.72373970e-01  -2.66717310e-01
C     9.885352081299999e+00   2.504363774016905e+00   1.153530000000000e-02  1.90055201e+00   6.95089070e-01   3.49523110e-01
C     1.114915358800000e+01   3.241293272346729e+00   8.749949999999999e-02 -6.82805000e-03   1.16166420e-01  -3.29843310e-01
C     3.769631618800000e+00   4.656422491946826e+00  -8.902439999999956e-02 -1.06079130e-01   1.26675085e+00   9.15538470e-01
C     5.006720610700000e+00   5.349182421546963e+00  -9.634469999999951e-02  5.69536050e-01   3.81702860e-01  -1.06222827e+00
C     6.243980032700000e+00   4.657613769298890e+00  -3.273267000000004e-01  4.66499530e-01  -1.61070660e-01   9.04019100e-01
C     7.514524842699999e+00   5.363236437335576e+00  -3.059390999999998e-01 -2.27000578e+00   9.71528210e-01   5.48667590e-01
C     8.716552512699998e+00   4.655921337421755e+00  -7.799520000000015e-02 -6.21097340e-01   5.45094930e-01  -6.70403570e-01
C     9.915769096700000e+00   5.378727227027555e+00   4.031490000000000e-02  1.26637808e+00   7.25282350e-01  -2.70045250e-01
C     1.115691232340000e+01   4.683854917014873e+00   9.779579999999999e-02 -3.09700260e-01  -1.06611759e+00  -1.32156170e-01
C     1.238874741430000e+01   5.388667318347113e+00   3.503040000000000e-02  1.59827070e-01  -5.77391460e-01   2.53568220e-01
