2
Lattice="2.397 0 0 1.1985 2.0758628928713 0 0 0 30 " PBC="1 1 1" Properties=species:S:1:pos:R:3:force:R:3 Energy="-16.01776931"
C     0.000000000000000e+00   0.000000000000000e+00   3.000000000000000e+00 -0.00000000e+00  -0.00000000e+00  -0.00000000e+00
C     1.198500000000000e+00   6.919542976237663e-01   3.000000000000000e+00  0.00000000e+00   0.00000000e+00   0.00000000e+00
