32
Lattice="9.86 0 0 4.93 8.53901048131456 0 0 0 30 " PBC="1 1 1" Properties=species:S:1:pos:R:3:force:R:3 Energy="-253.98047002"
C     9.721487853899999e+00   4.300045010981720e-01   4.653108000000000e+00  1.82157127e+00  -8.70793570e-01  -4.15500970e-01
C     1.169677157900000e+00   1.141368799781610e+00   4.702120499999999e+00 -1.50606706e+00  -3.48916355e+00  -2.71170280e-01
C     2.406824964700000e+00   3.768049287858856e-01   4.404026400000000e+00 -1.54603809e+00   1.39645571e+00  -9.47508100e-02
C     3.577134986700000e+00   1.197494007864554e+00   4.406490900000000e+00  1.38363723e+00  -3.83164793e+00   2.28684090e-01
C     4.850628922700000e+00   4.246703520315256e-01   4.299126600000000e+00 -1.77624966e+00   1.04746657e+00  -5.30249000e-02
C     6.061478285400001e+00   1.151134951457691e+00   4.395339000000000e+00 -1.51275966e+00  -2.56421618e+00   1.19797840e-01
C     7.229515528099999e+00   4.394107334825208e-01   4.561558200000000e+00  1.77805800e+00  -2.68342694e+00  -3.33757490e-01
C     8.453435701199998e+00   1.122214689203608e+00   4.659349799999999e+00  1.95664675e+00  -1.47230611e+00   1.39690019e+00
C     1.098380572640000e+01   2.473817598777325e+00   5.036075100000001e+00 -8.79873420e-01   3.15839362e+00  -4.14285680e-01
C     2.339032781200000e+00   3.218236407028843e+00   4.881025500000000e+00  8.88577500e-02   2.93024079e+00   2.98071180e-01
C     3.556682339400000e+00   2.571552892588680e+00   4.662580800000001e+00  1.73864073e+00   5.66979770e-01  -6.86847530e-01
C     4.837226471199999e+00   3.297203980486416e+00   4.487985600000000e+00 -5.63977620e-01  -2.25585690e+00  -8.82557350e-01
C     6.072196203999999e+00   2.504363176286171e+00   4.346820600000000e+00 -1.00581078e+00   3.61478533e+00   1.17949174e+00
C     7.294670309500000e+00   3.199086395175871e+00   4.521627600000000e+00 -6.83690960e-01   1.52862684e+00  -7.92776530e-01
C     8.485556820399999e+00   2.498995725078653e+00   4.898982900000000e+00 -8.47096420e-01   1.63211256e+00  -1.22266618e+00
C     9.654299644700000e+00   3.223576789573140e+00   5.131330500000001e+00  2.99903318e+00   6.92530740e-01  -1.91975326e+00
C     1.223248726820000e+01   4.736356510610524e+00   4.816379400000000e+00 -1.01876510e-01  -3.10374779e+00  -1.26410740e-01
C     3.613692958000000e+00   5.393383670005531e+00   4.469277600000001e+00 -1.23799663e+00   1.56824338e+00   8.17215270e-01
C     4.824393089600000e+00   4.669537045802429e+00   4.303757400000000e+00  1.50100657e+00   1.51638232e+00  -6.80537810e-01
C     6.132203818899999e+00   5.373489397999123e+00   3.960296100000000e+00 -3.43951301e+00  -5.05389830e-01   1.71533718e+00
C     7.284385491399999e+00   4.622358842120219e+00   4.201324200000000e+00  2.03887563e+00  -5.38641980e-01   1.37456910e+00
C     8.526624706400000e+00   5.329903812196163e+00   4.423266000000000e+00 -7.21039890e-01   1.94238301e+00  -7.61444800e-01
C     9.702684045100000e+00   4.698056913855105e+00   4.798944000000000e+00  4.27780240e-01  -3.88717397e+00   1.63910529e+00
C     1.094435695100000e+01   5.344083863779461e+00   4.843314000000000e+00  1.07889341e+00   3.46219347e+00  -1.72383168e+00
C     1.346052019520000e+01   6.894860729821064e+00   4.484465699999999e+00  6.95903700e-01  -3.91150134e+00   2.41248480e-01
C     4.859493062700000e+00   7.530866126265883e+00   4.462619400000000e+00  1.98754450e-01   9.72741350e-01  -1.74013877e+00
C     6.109410752700001e+00   6.803538830610923e+00   4.012845599999999e+00 -2.15343769e+00  -1.28550440e-01   1.75145330e+00
C     7.321255827500000e+00   7.464456533960826e+00   4.106758500000001e+00  1.09624537e+00   2.73503781e+00   9.81754130e-01
C     8.560718417200000e+00   6.780474024013290e+00   4.260831599999999e+00 -6.95594230e-01  -6.28466700e-01  -9.43203380e-01
C     9.768731600199999e+00   7.538395740317042e+00   4.257992400000000e+00  9.29510600e-02  -5.09894980e-01   1.31093759e+00
C     1.096371849070000e+01   6.800319282099543e+00   4.509605400000000e+00  4.43412540e-01  -1.25985185e+00   8.86968420e-01
C     1.220341047330000e+01   7.491728254851640e+00   4.597740300000000e+00 -6.69246250e-01   2.87605680e+00  -8.78875650e-01
