26
Lattice="8.88768389401873 1.33226762955019e-15 0 4.44384194700937 7.69696003302603 0 0 0 30 " PBC="1 1 1" Properties=species:S:1:pos:R:3:force:R:3 Energy="-208.73875247"
C     7.785185817661207e-01   8.767364715932054e-01   3.425098800000000e+00  6.96325240e-01   1.77977065e+00  -1.16267700e-02
C     3.213966603750053e+00   3.263853567441335e-01   3.555744900000000e+00 -1.37409509e+00  -6.48251060e-01  -2.40985960e-01
C     4.563079290287098e+00   7.160928339590740e-01   3.476949600000000e+00  5.48459100e-01  -8.76053320e-01   2.41774250e-01
C     1.005458355234723e+01   7.414842276446006e+00   3.381597600000000e+00 -2.57496330e-01   1.28018155e+00  -4.49876070e-01
C     6.956408889371763e+00   1.449709336818449e-01   3.272525700000000e+00  7.97281740e-01  -1.20240406e+00   4.28081100e-01
C     1.243319088078956e+01   6.794097459098563e+00   3.270954000000000e+00 -1.54498826e+00   2.14675336e+00   6.96481600e-02
C     4.895543196569190e+00   7.198553081426987e+00   3.364549200000000e+00 -1.85473100e-02   1.88177400e-01   1.11678000e-01
C     5.915487311147911e+00   6.231136491601943e+00   3.400772100000000e+00  1.31291044e+00  -1.40106050e-01  -8.38521710e-01
C     7.308652691658521e+00   6.627607287595245e+00   3.449937000000000e+00 -1.08269605e+00   1.05100976e+00   1.61497970e-01
C     8.321344145122760e+00   5.673574248839965e+00   3.348884100000000e+00  1.53853331e+00  -6.43598570e-01  -4.36436670e-01
C     9.736716603669146e+00   6.068945226214580e+00   3.315310200000000e+00 -1.63038708e+00  -2.17144947e+00   3.39809830e-01
C     1.074537615927184e+01   5.015088157681421e+00   3.309106500000000e+00 -2.44704692e+00   2.21397491e+00   2.50825250e-01
C     3.155461205949599e+00   5.447085889054794e+00   3.297915600000000e+00  3.15366888e+00  -3.48970060e-01  -1.32567650e-01
C     4.230091595017472e+00   4.489872697323919e+00   3.313530600000000e+00 -1.35282905e+00  -6.83361890e-01   1.30421730e-01
C     5.573581266133343e+00   4.854845608634453e+00   3.220280100000000e+00  2.36278240e-01   1.34058524e+00   1.41035101e+00
C     6.576811780088898e+00   3.888837947342901e+00   3.289526100000000e+00  1.89407289e+00  -3.93369160e-01  -8.95350570e-01
C     7.974201432322477e+00   4.298351165137436e+00   3.229490700000000e+00 -2.28737640e-01  -7.61597510e-01   8.41308220e-01
C     9.011725607805321e+00   3.296460122246823e+00   3.293751600000000e+00 -3.03530450e-01  -4.65683900e-02   1.34790450e-01
C     1.037811666283702e+01   3.682757538290073e+00   3.413371500000000e+00  4.87996520e-01  -1.59007773e+00  -5.20687310e-01
C     2.555011769101763e+00   2.690149337074041e+00   3.506733300000000e+00 -2.48609727e+00   1.72734100e-01   1.85763320e-01
C     3.888547412062238e+00   3.128592348837335e+00   3.480743100000000e+00  8.81432640e-01  -2.13226453e+00  -3.71585950e-01
C     4.908238805285803e+00   2.063052372553041e+00   3.470102100000000e+00 -1.20917550e-01   2.81640860e+00  -5.41509950e-01
C     6.257783744366228e+00   2.510320102929931e+00   3.302712000000000e+00 -2.67310210e-01  -8.32492710e-01   5.45292940e-01
C     7.276328981925379e+00   1.521809455355469e+00   3.282242700000000e+00  1.23089699e+00   1.75535070e-01  -2.51898930e-01
C     8.667417843968027e+00   1.912270772835748e+00   3.291210300000000e+00 -4.18704670e-01  -6.77598120e-01   3.98248210e-01
C     2.155850153498922e+00   1.300916554603308e+00   3.568161600000000e+00  7.55527880e-01  -1.69680100e-02  -5.58442910e-01
