32
Lattice="9.86 0 0 4.93 8.53901048131456 0 0 0 30 " PBC="1 1 1" Properties=species:S:1:pos:R:3:force:R:3 Energy="-255.76095809"
C     1.108448825700000e+00   7.112528645966745e-01   3.525489900000000e+00  1.15550780e-01  -9.53752140e-01  -2.68110630e-01
C     2.348402098300000e+00   1.374037195637506e+00   3.595844700000000e+00 -2.14699717e+00   4.48404709e+00   2.43381740e-01
C     3.556113861100000e+00   7.189321675015480e-01   3.710712000000000e+00 -4.41381190e-01  -2.49959320e-01   2.77515340e-01
C     4.758733870600000e+00   1.416269860620015e+00   3.725247600000000e+00  1.50490976e+00   2.63607596e+00  -2.30613550e-01
C     5.982117511799999e+00   7.624420976716544e-01   3.703239000000000e+00  3.33361697e+00  -7.98412720e-01   2.00297290e-01
C     7.277640807699999e+00   1.480191953782142e+00   3.623037300000000e+00 -1.32962350e+00   3.60646000e-01  -7.44616120e-01
C     8.522874504699999e+00   8.079522056565960e-01   3.438457500000000e+00 -2.46831232e+00  -1.44211370e+00   1.51327421e+00
C     9.752706437999999e+00   1.448798367142526e+00   3.506402700000000e+00  7.41857210e-01   7.47760320e-01  -7.54322460e-01
C     2.271159499200000e+00   2.919626868982824e+00   3.652741500000000e+00  2.80252564e+00  -2.44357890e+00  -3.76723000e-03
C     3.564827931900000e+00   3.581111989579124e+00   3.831970200000000e+00 -9.18287800e-01  -4.38117410e-01  -1.15724498e+00
C     4.829998943300000e+00   2.885332068142524e+00   3.708568200000000e+00 -2.98588872e+00  -1.05995405e+00   5.59301890e-01
C     5.989443787599999e+00   3.632619898525218e+00   3.650882100000000e+00  2.89774427e+00  -1.24234139e+00   6.64833510e-01
C     7.271702326899999e+00   2.887436592665425e+00   3.615624300000000e+00 -1.36265654e+00   1.03105197e+00  -3.20009340e-01
C     8.494374519799999e+00   3.604733198099634e+00   3.547730700000000e+00  1.04509736e+00  -1.86234989e+00   1.15178559e+00
C     9.742154611100000e+00   2.851745065880911e+00   3.507782700000000e+00 -9.78860030e-01   2.29030401e+00  -1.89291610e-01
C     1.092863670930000e+01   3.662606085457519e+00   3.523767000000000e+00  5.83705630e-01  -3.94427277e+00   1.17701076e+00
C     3.558051794800000e+00   4.991608710603715e+00   3.824972100000000e+00  2.34499761e+00   1.09239885e+00  -3.79017190e-01
C     4.829534635900000e+00   5.774286982261398e+00   3.727895100000000e+00 -2.52310975e+00  -1.15706145e+00  -7.00963300e-02
C     6.064569346100001e+00   5.047165476759006e+00   3.724150500000000e+00 -1.46521286e+00   1.13395210e-01  -5.07554260e-01
C     7.303999841500000e+00   5.706287767765385e+00   3.700940700000000e+00 -3.62618260e-01   1.01179495e+00   5.11858560e-01
C     8.523204321700000e+00   4.983138780718498e+00   3.801035700000000e+00  6.07314000e-03   2.10189451e+00  -1.87188573e+00
C     9.724717644800000e+00   5.775626496835395e+00   3.739699800000000e+00  6.30161670e-01  -1.33521393e+00   4.57606410e-01
C     1.095865192970000e+01   5.007306229739413e+00   3.731935200000000e+00 -6.47918900e-01   3.44795156e+00  -4.16742010e-01
C     1.221259023190000e+01   5.704921696868794e+00   3.781262100000000e+00 -7.01077440e-01  -5.81693100e-01   5.37100800e-02
C     4.712792334500000e+00   7.193013174636089e+00   3.552324300000000e+00  2.44842982e+00  -1.32204982e+00   3.20225110e-01
C     5.996281599000000e+00   7.808236668935103e+00   3.506741400000000e+00  4.52817730e-01   1.99896499e+00   4.71463130e-01
C     7.260863869800000e+00   7.152511025517458e+00   3.646663500000000e+00 -1.13416953e+00  -1.95165350e+00   2.91205270e-01
C     8.453806141399999e+00   7.849435686699006e+00   3.791515200000000e+00  1.33586182e+00   9.64755540e-01  -1.04846074e+00
C     9.711801488500001e+00   7.210477500430204e+00   3.747621300000000e+00  6.93970170e-01  -2.07755003e+00   9.99329410e-01
C     1.098258693180000e+01   7.880917652097090e+00   3.788759100000000e+00 -1.15685581e+00  -9.29258960e-01  -8.34531590e-01
C     1.220600858330000e+01   7.093814294428461e+00   3.728317500000000e+00 -8.09209340e-01   4.22152172e+00  -1.68652450e-01
C     1.337593406530000e+01   7.940608324005957e+00   3.555925500000000e+00  4.94859560e-01  -2.71322960e+00   7.21179000e-02
