32
Lattice="9.84 0 0 4.92 8.52168997323888 0 0 0 30 " PBC="1 1 1" Properties=species:S:1:pos:R:3:force:R:3 Energy="-258.0766649"
C    -1.000953614787229e-03   1.160273563174877e-03   2.999960295551940e+00  7.55946100e-02  -7.56112000e-02  -4.51591000e-03
C     1.229366605845685e+00   7.102173957245655e-01   2.999472438819244e+00  6.32750400e-02  -1.28864000e-03   4.26128000e-03
C     2.460892070727547e+00  -1.128893622486251e-03   2.999036535425519e+00 -7.14548100e-02   4.42018900e-02   8.70322000e-03
C     3.690657213711754e+00   7.090373457270940e-01   3.000678262685064e+00 -6.04122600e-02   8.01103600e-02  -1.22660000e-02
C     4.918792481798837e+00   2.910477991038117e-04   3.000784024958536e+00  1.26549570e-01   5.16561000e-03  -7.41287000e-03
C     6.150980520878535e+00   7.113354355943574e-01   2.999991992509194e+00 -7.69409500e-02  -6.39599900e-02  -1.18598000e-03
C     7.379636704557395e+00   9.030290864012280e-04   2.999746329094481e+00  3.37578000e-02  -6.74546700e-02   1.53361500e-02
C     8.610353396759177e+00   7.089611462536271e-01   3.000757887975754e+00 -5.09374900e-02   1.20378960e-01  -1.90036700e-02
C     1.229826848722967e+00   2.130566517755077e+00   3.000686613773770e+00  1.25023900e-02   1.63764800e-02  -6.13701000e-03
C     2.459760290523938e+00   2.841566991911019e+00   3.000368925243027e+00  2.43530600e-02  -5.56929400e-02   2.90290000e-04
C     3.690559089678791e+00   2.131110213468081e+00   2.999632789521282e+00 -7.49063100e-02  -6.16706800e-02   8.46995000e-03
C     4.918818363403938e+00   2.840215378494001e+00   2.999515934610318e+00  1.03866750e-01  -7.00220000e-04   4.06403000e-03
C     6.151030892500766e+00   2.129815849757332e+00   2.999363240737214e+00 -3.94196800e-02   8.82072800e-02   5.75453000e-03
C     7.381008410942309e+00   2.841244290175129e+00   2.999827224057348e+00 -1.68820200e-02  -5.47684900e-02  -9.93911000e-03
C     8.611037604280085e+00   2.130933434519370e+00   2.998946552779349e+00 -5.07602300e-02  -5.04505100e-02   2.01543000e-02
C     9.839562319531419e+00   2.841412318536593e+00   3.000333804654814e+00  3.65744800e-02  -6.23567900e-02   1.33490000e-03
C     2.460283844968829e+00   4.261603440047632e+00   3.000335637699146e+00 -3.09028700e-02  -3.59618600e-02  -8.29365000e-03
C     3.689427853370449e+00   4.970704282044426e+00   2.999618596087846e+00  5.66513300e-02   6.39527500e-02   7.74130000e-03
C     4.919262811179287e+00   4.260255157046403e+00   3.000424849451583e+00  3.92254300e-02   2.83416400e-02  -6.86686000e-03
C     6.150856979832127e+00   4.970254644373481e+00   3.000666988586016e+00 -6.38627500e-02   2.79750300e-02  -1.04541900e-02
C     7.380814504242893e+00   4.260941558999347e+00   2.999686259407659e+00 -4.67935000e-02  -1.55391800e-02   6.05340000e-03
C     8.609269827189271e+00   4.970218114841802e+00   2.999566315434824e+00  5.64972600e-02   7.10567400e-02   5.81493000e-03
C     9.838947930257152e+00   4.260090309226825e+00   3.001030202025757e+00  5.88314600e-02   5.95400900e-02  -1.86865500e-02
C     1.107027945027803e+01   4.969847499434459e+00   2.999444405265825e+00 -5.68895700e-02   1.02234130e-01   1.28278300e-02
C     3.690549319132535e+00   6.392335274860218e+00   2.999749628784707e+00 -8.43850000e-04  -6.18381600e-02   2.07884000e-03
C     4.920533924388131e+00   7.102184355189936e+00   2.998844880029714e+00  1.23084000e-03  -1.70435000e-02   1.16728800e-02
C     6.150803624724915e+00   6.391213423136918e+00   2.999460591692771e+00 -4.99898000e-02  -3.27949900e-02  -4.76320000e-04
C     7.380231594900968e+00   7.100333726757217e+00   2.999181060124056e+00  2.09822000e-02   4.45758000e-02  -1.43602000e-03
C     8.610083358716594e+00   6.391472051973532e+00   2.999324220897664e+00  2.96678500e-02  -4.43310900e-02   6.05690000e-04
C     9.840605508973074e+00   7.102061306159441e+00   2.999640223244825e+00 -4.48546100e-02  -1.51551900e-02   3.56527000e-03
C     1.107023335410347e+01   6.392446161447175e+00   2.999483567032958e+00  3.96601000e-03  -1.10812420e-01   7.20031000e-03
C     1.230030784378317e+01   7.100962790970673e+00   3.001041889502737e+00 -7.67536000e-03   7.53137500e-02  -1.92549900e-02
