26
Lattice="8.88768389401873 1.33226762955019e-15 0 4.44384194700937 7.69696003302603 0 0 0 30 " PBC="1 1 1" Properties=species:S:1:pos:R:3:force:R:3 Energy="-209.6648659"
C     0.000000000000000e+00   0.000000000000000e+00   0.000000000000000e+00  0.00000000e+00  -0.00000000e+00   0.00000000e+00
C     9.571351869318558e+00   7.499602046961969e+00   0.000000000000000e+00 -0.00000000e+00   0.00000000e+00   0.00000000e+00
C     1.093868786239409e+01   7.104886157855507e+00   0.000000000000000e+00 -0.00000000e+00   0.00000000e+00  -0.00000000e+00
C     1.128052187093924e+01   5.723380507498092e+00   0.000000000000000e+00 -0.00000000e+00  -0.00000000e+00   0.00000000e+00
C     7.178513936151066e+00   6.907528251787077e+00   0.000000000000000e+00 -0.00000000e+00   0.00000000e+00   0.00000000e+00
C     8.545849929226598e+00   6.512812362680615e+00   0.000000000000000e+00  0.00000000e+00   0.00000000e+00   0.00000000e+00
C     8.887683937771754e+00   5.131306712323200e+00   0.000000000000000e+00 -0.00000000e+00  -0.00000000e+00   0.00000000e+00
C     1.025501993084729e+01   4.736590823216739e+00   0.000000000000000e+00 -0.00000000e+00   0.00000000e+00  -0.00000000e+00
C     1.059685385051560e+01   3.355085172859323e+00   0.000000000000000e+00  0.00000000e+00  -0.00000000e+00   0.00000000e+00
C     4.785675958545156e+00   6.315454379642585e+00   0.000000000000000e+00  0.00000000e+00  -0.00000000e+00   0.00000000e+00
C     6.153011951620687e+00   5.920738490536122e+00   0.000000000000000e+00  0.00000000e+00   0.00000000e+00   0.00000000e+00
C     6.494845960165843e+00   4.539232840178707e+00   0.000000000000000e+00 -0.00000000e+00  -0.00000000e+00  -0.00000000e+00
C     7.862181953241375e+00   4.144516951072246e+00   0.000000000000000e+00  0.00000000e+00   0.00000000e+00   0.00000000e+00
C     8.204015872909691e+00   2.763011300714830e+00   0.000000000000000e+00  0.00000000e+00  -0.00000000e+00   0.00000000e+00
C     9.571351865985223e+00   2.368295411608369e+00   0.000000000000000e+00  0.00000000e+00   0.00000000e+00  -0.00000000e+00
C     3.760173974014777e+00   5.328664618391631e+00   0.000000000000000e+00  0.00000000e+00   0.00000000e+00   0.00000000e+00
C     4.102007982559932e+00   3.947158968034215e+00   0.000000000000000e+00 -0.00000000e+00  -0.00000000e+00  -0.00000000e+00
C     5.469343886758626e+00   3.552443078927753e+00   0.000000000000000e+00  0.00000000e+00   0.00000000e+00   0.00000000e+00
C     5.811177895303779e+00   2.170937428570338e+00   0.000000000000000e+00  0.00000000e+00  -0.00000000e+00  -0.00000000e+00
C     7.178513888379313e+00   1.776221539463877e+00   0.000000000000000e+00 -0.00000000e+00  -0.00000000e+00  -0.00000000e+00
C     7.520347896924467e+00   3.947158891064615e-01   0.000000000000000e+00  0.00000000e+00  -0.00000000e+00  -0.00000000e+00
C     3.076505909152714e+00   2.960369206783261e+00   0.000000000000000e+00  0.00000000e+00   0.00000000e+00  -0.00000000e+00
C     3.418339962136289e+00   1.578863633395446e+00   0.000000000000000e+00  0.00000000e+00  -0.00000000e+00  -0.00000000e+00
C     4.785675910773401e+00   1.184147667319384e+00   0.000000000000000e+00 -0.00000000e+00   0.00000000e+00  -0.00000000e+00
C     1.025501984530378e+00   9.867897612509539e-01   0.000000000000000e+00  0.00000000e+00  -0.00000000e+00   0.00000000e+00
C     2.392837977605911e+00   5.920738721444924e-01   0.000000000000000e+00 -0.00000000e+00  -0.00000000e+00  -0.00000000e+00
