26
Lattice="8.88768389401873 1.33226762955019e-15 0 4.44384194700937 7.69696003302603 0 0 0 30 " PBC="1 1 1" Properties=species:S:1:pos:R:3:force:R:3 Energy="-208.25994159"
C     8.376418103886687e-01   1.107702614845429e+00   3.383466000000000e+00  1.20314381e+00  -1.36776697e+00  -2.49202600e-01
C     3.296307262279135e+00   5.041329480481300e-01   3.449978100000000e+00 -8.58887250e-01  -7.62607320e-01   5.54203710e-01
C     4.682789771068665e+00   8.819877995432732e-01   3.437749200000000e+00 -2.46194394e+00   1.42872652e+00  -5.50396560e-01
C     1.006194544320923e+01   7.574653103004891e+00   3.375656400000000e+00  2.31428144e+00   1.21206431e+00   6.48273890e-01
C     6.984188145355864e+00   2.902221136783821e-01   3.370769700000000e+00  1.26541862e+00   2.10715400e-02  -1.16746900e+00
C     1.250896047470723e+01   7.024566840550452e+00   3.301625100000000e+00 -2.08207706e+00   4.27860300e-02   4.63995730e-01
C     4.949370032148126e+00   7.396476867996824e+00   3.380553000000000e+00  6.62937840e-01   2.19236754e+00  -4.27968770e-01
C     5.961103393293865e+00   6.449898335030599e+00   3.367809000000000e+00  1.83751940e+00  -2.32809503e+00   1.58861520e-01
C     7.354644233974110e+00   6.790490509689305e+00   3.511585500000000e+00  1.74400660e-01   1.87118328e+00  -1.47524482e+00
C     8.407807977959985e+00   5.848082343606535e+00   3.380914200000000e+00 -2.52964126e+00  -1.30112500e+00   1.24429832e+00
C     9.725676722795033e+00   6.235615737491401e+00   3.428116500000000e+00  1.71229648e+00  -1.09350580e+00  -6.58427370e-01
C     1.077730600814025e+01   5.266956473469515e+00   3.376897800000000e+00  1.01456787e+00   6.30841180e-01   8.88604300e-02
C     3.299821011451781e+00   5.656067898099732e+00   3.293615700000000e+00 -1.99912108e+00  -8.55257960e-01  -2.31323590e-01
C     4.289818164016726e+00   4.652847667181538e+00   3.171333900000000e+00  8.19114000e-03  -1.52347005e+00   1.69220658e+00
C     5.657847441373335e+00   5.026651762552092e+00   3.231997500000000e+00  1.06561700e-02   1.45250715e+00   1.54688070e-01
C     6.707716609808926e+00   4.070234667397120e+00   3.274163700000000e+00 -1.65255186e+00  -2.36086400e-01   7.92295110e-01
C     8.036508451458904e+00   4.456016156209559e+00   3.392299800000000e+00  1.43968408e+00   6.07889940e-01  -1.42937386e+00
C     9.053885758491750e+00   3.488565776729983e+00   3.267054600000000e+00  3.85583440e-01  -9.97360360e-01   1.25632535e+00
C     1.043786354023548e+01   3.909653990896034e+00   3.411177600000000e+00 -1.38198512e+00  -1.37694952e+00  -3.70952720e-01
C     2.520553685536712e+00   2.901834980299116e+00   3.509736000000000e+00  2.77247552e+00  -1.98147210e+00  -1.27139292e+00
C     3.939559162587147e+00   3.236142741032528e+00   3.397042500000000e+00 -6.62178160e-01   1.68882042e+00  -8.18716310e-01
C     5.003492157576764e+00   2.287280750934203e+00   3.344816400000000e+00 -1.24237286e+00  -5.92728760e-01   1.04788466e+00
C     6.347553928933895e+00   2.697299351124309e+00   3.374005200000000e+00  3.83565090e-01  -4.68406910e-01  -1.81132926e+00
C     7.336904724676240e+00   1.676068464644716e+00   3.226230600000000e+00 -2.31857130e-01  -1.77249710e-01   1.61787271e+00
C     8.698629479035361e+00   2.062653746993087e+00   3.257463900000000e+00  9.64994160e-01   1.62615309e+00   1.07160270e-01
C     2.240275418268862e+00   1.454738761410852e+00   3.428147700000000e+00 -1.04709999e+00   2.28767088e+00   6.34871400e-01
