32
Lattice="9.86 0 0 4.93 8.53901048131456 0 0 0 30 " PBC="1 1 1" Properties=species:S:1:pos:R:3:force:R:3 Energy="-252.5481321"
C     9.838924003499999e+00   3.061869705558664e-01   3.954007800000000e+00  9.92321300e-01  -3.98893655e+00   1.17067457e+00
C     1.273740386700000e+00   9.394401585328760e-01   3.807593700000000e+00 -3.55473791e+00   2.46316393e+00   4.92577560e-01
C     2.429992168600000e+00   3.090607745329104e-01   4.251533100000000e+00  5.31349920e-01  -1.72180559e+00  -7.37873750e-01
C     3.673840634200000e+00   9.845070918739056e-01   4.199550900000000e+00 -1.49325345e+00   7.87280790e-01   7.63519980e-01
C     4.867513581100000e+00   2.985110832551848e-01   4.368331200000000e+00  1.99629135e+00  -2.70427123e+00  -1.06284775e+00
C     6.088557444299999e+00   9.818182428638584e-01   4.144892100000000e+00 -1.49446550e+00   3.12934287e+00   1.79322575e+00
C     7.303551310100000e+00   3.302611735823400e-01   4.079821800000000e+00  9.52863840e-01  -2.84930162e+00  -2.89745540e-01
C     8.587518045099999e+00   9.472752129889048e-01   3.961594800000000e+00  1.24967720e-01   4.04616000e-02  -9.57225100e-01
C     1.103910563500000e+01   2.402078297691072e+00   3.538084800000000e+00 -8.97850560e-01  -9.00215180e-01   7.62154710e-01
C     2.395371440800000e+00   3.090667689182673e+00   3.578396100000000e+00  1.43201156e+00   2.04390689e+00   9.66587030e-01
C     3.596236715400000e+00   2.392302326152939e+00   4.067943300000000e+00  8.74674300e-01   2.51459883e+00  -1.10860974e+00
C     4.810679160699999e+00   3.196036772973044e+00   4.285373100000000e+00  5.27274070e-01  -6.43854700e-01  -9.76992480e-01
C     6.043664322000000e+00   2.464392409789710e+00   4.311516900000000e+00  1.28690612e+00  -2.02958959e+00  -1.72995505e+00
C     7.333934308500000e+00   3.067042211156924e+00   4.102503900000000e+00 -3.61267940e-01   9.99698100e-01  -2.48267310e-01
C     8.593379420700000e+00   2.314932999286908e+00   3.783702000000000e+00 -2.88836661e+00   3.48714089e+00   1.70426618e+00
C     9.722938703599999e+00   3.123564056276664e+00   3.677394300000000e+00  3.50429027e+00  -6.04627680e-01  -5.44535670e-01
C     1.226758650180000e+01   4.594765200534308e+00   3.496343100000000e+00  2.13703726e+00  -4.65926690e-01   2.90481232e+00
C     3.663256170700000e+00   5.362878994356884e+00   4.091230800000000e+00 -1.38731760e+00  -2.56173399e+00  -1.60770166e+00
C     4.901788518700000e+00   4.642998228181114e+00   4.232288700000000e+00 -1.25128657e+00  -4.38428330e-01   1.46664651e+00
C     6.159783816499999e+00   5.321876544614229e+00   4.576887000000000e+00 -1.34169330e-01  -5.24405025e+00  -2.40120447e+00
C     7.353575231299999e+00   4.501316916934438e+00   4.219794900000000e+00  9.12461820e-01   1.11363919e+00   2.76878717e+00
C     8.639419211700000e+00   5.209892887135736e+00   4.363440000000000e+00 -2.52623466e+00   5.59037840e-01  -1.42923235e+00
C     9.794979610399999e+00   4.555612129681413e+00   3.910028400000000e+00  8.74513340e-01  -8.68388990e-01  -1.42221747e+00
C     1.102846758240000e+01   5.292134914942075e+00   3.604653300000000e+00 -4.74504560e-01  -1.06153609e+00   2.89587125e+00
C     1.350212653580000e+01   6.766982729015309e+00   4.300981200000000e+00 -2.08612325e+00  -1.57548157e+00  -2.33729680e+00
C     4.882367621800000e+00   7.351135240490642e+00   4.284820499999999e+00  2.44304334e+00   3.93844833e+00   1.10354743e+00
C     6.171792310499999e+00   6.669779500946962e+00   4.644894600000001e+00 -2.75066008e+00   3.50896709e+00  -1.89063786e+00
C     7.335698607599999e+00   7.437533973208539e+00   4.537383300000000e+00  2.23483657e+00  -1.10923162e+00   1.59612000e-03
C     8.583489544899999e+00   6.644697182343219e+00   4.500130800000000e+00  9.51944370e-01   1.26658586e+00  -4.00016960e-01
C     9.854323499400000e+00   7.346915773852054e+00   4.339405500000000e+00 -2.72159958e+00   1.26809314e+00   6.96641360e-01
C     1.104444507150000e+01   6.633548991820952e+00   4.124835300000000e+00  1.05006710e-01   1.17343990e+00  -2.06845421e+00
C     1.221602728000000e+01   7.428030566884928e+00   4.039611600000000e+00  2.14004376e+00   4.73574430e-01   1.72190623e+00
