26
Lattice="8.88768389401873 1.33226762955019e-15 0 4.44384194700937 7.69696003302603 0 0 0 30 " PBC="1 1 1" Properties=species:S:1:pos:R:3:force:R:3 Energy="-208.40163405"
C     1.261802768718893e+01   6.865522015453752e+00  -2.226044999999992e-01 -2.43550410e-01   3.41199660e-01   5.18911470e-01
C     8.899738704393139e+00   6.694718390580020e+00   3.676950000000000e-02 -2.64517590e+00   4.06579840e-01  -7.86122630e-01
C     1.021962037582687e+01   6.332353517206051e+00  -1.342259999999840e-02  1.15903387e+00  -3.75622727e+00   2.64199920e-01
C     1.058795394704390e+01   4.869308966226827e+00   1.326900000000000e-03 -7.75573420e-01   2.06245681e+00  -5.82011110e-01
C     6.462852565502434e+00   6.049684661313909e+00  -9.613620000000012e-02  9.50275720e-01   2.88905574e+00  -3.73438900e-02
C     7.860513336049598e+00   5.714928090841148e+00   9.930899999999999e-03 -7.22154470e-01  -9.98287550e-01  -5.20684700e-02
C     8.195719309894898e+00   4.332704852900135e+00  -9.453600000000506e-03 -8.11674040e-01  -8.58632900e-01  -2.70143270e-01
C     9.543861994075350e+00   3.896007126823644e+00   5.076600000000001e-03  4.55860330e-01   9.25219200e-02   1.44002540e-01
C     9.851512370575161e+00   2.481710425528820e+00  -2.838420000000141e-02  2.31678891e+00   2.81628760e+00  -5.74924870e-01
C     4.101878134477619e+00   5.454718194620542e+00  -3.059216999999990e-01 -1.69273665e+00   3.07311369e+00   9.21652150e-01
C     5.438512201288970e+00   5.112910054216296e+00  -2.224518000000018e-01  1.15966669e+00  -1.59860164e+00   1.33902590e-01
C     5.781711135885462e+00   3.728220864220873e+00  -1.766663999999984e-01  4.03949590e-01  -4.18017800e-02  -5.48260030e-01
C     7.141208947212593e+00   3.317258462791888e+00  -1.393133999999989e-01  8.87515560e-01   2.31659794e+00   7.15348550e-01
C     7.500238491070331e+00   1.981269247389480e+00  -1.181264999999989e-01 -5.97961420e-01  -1.99499244e+00  -4.38309590e-01
C     8.879099099383790e+00   1.549887888575309e+00  -1.207515000000008e-01 -3.21993137e+00  -3.82816490e-01   6.48434820e-01
C     3.057947270807075e+00   4.523754330527979e+00  -1.876850999999995e-01 -3.91434120e-01  -1.94901059e+00  -3.88203870e-01
C     3.388432729095351e+00   3.122242510751786e+00  -2.797541999999993e-01 -1.22982943e+00  -2.59185580e-01   1.13137586e+00
C     4.768890454248496e+00   2.759601932269542e+00  -2.544782999999988e-01 -1.51518406e+00  -8.45145030e-01  -1.39057660e-01
C     5.059521804882809e+00   1.369105308961883e+00  -2.171456999999997e-01  1.14619621e+00  -3.98947460e-01   3.49574980e-01
C     6.442716492287532e+00   1.002849160475148e+00  -1.485813000000000e-01  4.88869620e-01  -1.38864185e+00   5.41129300e-02
C     1.122042042054120e+01   7.265570204529797e+00  -1.039287000000009e-01  2.21665730e+00   2.09952097e+00  -6.02382580e-01
C     2.320944259325927e+00   2.103712487546719e+00  -1.368366000000023e-01  2.31138589e+00   1.01024209e+00  -8.44692800e-02
C     2.701760493740553e+00   7.190682477978712e-01  -9.054360000000017e-02  2.64186000e-02   1.78917687e+00  -5.55276340e-01
C     4.053009467920454e+00   3.462193451670393e-01  -1.453278000000005e-01  1.35346217e+00   9.33644710e-01   6.49353550e-01
C     2.957794981224643e-01   2.001392025752711e-01  -1.224825000000003e-01  8.84309320e-01  -2.71490439e+00  -6.52409450e-01
C     6.135751626139808e+00   7.487369422325490e+00  -1.012301999999998e-01 -1.91518447e+00  -2.64320286e+00   1.80113650e-01
