32
Lattice="9.86 0 0 4.93 8.53901048131456 0 0 0 30 " PBC="1 1 1" Properties=species:S:1:pos:R:3:force:R:3 Energy="-257.49236921"
C     5.005309053100000e+00   6.898221086615258e+00   8.778299999999999e-03 -2.11555400e-02  -1.72194810e-01  -8.34026100e-02
C     6.246732106599999e+00   7.584843004702162e+00   8.261189999999999e-02 -2.01219960e-01   4.55757670e-01  -5.36558200e-02
C     7.479612604000000e+00   6.863509752843744e+00   1.043208000000000e-01 -1.69513209e+00  -4.23602820e-01  -1.95355150e-01
C     8.665218838399998e+00   7.567864207043940e+00   6.411960000000000e-02  1.33838846e+00   1.69667593e+00  -8.97273000e-03
C     9.883240463700000e+00   6.883985189903422e+00   8.790000000000000e-04  1.84013251e+00  -1.27203960e-01  -4.80718800e-02
C     1.113430156860000e+01   7.588383449227381e+00  -3.690780000000160e-02  1.96879740e-01  -3.53546100e-02   1.73787730e-01
C     1.237919125020000e+01   6.856186355895677e+00  -7.449120000000065e-02 -2.83879300e-01   8.82507040e-01  -2.07840270e-01
C     1.360404003810000e+01   7.600365474123022e+00  -9.024359999999731e-02  7.14361440e-01  -1.57002432e+00   5.68044910e-01
C     1.331628989000000e+00   4.818604601114304e-01   1.104060000000000e-01 -1.00292852e+00  -1.14887666e+00   3.95069900e-02
C     2.541502458200000e+00   1.176604941137226e+00   1.514256000000000e-01  1.32499820e-01   6.25548510e-01  -5.27893670e-01
C     3.773950002999999e+00   4.747419994148832e-01   6.977040000000001e-02 -1.08936377e+00  -3.88613040e-01   3.47733350e-01
C     4.959936932000000e+00   1.215344040762051e+00   5.020530000000000e-02  1.90896312e+00  -1.07130544e+00   5.08488100e-01
C     6.220628200299999e+00   4.782150711474136e-01   4.811730000000000e-02 -5.56957810e-01  -6.10636300e-02  -6.38797540e-01
C     7.456464528500000e+00   1.165116129486910e+00   3.574230000000000e-02  2.60850430e-01   1.29342771e+00   2.09142400e-01
C     8.697450438899999e+00   4.490094351630888e-01  -3.296010000000038e-02  2.84319600e-02   1.67555910e+00   5.74317480e-01
C     9.953064595999999e+00   1.176338865570669e+00   8.487390000000000e-02 -8.80298220e-01  -5.38389490e-01  -5.94170620e-01
C     2.499661844000000e+00   2.598108873621061e+00   1.081476000000000e-01  1.18926066e+00   6.30431560e-01  -4.99012500e-02
C     3.744784813200000e+00   3.313956835927338e+00   8.595990000000001e-02  3.59051800e-02   7.63117530e-01   2.15583620e-01
C     4.983511206000000e+00   2.628445416153357e+00   1.165413000000000e-01 -3.92275980e-01  -6.51284040e-01  -6.37241640e-01
C     6.224515061600000e+00   3.310358667691276e+00   6.398400000000000e-02 -4.05561540e-01   7.34544210e-01   6.64347700e-01
C     7.445864929900000e+00   2.630411010975748e+00   1.232328000000000e-01  1.21715477e+00  -1.70761186e+00  -6.65734960e-01
C     8.702436246500000e+00   3.322791723120470e+00   1.056132000000000e-01 -3.78384370e-01  -1.13632390e-01  -6.78956100e-02
C     9.929628756400000e+00   2.586185682507627e+00   5.975430000000000e-02 -3.50042620e-01   9.29084650e-01   4.81101140e-01
C     1.114566551440000e+01   3.331321767639466e+00   5.906760000000000e-02 -1.47275750e-01  -8.36355690e-01   7.95525600e-02
C     3.766471045099999e+00   4.747342374543568e+00   4.726170000000000e-02  8.09570660e-01  -1.25156310e-01  -4.03702120e-01
C     5.037320824900000e+00   5.481465185518723e+00   5.093550000000000e-02 -1.82074557e+00  -1.07636967e+00  -2.22677370e-01
C     6.234338086599999e+00   4.728212685535540e+00   6.182970000000000e-02  7.91477690e-01   8.43705130e-01   1.96541730e-01
C     7.487015196200000e+00   5.437608229962708e+00   8.447940000000000e-02 -8.08037380e-01   2.41146260e-01   1.91328410e-01
C     8.717113497400000e+00   4.758135086059555e+00   1.106835000000000e-01  7.92185300e-02  -1.07284196e+00  -5.02342670e-01
C     9.944334897099999e+00   5.472189258434298e+00   1.480170000000000e-02 -1.06734129e+00  -2.83599350e-01   2.77624690e-01
C     1.114560191740000e+01   4.746096618304642e+00   5.408700000000000e-03  1.03629742e+00  -6.04785600e-02  -1.89820330e-01
C     1.239938891790000e+01   5.431786418007549e+00  -5.950890000000086e-02 -4.78792660e-01   6.92453320e-01   5.70375450e-01
