32
Lattice="9.86 0 0 4.93 8.53901048131456 0 0 0 30 " PBC="1 1 1" Properties=species:S:1:pos:R:3:force:R:3 Energy="-256.65483301"
C     5.159328218400000e+00   6.638553962033594e+00  -2.834508000000007e-01 -1.28695190e+00   4.97076370e-01   6.96402700e-01
C     6.384678190099999e+00   7.371582157255316e+00  -2.360384999999994e-01 -5.76448380e-01  -9.67873700e-01  -2.07238765e+00
C     7.588275966499999e+00   6.676700027380583e+00  -4.493819999999999e-01  1.68266580e+00  -4.12860530e-01   7.83219040e-01
C     8.856571365399999e+00   7.410138095105345e+00  -4.197161999999999e-01 -1.33092993e+00  -4.22162500e-02   3.27703120e-01
C     1.007943055320000e+01   6.675652546965002e+00  -2.626266000000008e-01 -1.34994447e+00   9.40776850e-01  -3.30133400e-01
C     1.126783145670000e+01   7.399414720354456e+00  -1.142871000000021e-01  1.68081402e+00  -7.19050400e-01  -8.24913210e-01
C     1.253018093050000e+01   6.724216034317381e+00  -2.063583000000015e-01 -8.13829480e-01  -2.66141840e+00   9.05182370e-01
C     1.376433110010000e+01   7.354844672033258e+00  -2.228025000000002e-01  1.14439906e+00   2.27554440e-01  -4.56774980e-01
C     1.449244048300000e+00   2.178177757796040e-01  -4.078841999999980e-01 -1.70946941e+00   1.67606497e+00   1.02861194e+00
C     2.643431785800000e+00   9.551438257561200e-01  -3.795363000000016e-01  5.59877720e-01   1.30859230e+00  -1.10742137e+00
C     3.884307954400000e+00   3.308788002103584e-01  -4.252686000000026e-01  2.16631805e+00  -3.06433205e+00   5.93592780e-01
C     5.176249358800000e+00   9.831495599877952e-01  -3.735435000000003e-01 -2.58580565e+00   9.83400320e-01   3.23223160e-01
C     6.363073500400000e+00   2.524295446889216e-01  -1.691580000000030e-01 -3.98649600e-02   1.14730364e+00  -1.20725315e+00
C     7.598137741300000e+00   9.365748081762072e-01  -3.284273999999989e-01  6.18688270e-01   5.17466410e-01   5.23932930e-01
C     8.824438660700000e+00   2.095839495341592e-01  -3.256934999999999e-01  6.14539210e-01   1.73557242e+00   1.73993200e-02
C     1.004966449500000e+01   9.460023026966512e-01  -4.184355000000011e-01  5.50430690e-01  -2.90635750e-01   1.14105100e-01
C     2.656524337500000e+00   2.376075900708110e+00  -4.193522999999999e-01 -8.63572210e-01   1.00099874e+00   8.48066140e-01
C     3.876552374199999e+00   3.125155557049926e+00  -3.653183999999996e-01 -1.17860400e-01  -2.00070285e+00   1.68406080e-01
C     5.116682929600000e+00   2.413527061382237e+00  -4.238597999999989e-01  1.71679042e+00  -1.89361970e-01   4.25694200e-01
C     6.385082351499999e+00   3.107329433381774e+00  -4.013451000000003e-01 -5.25511160e-01  -4.74060260e-01   1.52907500e-02
C     7.636237520800000e+00   2.362509035467381e+00  -4.047207000000022e-01 -7.53209680e-01   1.50144185e+00   2.26106480e-01
C     8.873340464600000e+00   3.137584086803566e+00  -3.795411000000009e-01 -2.05804117e+00  -1.18313976e+00  -8.02187470e-01
C     1.005824096950000e+01   2.384843244328345e+00  -4.321637999999979e-01  8.84595600e-02  -3.29880390e-01   6.70643450e-01
C     1.126599641210000e+01   3.094001233483961e+00  -3.330510000000011e-01  1.84410525e+00   3.95084860e-01  -5.43466380e-01
C     3.865680343800000e+00   4.499430564129301e+00  -1.623783000000003e-01  1.32132570e+00   2.26994906e+00  -1.60365505e+00
C     5.114606857300000e+00   5.229843602001418e+00  -3.076808999999976e-01  1.43685800e-02  -4.25745010e-01   7.16222270e-01
C     6.342172568199999e+00   4.535995290125499e+00  -3.873633000000005e-01  9.07645990e-01  -8.29401120e-01  -3.96864950e-01
C     7.577186473799999e+00   5.233045133200684e+00  -4.886486999999988e-01 -1.66974400e-02   1.43405028e+00   6.67747230e-01
C     8.818024188399999e+00   4.568215367589474e+00  -4.302293999999982e-01  7.43216130e-01  -9.50812680e-01   1.24936690e-01
C     1.005161426070000e+01   5.278211631403911e+00  -3.197486999999981e-01  7.63069460e-01  -1.43056702e+00   2.32563900e-02
C     1.129597160090000e+01   4.525721408886278e+00  -2.563409999999990e-01 -3.89338300e-01   1.00055846e+00  -7.82667100e-02
C     1.254808018290000e+01   5.272196752421799e+00  -1.968116999999978e-01 -1.99923940e+00  -6.63832840e-01   2.23582190e-01
