32
Lattice="9.86 0 0 4.93 8.53901048131456 0 0 0 30 " PBC="1 1 1" Properties=species:S:1:pos:R:3:force:R:3 Energy="-256.79531672"
C     9.806096908299999e+00   5.723779845343561e-01   4.092900000000000e-02  1.33843240e+00   1.70103280e-01  -6.61227150e-01
C     1.204294927700000e+00   1.307005451028878e+00  -3.067680000000195e-02 -1.15759329e+00   2.72857610e-01   1.09948010e-01
C     2.441574020400000e+00   6.045241995576783e-01  -1.053900000000141e-02 -2.15271440e-01   3.60090200e-02  -6.30993890e-01
C     3.685220257400000e+00   1.303096889761867e+00  -1.681955999999971e-01 -8.60057390e-01  -9.78242680e-01   8.45429330e-01
C     4.890513904499999e+00   5.919816740141304e-01  -4.398690000000016e-02  1.45551810e+00  -1.65984030e-01  -7.48293400e-02
C     6.152520743299999e+00   1.340280608627761e+00   6.114810000000000e-02 -1.61257636e+00  -1.23532159e+00  -1.34122391e+00
C     7.360427043900000e+00   5.851805229470201e-01  -4.214939999999956e-02 -3.26375100e-01   1.12008450e-01   2.45404520e-01
C     8.597247548000000e+00   1.313789780245342e+00  -3.094979999999836e-02 -1.36307430e-01  -8.91327720e-01   5.50917030e-01
C     1.101986862710000e+01   2.756235379761063e+00  -1.599287999999994e-01  2.05842639e+00  -1.59778615e+00  -6.74271410e-01
C     2.430323957600000e+00   3.428552576711662e+00  -3.511032000000007e-01 -1.19059046e+00  -1.20104617e+00   1.14815652e+00
C     3.670251939300000e+00   2.686609825329029e+00  -2.704322999999995e-01 -7.68890410e-01   2.30823707e+00   1.35729430e-01
C     4.856686561600000e+00   3.453016158616024e+00  -1.373657999999978e-01  1.38137878e+00  -1.33016869e+00   4.16481760e-01
C     6.097343345200000e+00   2.768981816874874e+00   2.867400000000000e-03  1.53277369e+00  -8.38767990e-01   1.46133070e-01
C     7.374918335199999e+00   3.452430553277306e+00   2.325300000000000e-02 -1.23676034e+00   6.95704530e-01   1.27796370e-01
C     8.610659415799999e+00   2.738988713344083e+00  -6.449999999986744e-04 -1.06104059e+00   2.49315990e-01  -3.62724940e-01
C     9.817864670399999e+00   3.472709849266258e+00  -1.436838000000016e-01  5.50054300e-02  -6.23118380e-01   4.55201390e-01
C     1.225119711120000e+01   4.831299035654292e+00  -2.980248000000003e-01  2.44065998e+00  -7.70119300e-02  -4.16680750e-01
C     3.664197110500000e+00   5.493165508458628e+00  -1.885559999999984e-01 -1.70138787e+00   2.91686154e+00  -1.23259600e-01
C     4.874629099400000e+00   4.848728863846067e+00  -5.015369999999919e-02  2.28774670e-01  -1.33338400e-02  -7.12964940e-01
C     6.080651400499999e+00   5.594282250420063e+00   4.051799999999999e-03  1.88389437e+00  -1.08625089e+00   1.46021040e-01
C     7.336015310799999e+00   4.901908796434249e+00   3.661170000000000e-02  2.10290480e-01  -1.58436080e+00  -4.97429730e-01
C     8.567449444799999e+00   5.585786874283616e+00  -5.861249999999885e-02  1.34327323e+00  -5.72435060e-01  -9.69858000e-02
C     9.854425846200000e+00   4.878384847243106e+00  -1.870380000000011e-01 -2.70678295e+00   2.09186600e-02   1.72880400e-02
C     1.106331425210000e+01   5.556043024468736e+00  -3.069582000000004e-01 -7.06141820e-01   9.12460120e-01   6.32283800e-01
C     1.353038159830000e+01   6.939687375407186e+00  -1.591676999999976e-01 -1.09236136e+00   5.56091800e-01   5.02054370e-01
C     4.906931445400000e+00   7.667228914835089e+00   4.727100000000000e-03 -1.14573487e+00   9.36693040e-01  -6.00591230e-01
C     6.159725297400000e+00   6.991782255933676e+00  -1.737539999999882e-02 -1.64978276e+00   6.61361170e-01   7.81429800e-01
C     7.366626913299999e+00   7.724090783352143e+00   4.567080000000000e-02  3.86250670e-01  -4.74371700e-01  -4.54907700e-01
C     8.586846086100000e+00   6.982117547702097e+00  -3.332580000000007e-02 -4.00455890e-01   1.15464585e+00  -6.23471600e-02
C     9.804322847799998e+00   7.688692059236989e+00  -1.000082999999989e-01  6.63836160e-01   8.37166400e-01   1.73292540e-01
C     1.103565907200000e+01   6.981299595888218e+00  -2.071578000000009e-01 -6.30914090e-01  -3.11627650e-01   3.06751700e-02
C     1.222740281130000e+01   7.672674668768710e+00  -1.631736000000004e-01  3.62051007e+00   1.14072074e+00   2.46195370e-01
