32
Lattice="9.86 0 0 4.93 8.53901048131456 0 0 0 30 " PBC="1 1 1" Properties=species:S:1:pos:R:3:force:R:3 Energy="-254.64580231"
C     5.067263081300000e+00   8.524475290970839e+00  -3.354149999999834e-02  7.72229320e-01   2.98947696e+00  -4.75668000e-01
C     1.413870558800000e+00   7.331271623531855e-01  -7.629419999999953e-02 -2.02394541e+00  -4.05205250e-01  -2.31518310e-01
C     2.628123100500000e+00   8.045908241811441e-02   9.005070000000000e-02  5.01198870e-01  -4.09661586e+00   4.31530910e-01
C     3.844652661300000e+00   7.220608609414201e-01   5.355510000000000e-02  1.54979304e+00   1.71318729e+00  -1.96991773e+00
C     1.004849337350000e+01   8.533739775781219e+00  -5.830409999999731e-02 -1.94920318e+00   1.41595368e+00   1.50170511e+00
C     6.301228671700000e+00   7.615262887976744e-01   3.060060000000000e-02  1.18569949e+00  -2.82067353e+00  -1.38253649e+00
C     1.244973373280000e+01   8.471004946636231e+00  -1.184855999999996e-01  5.05099590e-01   4.43819453e+00  -1.15994780e-01
C     8.771526745499999e+00   7.348722799249833e-01  -1.385094000000002e-01 -4.77496460e-01  -1.24045377e+00   6.66184110e-01
C     1.398319465400000e+00   2.110477067106408e+00  -4.256591999999983e-01 -2.97405595e+00   2.80717580e-01   1.29302008e+00
C     2.560880119000000e+00   2.813343513340360e+00  -5.874933000000020e-01  3.73102570e+00   4.20069020e-01  -2.71020000e-03
C     3.847736129799999e+00   2.138504319644493e+00  -3.336638999999977e-01 -1.24377522e+00  -9.52375120e-01   8.95055290e-01
C     5.058864530500000e+00   2.852373537052239e+00  -2.553665999999986e-01  1.97396440e-01   2.70320430e-01   1.78770460e-01
C     6.305199934600000e+00   2.170652157079807e+00  -7.446600000001524e-03 -2.29852197e+00  -1.44737815e+00  -4.05948180e-01
C     7.486701697499999e+00   2.835929452230275e+00  -3.987240000000014e-02  2.94315821e+00   1.08184141e+00  -1.63308520e-01
C     8.753694935499999e+00   2.188443270804991e+00  -1.538262000000010e-01  3.98686220e-01  -2.24938451e+00   6.30627310e-01
C     1.000146284970000e+01   2.878193455381244e+00  -2.923515000000023e-01 -4.25505400e-01  -1.33482867e+00  -1.71801459e+00
C     2.586520161600000e+00   4.226709768836756e+00  -8.138658000000021e-01  8.77043270e-01   5.59524850e-01   9.45278020e-01
C     3.817245558800000e+00   4.980992158873931e+00  -5.985554999999998e-01  9.63606120e-01   3.38837590e-01  -1.13602400e-02
C     5.031961914899999e+00   4.260248867249575e+00  -3.514304999999993e-01  2.06136579e+00   1.42151128e+00   3.09161050e-01
C     6.356310871500000e+00   4.992577973683300e+00  -1.067127000000028e-01 -3.08513688e+00  -1.02353100e-02  -1.51480030e-01
C     7.536437065800000e+00   4.229799353608628e+00  -5.141699999999361e-03  6.94060990e-01   1.99151630e+00  -6.79851520e-01
C     8.811582502500000e+00   4.947823824296153e+00  -1.205366999999988e-01 -2.36512344e+00   5.85783400e-01   3.13603630e-01
C     9.942480231099999e+00   4.276284445810177e+00  -5.333097000000002e-01  3.03187926e+00  -1.09092784e+00   9.03710790e-01
C     1.123162055740000e+01   4.929608321750113e+00  -7.698722999999994e-01 -2.05801062e+00   1.40513682e+00   8.99351700e-01
C     3.886276256900000e+00   6.445382844543043e+00  -4.698650999999998e-01 -1.24037866e+00  -1.37065436e+00   7.43832700e-01
C     5.083205764600000e+00   7.141534810666256e+00  -6.271830000000023e-02 -1.23725750e-01  -1.73641416e+00  -1.39404196e+00
C     6.330054973299999e+00   6.438790728452482e+00  -1.887839999999841e-02  1.17032616e+00  -1.25279373e+00   7.48255040e-01
C     7.609469444900000e+00   7.091252591284462e+00   1.829508000000000e-01 -2.83199800e+00   2.04057976e+00  -5.38893230e-01
C     8.795096286700000e+00   6.353845676878700e+00   1.011297000000000e-01  1.07773484e+00   1.48973953e+00  -1.30120283e+00
C     1.000359418730000e+01   7.139593466633627e+00  -1.095983999999994e-01  1.53019982e+00  -3.57902154e+00  -1.12979049e+00
C     1.121451656330000e+01   6.332905803039015e+00  -5.466294000000005e-01  3.69585380e-01   3.02876841e+00   1.24640424e+00
C     1.246986676820000e+01   7.120055954485073e+00  -4.393541999999968e-01 -4.63211570e-01  -1.88419703e+00  -3.42533400e-02
