26
Lattice="8.88768389401873 1.33226762955019e-15 0 4.44384194700937 7.69696003302603 0 0 0 30 " PBC="1 1 1" Properties=species:S:1:pos:R:3:force:R:3 Energy="-206.96402098"
C     7.262728653711270e-01   1.017341304698033e+00   3.380347500000000e+00  2.45973121e+00  -5.22613977e+00   3.88531990e-01
C     3.151057444172674e+00   3.882295069499799e-01   3.361650900000000e+00 -3.18014715e+00  -4.48648284e+00  -7.78970020e-01
C     4.442163150859323e+00   7.224449811326323e-01   3.295158000000000e+00  3.73827295e+00  -4.61896270e-01   7.77426760e-01
C     9.911268938593350e+00   7.394950714762075e+00   3.324607200000000e+00 -4.50547500e-02   1.83359627e+00  -1.10738430e-01
C     6.807703139866469e+00   9.583854387434439e-02   3.385325100000000e+00  2.42550598e+00   1.44801984e+00   5.97232160e-01
C     1.235524549319648e+01   6.898779579138578e+00   3.461757000000000e+00  7.33077070e-01  -1.13062057e+00  -7.02300650e-01
C     4.894783477414459e+00   7.297360034906502e+00   3.430908600000000e+00 -4.23716019e+00   1.37163629e+00   5.01414580e-01
C     5.859051273968875e+00   6.337868927854749e+00   3.497886300000000e+00 -8.05350070e-01  -4.32154850e+00  -6.95741190e-01
C     7.170029619620102e+00   6.639195522738012e+00   3.288140700000000e+00  3.48698850e+00   1.45821269e+00   1.40335971e+00
C     8.169729767751434e+00   5.627871547452233e+00   3.348281100000000e+00  2.57424320e+00  -3.45238200e-02  -1.03709915e+00
C     9.611814204688518e+00   6.055389725057745e+00   3.310540800000000e+00 -2.49796378e+00  -1.79458080e+00  -2.02383700e-01
C     1.064268346025285e+01   5.091432687857385e+00   3.272874300000000e+00  5.96911830e-01  -6.09142000e-03   1.00647815e+00
C     1.205378498675998e+01   5.510917856157989e+00   3.393990300000000e+00 -1.62885438e+00  -6.05611820e-01   1.90288820e-01
C     4.162453743197247e+00   4.506810627565937e+00   3.502730400000000e+00 -2.57839160e-01  -1.80039630e+00  -1.32305916e+00
C     5.532107511394301e+00   4.848334596205875e+00   3.531314100000000e+00  3.66882390e-01   2.45994044e+00  -1.06570880e-01
C     6.593396642617300e+00   3.897255804649311e+00   3.464597400000000e+00 -4.22358614e+00  -2.76365120e+00  -1.31034430e-01
C     7.897873603056112e+00   4.185557680739408e+00   3.326057400000000e+00  1.69041120e+00   4.43412683e+00   1.19833166e+00
C     8.930913719876173e+00   3.263441087353327e+00   3.446328300000000e+00 -1.00130535e+00  -1.96680660e-01  -1.15960113e+00
C     1.025067887430117e+01   3.712428164661719e+00   3.356112600000000e+00  9.30168550e-01   2.02467850e-01  -3.39681740e-01
C     2.359623771099437e+00   2.743012058560081e+00   3.306338100000000e+00  3.23900153e+00  -2.18905469e+00   5.17733340e-01
C     3.750239586146774e+00   3.102277058251568e+00   3.294804000000000e+00  1.72308505e+00   1.08377600e-01   1.69903376e+00
C     4.822122347677757e+00   2.049164978479713e+00   3.417288600000000e+00 -2.85395100e-02   3.76734577e+00  -1.03410384e+00
C     6.237207289670621e+00   2.475813014753835e+00   3.449498700000000e+00 -2.27944549e+00   5.68405350e-01   4.19054070e-01
C     7.219228323649576e+00   1.481570287105832e+00   3.483948000000000e+00 -8.83466640e-01  -3.70477270e-01  -1.05193941e+00
C     8.574871191489269e+00   1.875727761762116e+00   3.401329200000000e+00 -2.46451170e-01   2.42898855e+00   7.62908960e-01
C     2.128910917038919e+00   1.280717961183781e+00   3.404055600000000e+00 -2.64911569e+00   5.30663846e+00  -7.88570230e-01
