26
Lattice="8.88768389401873 1.33226762955019e-15 0 4.44384194700937 7.69696003302603 0 0 0 30 " PBC="1 1 1" Properties=species:S:1:pos:R:3:force:R:3 Energy="-208.81813523"
C     4.869932623453928e-01   5.703008655508290e-01   3.507416100000000e+00  5.35539260e-01   1.38870714e+00  -1.50581090e-01
C     2.912122327816579e+00   5.940821629555199e-03   3.546472200000000e+00 -2.06462530e-01  -1.11327019e+00   4.24330530e-01
C     4.283906607186147e+00   3.918347630280319e-01   3.585309000000000e+00 -2.89831360e-01   4.89770340e-01  -3.67519620e-01
C     9.768636098892649e+00   7.101015818474022e+00   3.591097500000000e+00 -1.78448697e+00   2.07951150e-01   3.18371210e-01
C     1.108989878358664e+01   7.506825951828525e+00   3.584468400000000e+00  1.56914106e+00   4.04549850e-01  -8.85655140e-01
C     1.212970673833592e+01   6.526575219940658e+00   3.499085100000000e+00 -1.08956187e+00  -6.80588250e-01   4.37938780e-01
C     4.595932973312682e+00   6.902669930616141e+00   3.504821100000000e+00  8.08982400e-02   2.18346400e-01  -4.55244320e-01
C     5.620740472968606e+00   5.957076454594556e+00   3.450006900000000e+00  1.24652000e+00  -2.67946948e+00   6.28783040e-01
C     7.021737813790388e+00   6.279726399666529e+00   3.588028500000000e+00 -2.07896555e+00   3.25346042e+00  -1.09607123e+00
C     8.019991047037180e+00   5.349613049657281e+00   3.557196600000000e+00  1.79826902e+00  -1.20733562e+00   7.68431340e-01
C     9.408631129970951e+00   5.732243403033436e+00   3.613845900000000e+00 -9.09564360e-01   2.74722390e-01  -3.17828850e-01
C     1.041334042120467e+01   4.757196816730653e+00   3.585261000000000e+00  3.61619400e-02  -7.76812070e-01  -2.12549530e-01
C     1.176280306028821e+01   5.136633085633560e+00   3.506043000000000e+00  1.95118029e+00   3.20389700e-01  -1.65370530e-01
C     3.933777191546407e+00   4.145520403751357e+00   3.422076300000000e+00 -9.96426920e-01   1.80643620e-01   8.66385780e-01
C     5.307930749678645e+00   4.517981610505478e+00   3.411021900000000e+00 -1.25475807e+00   2.64880694e+00  -1.69325700e-01
C     6.333305372455138e+00   3.590166880639587e+00   3.419114700000000e+00  1.64734250e-01  -1.73253283e+00   1.23672277e+00
C     7.682291231739052e+00   3.973687541382414e+00   3.570765600000000e+00  2.07671280e-01  -3.55506400e-02  -1.31040863e+00
C     8.694982951819382e+00   2.997448465062183e+00   3.494535300000000e+00  8.91809190e-01  -1.68129414e+00   5.16946470e-01
C     1.007412485585547e+01   3.378113014846678e+00   3.548897400000000e+00  1.92779040e-01  -9.02310350e-01   4.58335480e-01
C     2.240557780583410e+00   2.374314126473428e+00   3.626632200000000e+00 -2.98760889e+00  -4.90354050e-01  -1.15227370e+00
C     3.561007819895318e+00   2.771498045813509e+00   3.566768100000000e+00  1.96334046e+00  -3.70239100e-02  -6.38540530e-01
C     4.597962205972431e+00   1.782627642327246e+00   3.519402600000000e+00  1.09906343e+00   2.04394200e-01   7.59235800e-01
C     6.001750057400601e+00   2.193061801389371e+00   3.538600200000000e+00 -2.03985080e+00   3.91706330e-01  -1.26411280e+00
C     6.976745688337097e+00   1.204436853958464e+00   3.469506600000000e+00  1.40729635e+00  -8.21685610e-01   9.63572440e-01
C     8.363713509097611e+00   1.570241113921839e+00   3.469988100000000e+00 -2.53336980e-01   1.11955112e+00   6.63937800e-02
C     1.861565385964336e+00   9.641678569355818e-01   3.517638900000000e+00  7.46450460e-01   1.05522755e+00   7.40034230e-01
