32
Lattice="9.86 0 0 4.93 8.53901048131456 0 0 0 30 " PBC="1 1 1" Properties=species:S:1:pos:R:3:force:R:3 Energy="-257.25323127"
C     9.885634471700000e+00   3.967920198362120e-01  -1.429046999999990e-01  9.68303130e-01   1.10523870e-01   3.41375600e-02
C     1.267417957500000e+00   1.128991504090850e+00  -1.663052999999977e-01 -7.53998320e-01   9.53037900e-02   5.61898550e-01
C     2.490819445300000e+00   4.170304993550696e-01  -7.391699999999801e-02  6.29077400e-02  -1.60659210e-01  -1.92021670e-01
C     3.728905776200000e+00   1.135380135561672e+00  -7.519200000000126e-02 -8.87972190e-01  -5.57150990e-01  -1.93033340e-01
C     4.922418843200000e+00   3.725437063860512e-01  -1.026623999999998e-01  1.58042451e+00   1.65351363e+00   4.81741760e-01
C     6.189927956399999e+00   1.115621548431790e+00  -1.138466999999999e-01 -7.50053780e-01  -2.89101290e-01  -2.40162660e-01
C     7.437855849099999e+00   4.425332788348472e-01  -1.396160999999978e-01 -1.52747849e+00  -2.75156910e+00   3.79662140e-01
C     8.653739777100000e+00   1.121323472679810e+00  -1.431570000000022e-01  5.27771900e-01  -8.99994790e-01   8.09140300e-02
C     1.110115574890000e+01   2.567494727858060e+00  -1.562124000000011e-01  1.47196311e+00  -6.97730970e-01   4.04408510e-01
C     2.515588258300000e+00   3.285291975476711e+00  -1.097561999999996e-01 -2.02729172e+00  -4.25674110e-01  -3.00169480e-01
C     3.706663884000000e+00   2.563734916153611e+00  -9.442800000000062e-02  1.28648669e+00  -6.51240870e-01  -6.59397500e-02
C     4.950634219199999e+00   3.259784328760960e+00  -9.329730000000325e-02  2.54022340e-01  -7.12685780e-01  -6.46795400e-02
C     6.171093729500000e+00   2.537488474251130e+00  -1.282428000000024e-01  9.13795710e-01  -1.12019400e-02   5.47732320e-01
C     7.437261438999998e+00   3.243074168372438e+00  -7.501829999999998e-02 -1.93685740e+00   2.15702140e-01  -2.25187760e-01
C     8.629016763799999e+00   2.510207275058683e+00  -9.326250000000158e-02  1.63326480e+00   2.07238960e+00  -1.79353710e-01
C     9.881212804000000e+00   3.256042875929043e+00  -9.835740000000115e-02 -1.55059570e-01  -7.10418070e-01  -4.82920580e-01
C     1.237825928300000e+01   4.699540225365586e+00  -1.233128999999984e-01 -4.09020260e-01  -3.33085610e-01   1.84233480e-01
C     3.772083504999999e+00   5.374735666578678e+00  -1.555859999999996e-01 -1.32708182e+00   3.90947220e-01   5.01489870e-01
C     4.987256576299999e+00   4.656118759344052e+00  -8.398020000000272e-02 -5.48981500e-01   9.12174130e-01  -3.46065720e-01
C     6.195164602400000e+00   5.391321328194402e+00  -7.653119999999802e-02  3.36880480e-01  -1.13245382e+00  -2.21811170e-01
C     7.408565782400000e+00   4.685363077045851e+00  -6.548819999999722e-02  1.64062366e+00  -1.16887517e+00  -3.72743340e-01
C     8.657983373200000e+00   5.373555062989714e+00  -1.355301000000004e-01  1.61145380e-01  -2.53394200e-02   6.82187260e-01
C     9.940604711200001e+00   4.663084627923321e+00  -1.289948999999986e-01 -3.67090481e+00   1.93178910e-01   3.89691860e-01
C     1.110320845300000e+01   5.384806404758582e+00  -6.577019999999933e-02  2.82405423e+00   2.28981420e-01  -3.67589140e-01
C     1.358822159080000e+01   6.788484298964368e+00  -1.514825999999978e-01  6.99228250e-01   9.26163410e-01   5.03173910e-01
C     4.996230112999999e+00   7.507313059049003e+00  -1.003383000000007e-01 -1.80254361e+00   1.58126160e-01  -8.35661400e-01
C     6.219060460300000e+00   6.780525855806903e+00  -1.381043999999996e-01 -1.20087297e+00   1.59011326e+00   8.33976440e-01
C     7.410618092099999e+00   7.518118749860919e+00  -4.652880000000081e-02  5.04885550e-01   3.42297790e-01  -6.48283280e-01
C     8.620317236500000e+00   6.793019794380820e+00  -7.215240000000023e-02  1.31635264e+00   1.38639810e-01   1.25012050e-01
C     9.856412192499999e+00   7.513076464172479e+00  -3.715679999999821e-02  5.35691880e-01  -7.62436870e-01  -2.78911240e-01
C     1.112070374120000e+01   6.796365464076988e+00  -2.709720000000004e-02 -1.55317792e+00   6.25478340e-01  -3.79889990e-01
C     1.232802899200000e+01   7.493489084202722e+00  -9.070529999999977e-02  1.83349234e+00   1.63608454e+00  -3.15835940e-01
