2
Lattice="2.477 0 0 1.2385 2.14514492517405 0 0 0 30 " PBC="1 1 1" Properties=species:S:1:pos:R:3:force:R:3 Energy="-16.12752607"
C     0.000000000000000e+00   0.000000000000000e+00   3.000000000000000e+00 -0.00000000e+00   0.00000000e+00  -0.00000000e+00
C     1.238500000000000e+00   7.150483083913515e-01   3.000000000000000e+00  0.00000000e+00  -0.00000000e+00   0.00000000e+00
