32
Lattice="9.86 0 0 4.93 8.53901048131456 0 0 0 30 " PBC="1 1 1" Properties=species:S:1:pos:R:3:force:R:3 Energy="-252.56005249"
C     5.025975810299999e+00   7.970245009239313e+00  -1.111797000000003e+00  1.10098026e+00  -1.44860727e+00  -9.79902300e-02
C     1.308591887800000e+00   1.115013741665824e-01  -1.128175800000001e+00  3.74699540e+00  -1.17233094e+00  -2.88986900e-02
C     7.590813733300000e+00   7.947163039230616e+00  -1.037215199999999e+00 -7.56814260e-01  -1.05662685e+00  -1.07694640e+00
C     3.895853274899999e+00   8.894668805502480e-02  -1.066438500000000e+00  3.66920040e-01   1.45372100e+00  -2.25171702e+00
C     1.015093680150000e+01   7.937067367140111e+00  -1.285076400000001e+00 -7.34310892e+00  -1.42668118e+00   2.79381302e+00
C     6.272718531000000e+00   1.605374957490304e-01  -1.030302899999999e+00  4.10417269e+00  -4.43093560e-01  -8.37122410e-01
C     1.239451423250000e+01   7.923837878203448e+00  -9.443975999999985e-01  2.82365965e+00  -8.38370580e-01  -1.17677540e+00
C     8.726714130100000e+00   2.605448494689040e-02  -1.063495199999998e+00 -2.40113271e+00   4.05331595e+00   1.30351230e-01
C     1.355718102900000e+00   1.478467415225601e+00  -1.234332900000002e+00  4.64120930e-01   3.49701415e+00   2.64194126e+00
C     2.623706855800000e+00   2.257984374423377e+00  -1.061804100000000e+00 -5.97612330e-01  -2.12588104e+00  -1.65322012e+00
C     3.870515983600000e+00   1.543546715087978e+00  -1.218422099999998e+00  2.26377680e-01   2.53025680e-01   2.32801501e+00
C     5.108751644200000e+00   2.298276207713887e+00  -1.122549299999999e+00 -2.09267997e+00   8.24191070e-01  -3.01323450e-01
C     6.307328462099999e+00   1.546798626449076e+00  -1.135456500000000e+00 -1.39194260e-01   2.35305277e+00   9.53690600e-02
C     7.545854894100000e+00   2.255603100570820e+00  -1.210955999999999e+00 -2.00678357e+00  -3.39031190e-01   1.24193378e+00
C     8.653399755000001e+00   1.479418404822758e+00  -1.174184099999998e+00  5.87726403e+00   3.56017980e-01   1.35313945e+00
C     1.000888841570000e+01   2.258063531050527e+00  -1.031249400000000e+00 -1.89766070e+00  -3.25861074e+00  -3.31071481e+00
C     2.521178779700000e+00   3.646959031873757e+00  -1.052478599999997e+00  2.63346676e+00   3.04592408e+00  -1.22787003e+00
C     3.777190048300000e+00   4.567333031636575e+00  -1.103933399999999e+00  2.07441316e+00  -1.09441838e+01   6.71596400e-01
C     5.045914998099999e+00   3.776244944727455e+00  -1.047888900000000e+00  1.64589845e+00  -1.03558161e+00  -8.85181490e-01
C     6.418994934100000e+00   4.423178993735102e+00  -1.105573199999998e+00 -5.10287718e+00   7.49550890e-01  -4.14956700e-02
C     7.595219033399999e+00   3.674884755577235e+00  -1.077829200000000e+00 -7.67280970e-01  -2.84918770e-01  -1.12408697e+00
C     8.791666929400000e+00   4.349871503374197e+00  -1.178810100000000e+00  1.57713488e+00   1.18284956e+00   3.24163520e-01
C     9.998597632299999e+00   3.628824052196543e+00  -1.298460299999999e+00 -9.91641940e-01   3.77460040e-01   1.45099462e+00
C     1.117811901420000e+01   4.360019263428629e+00  -1.275871200000001e+00  2.64266995e+00  -8.22589950e-01   9.66708140e-01
C     3.940582277499999e+00   5.847818109306773e+00  -1.164931499999998e+00 -3.81637203e+00   4.23680688e+00   2.69586860e-01
C     5.072156944400000e+00   6.581036212121571e+00  -1.167653699999999e+00  4.67246021e+00  -1.21761154e+00  -2.88736610e-01
C     6.352915629800000e+00   5.853516105609973e+00  -1.239342900000000e+00  1.93838369e+00  -2.71505790e-01   1.25456915e+00
C     7.696031617400000e+00   6.489872882336043e+00  -1.149762600000003e+00 -4.22798752e+00   2.24593212e+00   6.54864430e-01
C     8.893603306899999e+00   5.785856658340959e+00  -1.057829399999999e+00 -9.13121070e-01  -2.78639170e-01  -1.09961803e+00
C     1.010167915020000e+01   6.520004147056400e+00  -1.095101100000001e+00  1.66302485e+00  -7.62755670e-01  -1.27875274e+00
C     1.133489542990000e+01   5.747690697099551e+00  -1.186958400000002e+00 -1.92747064e+00   1.97777308e+00   3.41104750e-01
C     1.254226924120000e+01   6.499235053426315e+00  -1.094352000000001e+00 -2.57620457e+00   1.12038448e+00   1.62299360e-01
