32
Lattice="9.86 0 0 4.93 8.53901048131456 0 0 0 30 " PBC="1 1 1" Properties=species:S:1:pos:R:3:force:R:3 Energy="-255.17356502"
C     9.632493613799999e+00   1.046383665075549e+00   3.056288400000000e+00 -5.55004940e-01  -1.41597356e+00   3.27365780e-01
C     1.082484768710000e+01   1.765543311816284e+00   3.206997600000000e+00  1.52293345e+00   1.62964418e+00  -1.02247397e+00
C     2.190710378800000e+00   1.103848302342386e+00   3.102690900000000e+00 -5.35485200e-02  -2.99872017e+00   1.66157067e+00
C     3.434196982400000e+00   1.657562486280501e+00   3.363497100000000e+00  1.05109431e+00   4.11510362e+00  -5.02120960e-01
C     4.687854373200000e+00   9.781988124917008e-01   3.322861500000000e+00  1.08511820e-01   1.49548076e+00   5.75152900e-01
C     5.914981166200000e+00   1.819549052107987e+00   3.373444500000000e+00 -1.02817510e+00  -5.67560071e+00  -9.26774550e-01
C     7.112477525300000e+00   1.042098875006790e+00   3.162279900000000e+00  2.09444865e+00   9.06855690e-01   1.29505026e+00
C     8.428423444799998e+00   1.717626398337450e+00   3.215260500000000e+00 -2.72862559e+00   7.27637120e-01  -1.26681029e+00
C     1.091349170000000e+01   3.207558374423603e+00   3.259989300000000e+00 -5.26621077e+00  -8.42016830e-01  -8.18665400e-02
C     1.204715865890000e+01   3.936375471237008e+00   3.429726300000000e+00  3.40669345e+00  -3.04888028e+00   1.92534440e-01
C     3.431416906100000e+00   3.152558180971399e+00   3.471291600000000e+00  8.26894540e-01   5.27730940e-01  -1.32741090e-01
C     4.668382105699999e+00   3.916308967389218e+00   3.469604100000000e+00  1.38620900e-01  -5.38219620e-01  -1.01755550e-01
C     5.909817582800000e+00   3.159129376486283e+00   3.416148300000000e+00 -2.50921000e-02   3.23244728e+00  -3.36489400e-02
C     7.188577646200000e+00   3.815009575993616e+00   3.316360800000000e+00 -1.82733554e+00   2.21437717e+00   7.76498220e-01
C     8.389561585899999e+00   3.155452905524119e+00   3.196689000000000e+00  1.63061070e+00  -1.00938590e+00   4.34149270e-01
C     9.608455771899999e+00   3.901373213378441e+00   3.167098500000000e+00  1.71697828e+00   5.19897610e-01   4.18337840e-01
C     1.208985911440000e+01   5.304333403753384e+00   3.448827000000000e+00  9.09751350e-01   2.49429671e+00  -9.45918250e-01
C     1.328574257470000e+01   6.066198520486905e+00   3.321777600000000e+00  2.64770531e+00  -1.71984118e+00  -6.79369780e-01
C     4.705879044800000e+00   5.372709871732403e+00   3.338175900000000e+00 -5.35959730e-01  -1.23193978e+00  -2.06355550e-01
C     5.976349263900000e+00   6.036034978306933e+00   3.139972200000000e+00 -1.01320590e+00  -1.45126363e+00   1.94595889e+00
C     7.204824756999999e+00   5.254700576118593e+00   3.400404600000000e+00 -1.43155233e+00   1.21039427e+00  -2.66536629e+00
C     8.372935949699999e+00   6.019606092923623e+00   3.197757000000000e+00  7.77275620e-01   5.97731330e-01   1.34169620e-01
C     9.639858343600000e+00   5.343709513560017e+00   3.161345700000000e+00  6.11026880e-01  -5.23628770e-01   5.97669080e-01
C     1.094885281520000e+01   6.049894560826917e+00   3.259086300000000e+00 -4.70558439e+00  -1.06424893e+00  -1.34797610e-01
C     1.332372319610000e+01   7.421186464595103e+00   2.979902700000000e+00 -2.22126968e+00   1.74409326e+00   1.83056286e+00
C     1.453517436390000e+01   8.133664933365973e+00   2.943816600000000e+00  8.65994600e-01   7.78890350e-01   3.12486950e-01
C     5.921757894900000e+00   7.451792498298148e+00   3.038543100000000e+00 -1.57883090e-01  -2.05846950e-01  -6.25441100e-02
C     7.106153715700000e+00   8.206598842018376e+00   3.140191200000000e+00  9.04009830e-01  -2.94350510e-01  -1.21602966e+00
C     8.322036657700000e+00   7.479126041624838e+00   3.117010200000000e+00  1.40985788e+00  -1.55961241e+00   1.39332741e+00
C     9.618497294499999e+00   8.090673918862736e+00   3.279359700000000e+00 -1.77836716e+00   2.28188905e+00  -1.06972251e+00
C     1.084294266050000e+01   7.453151054865516e+00   3.229674900000000e+00  1.69051443e+00  -1.22021780e+00   2.47051650e-01
C     1.205462652430000e+01   8.166203003580222e+00   3.171969900000000e+00  1.01489283e+00   3.23277690e-01  -1.09359022e+00
