32
Lattice="9.86 0 0 4.93 8.53901048131456 0 0 0 30 " PBC="1 1 1" Properties=species:S:1:pos:R:3:force:R:3 Energy="-256.65050947"
C     4.978014502500000e+00   8.409990215762335e+00  -3.893937000000030e-01 -5.18080600e-01   1.19302801e+00  -1.19356200e-02
C     1.286033982600000e+00   6.117772350593904e-01  -4.227677999999990e-01 -1.59630476e+00  -3.52551930e-01   9.59772430e-01
C     7.414689384699999e+00   8.431902853675902e+00  -4.014392999999998e-01  1.12495137e+00  -3.45092540e-01   1.66352480e-01
C     3.739389026800000e+00   5.779518236251759e-01  -3.851139000000003e-01 -9.19499850e-01   1.09923190e-01  -4.96141210e-01
C     9.871921183700000e+00   8.395863106044013e+00  -4.129316999999979e-01  1.52062648e+00   1.92745424e+00   1.32326990e-01
C     6.220730990799999e+00   6.211199372057680e-01  -4.213316999999996e-01 -2.02477079e+00  -2.47190300e+00   5.57636360e-01
C     1.234532584770000e+01   8.396992134009679e+00  -3.568131000000001e-01  5.42332060e-01  -4.81267860e-01  -9.46430200e-01
C     8.646203434000000e+00   5.595138798561312e-01  -3.859046999999975e-01  5.59829330e-01   1.17082711e+00  -2.20092560e-01
C     1.247911081400000e+00   2.031810066817731e+00  -3.223647000000014e-01  2.09421433e+00  -2.47204900e-01  -2.33276662e+00
C     2.525787984600000e+00   2.746711052861776e+00  -5.177979000000015e-01 -1.98116624e+00  -2.26907424e+00   1.55502219e+00
C     3.721940721499999e+00   1.984793335823698e+00  -4.559400000000018e-01  1.07337298e+00   1.91968029e+00   1.01269350e-01
C     4.948959202399999e+00   2.750844787835144e+00  -4.255469999999981e-01 -1.08805250e-01  -7.14631380e-01  -8.23250500e-02
C     6.166122366799999e+00   2.012005027470838e+00  -3.777264000000002e-01  1.30223178e+00   1.41237783e+00  -1.74942120e-01
C     7.430749599199999e+00   2.722316124601674e+00  -3.521457000000012e-01 -1.01367531e+00   5.02719820e-01  -5.99812710e-01
C     8.635507453900001e+00   2.015371873912998e+00  -4.572677999999968e-01  1.52575439e+00  -7.49219120e-01   9.35541990e-01
C     9.917378347300000e+00   2.725678872318802e+00  -4.572278999999995e-01 -1.90867045e+00   8.17818960e-01   5.03978080e-01
C     2.483579691000000e+00   4.120661406762701e+00  -4.865393999999981e-01  7.37231280e-01   2.80023440e+00  -4.13232730e-01
C     3.731373832800000e+00   4.866463876272398e+00  -4.035908999999975e-01 -6.27109940e-01  -4.33887300e-01  -1.38788646e+00
C     4.958761866500000e+00   4.192861899804979e+00  -4.429554000000024e-01  2.66390620e-01  -1.68458850e+00   3.48848080e-01
C     6.194050471699999e+00   4.895744570158842e+00  -4.346226000000009e-01  6.90864590e-01  -1.35372398e+00   1.03033417e+00
C     7.438530963300000e+00   4.157127848748274e+00  -3.471519000000001e-01 -1.00986230e+00  -3.44541030e-01  -3.03637110e-01
C     8.656867960700000e+00   4.858946216835911e+00  -3.423260999999975e-01  7.74721700e-01  -8.68989270e-01  -7.82622630e-01
C     9.927439244799999e+00   4.179220062052235e+00  -4.761123000000005e-01 -2.31707765e+00  -1.66153571e+00   2.61922660e-01
C     1.110106641730000e+01   4.878464686991095e+00  -5.611728000000014e-01  2.05478693e+00   2.49827870e-01   1.00573854e+00
C     3.746554190199999e+00   6.268813783568335e+00  -5.191475999999966e-01 -8.23619360e-01   4.20062120e-01   1.42214709e+00
C     4.952143637300000e+00   7.014259407830075e+00  -3.617066999999992e-01  6.80749660e-01  -1.32363442e+00  -6.81229680e-01
C     6.195853569900001e+00   6.287087351385641e+00  -3.246897000000004e-01 -3.98926190e-01   1.29424579e+00  -7.18692680e-01
C     7.416225523400000e+00   7.015980103831899e+00  -3.628257000000019e-01  4.68033370e-01  -1.28872878e+00   1.47815810e-01
C     8.646766538600000e+00   6.240063959963433e+00  -3.809304000000004e-01  1.12729450e-01   3.24810698e+00   1.93074410e-01
C     9.877449636399998e+00   7.012706759554495e+00  -4.096250999999995e-01  1.24460870e-01  -1.71340909e+00  -1.17744660e-01
C     1.113427682000000e+01   6.325031896085303e+00  -4.651556999999968e-01 -2.30954505e+00  -2.83600839e+00  -4.74119280e-01
C     1.234343834790000e+01   6.922207679394207e+00  -4.791107999999973e-01  1.90383252e+00   4.07368481e+00   4.21830690e-01
