32
Lattice="9.984 0 0 4.992 8.64639763138383 0 0 0 30 " PBC="1 1 1" Properties=species:S:1:pos:R:3:force:R:3 Energy="-257.74958164"
C     2.971648145419198e-03  -3.862767838890370e-03   2.996374049627340e+00 -2.75048200e-01   3.26026260e-01   4.80504500e-02
C     1.245439981829942e+00   7.226764959199291e-01   3.003038650000883e+00  2.22040730e-01  -2.39643140e-01  -4.43961200e-02
C     2.499881209495221e+00  -2.009282434767048e-03   3.003212304288156e+00 -2.36857860e-01   2.55539530e-01  -2.82388300e-02
C     3.743971488063744e+00   7.207974552901225e-01   2.999228703321378e+00  5.16609000e-02   5.87854000e-03   7.50589500e-02
C     4.987913108029935e+00  -2.561162657969456e-03   3.003194198098167e+00  1.78463690e-01   1.29377090e-01  -8.19193700e-02
C     6.241213130787382e+00   7.173340341143946e-01   2.996474566869986e+00 -1.42699220e-01   9.13876900e-02   9.66227100e-02
C     7.487893994896308e+00   1.006992053437560e-03   3.000888265865679e+00  3.38959500e-02  -1.12461770e-01  -1.97953400e-02
C     8.733318978028098e+00   7.239087451402567e-01   2.998921239212511e+00  1.57625990e-01  -1.29286910e-01   9.79197000e-03
C     1.245351469194971e+00   2.160915160517475e+00   3.001057083651130e+00  8.05164800e-02   5.18706000e-03   1.17063700e-02
C     2.495997744085486e+00   2.879301442904561e+00   3.001583860562802e+00  5.83285600e-02   6.28408000e-02   1.93088600e-02
C     3.748113426549260e+00   2.162442935634474e+00   3.003688648619919e+00 -2.45408260e-01  -6.41088700e-02  -5.20004200e-02
C     4.990431240802525e+00   2.884867822331615e+00   3.001108756755164e+00  1.84924000e-01  -2.51660680e-01   1.84686100e-02
C     6.242012259300536e+00   2.158630557945032e+00   3.003523518728511e+00 -1.35680480e-01   1.24307170e-01  -5.65417600e-02
C     7.486476027359129e+00   2.884703876534102e+00   3.002943137884292e+00 -2.48954300e-02  -1.00625500e-01   8.46817000e-03
C     8.732610930486166e+00   2.165792964630497e+00   3.002533827998966e+00  1.25364860e-01  -1.62648420e-01  -2.83860600e-02
C     9.983710153317974e+00   2.880391927861679e+00   3.000765268307577e+00 -8.13736900e-02   2.07532630e-01   1.76278700e-02
C     2.499292425230180e+00   4.319709311239418e+00   3.003040348696593e+00 -2.23775920e-01   1.31765780e-01  -1.63476800e-02
C     3.745655555025450e+00   5.042301905864951e+00   3.001185599499579e+00 -1.02982490e-01  -3.13320000e-02  -5.51720000e-04
C     4.988996763625514e+00   4.319741274306034e+00   2.998975277071443e+00  2.33514490e-01   2.28670100e-01   4.54819500e-02
C     6.241938208941317e+00   5.042531456642529e+00   3.003647356549192e+00 -1.53642950e-01   2.65678400e-02  -5.85662800e-02
C     7.486486334810128e+00   4.323526901709427e+00   3.002618166826284e+00  5.51563500e-02   3.42790900e-02   7.15444000e-03
C     8.734887234231849e+00   5.045559777801540e+00   3.000840439604237e+00 -2.66920900e-02  -1.63720270e-01   3.18199000e-02
C     9.982093904605740e+00   4.324911029272372e+00   3.002786891343194e+00  7.35023100e-02  -7.77275300e-02  -2.66755500e-02
C     1.123015170367499e+01   5.046418540729620e+00   3.002404343633852e+00  1.46899580e-01  -2.43528360e-01   8.54644000e-03
C     3.742641092065573e+00   6.482970042336164e+00   3.001611700260610e+00  6.79623900e-02   7.63058700e-02  -4.02529000e-03
C     4.990461954918876e+00   7.206974615791505e+00   2.997471275329859e+00  1.67527690e-01  -2.59281180e-01   5.29292000e-03
C     6.243942454915445e+00   6.483394149945884e+00   2.998337665104089e+00 -1.93653280e-01   1.16451410e-01   3.50261900e-02
C     7.491145152993421e+00   7.207898480387772e+00   3.001203906451259e+00 -1.35382070e-01  -2.02648270e-01   5.85729000e-03
C     8.733689035021490e+00   6.481482554916813e+00   3.003145739057318e+00  1.31150160e-01   2.34561050e-01  -3.93984700e-02
C     9.979890783212140e+00   7.207836364159440e+00   3.000019959604849e+00  1.43329340e-01  -2.75500160e-01   4.82837200e-02
C     1.123274677255027e+01   6.482869514228824e+00   3.002353067544730e+00 -1.51795500e-01   2.01876380e-01   2.35404000e-03
C     1.247978745108149e+01   7.203293833344710e+00   3.004504460821985e+00  1.80239800e-02   5.56187700e-02  -3.80779500e-02
