32
Lattice="9.86 0 0 4.93 8.53901048131456 0 0 0 30 " PBC="1 1 1" Properties=species:S:1:pos:R:3:force:R:3 Energy="-248.88451886"
C     5.012487281000000e+00   8.457699972846925e+00  -1.617809999999764e-02 -1.35874376e+00  -2.28152387e+00  -5.32709500e-02
C     1.317861520300000e+00   6.455450081728648e-01   1.111725000000000e-01 -1.26924823e+00   3.68483250e-01  -2.89911380e+00
C     7.434829026299999e+00   8.427118104543538e+00  -1.460246999999981e-01  1.45966607e+00   8.88296776e+00   2.00377701e+00
C     3.819122853500000e+00   7.636753869552808e-01  -1.527692999999992e-01 -3.44605290e+00  -8.00479747e+00  -2.13513592e+00
C     9.873239613599999e+00   8.398584744854304e+00  -4.243452000000012e-01  6.73992670e-01   2.89638063e+00   9.08499970e-01
C     6.187981888199999e+00   4.460198422039360e-01  -3.484347000000021e-01  2.27289888e+00   5.57404533e+00   9.45419370e-01
C     1.238435069240000e+01   8.412476177883377e+00  -4.884513000000013e-01 -1.05677230e-01  -2.50470200e-02   9.13315000e-02
C     8.740534596300000e+00   6.236957297170600e-01  -1.649475000000002e-01 -2.35035557e+00  -8.33029060e-01  -1.08360658e+00
C     1.266893208300000e+00   2.068991736321109e+00  -3.049769999999974e-01  6.01266470e-01  -8.51692730e-01   8.29255900e-02
C     2.489228830100000e+00   2.669854749745383e+00  -7.601682000000025e-01 -9.65603810e-01   3.41162274e+00  -1.74092640e-01
C     3.720730702300000e+00   2.043278897183524e+00  -6.038412000000015e-01  7.62701720e-01  -4.18183730e-01   1.87296089e+00
C     4.975484130700000e+00   2.612058628091713e+00  -3.769056000000006e-01  2.29202315e+00   4.34935695e+00  -9.63109140e-01
C     6.209070111099999e+00   1.951818580613502e+00  -6.061019999999928e-02 -1.98501925e+00  -1.46855825e+00  -1.49725874e+00
C     7.353697495300000e+00   2.762552539714167e+00   5.186580000000000e-02  3.16671933e+00  -4.55106379e+00  -1.89350774e+00
C     8.679766627499999e+00   2.035717603403484e+00  -2.277579000000003e-01 -1.20025452e+00   1.08643688e+00   2.78769753e+00
C     9.886376880400000e+00   2.804540476656318e+00  -2.829098999999999e-01  5.41097000e-02  -2.33613549e+00  -1.61677467e+00
C     2.494108248300000e+00   4.174468358890429e+00  -1.107734400000002e+00  1.67008498e+00  -3.83035349e+00   1.96254607e+00
C     3.777836026199999e+00   4.877824346595200e+00  -8.452793999999990e-01 -8.59459580e-01  -9.35006340e-01  -4.54637680e-01
C     5.091358160500000e+00   4.051567747293467e+00  -5.691455999999988e-01 -2.56262048e+00   3.32067570e+00  -2.30929370e-01
C     6.290970278400000e+00   4.898927486315262e+00  -4.069115999999973e-01 -1.60211743e+00  -2.33080620e+00   2.94389333e+00
C     7.447190163200000e+00   4.104191534129086e+00  -3.506609999999810e-02 -1.23155100e-02   3.90315410e+00  -1.27059945e+00
C     8.695032766899999e+00   4.815935904168989e+00  -1.962294000000000e-01 -5.93335730e-01   4.39092510e+00  -1.33968668e+00
C     9.841570674000000e+00   4.169030460846451e+00  -6.902630999999992e-01  3.01047380e-01  -1.83075338e+00   2.20724202e+00
C     1.106654187380000e+01   4.710598243937186e+00  -1.077309600000003e+00  2.71229320e-01   6.59787729e+00   5.69784830e-01
C     1.350392726760000e+01   6.347565661621184e+00  -7.004532000000019e-01  2.06149705e+00  -3.21538916e+00  -8.10494700e-02
C     4.837901486800000e+00   6.889414036596291e+00  -1.744731000000002e-01  3.54511417e+00   4.55187166e+00   8.13168100e-02
C     6.173931831899999e+00   6.291346439032855e+00  -6.908879999999940e-02 -1.43338248e+00   2.56111450e-01  -1.89652824e+00
C     7.373387027900000e+00   7.150041458296537e+00  -6.050340000000176e-02  2.21003306e+00  -8.98878775e+00  -6.27717700e-02
C     8.675969689399999e+00   6.386618655271254e+00  -2.300520000000006e-01 -1.75647971e+00  -3.37707904e+00  -5.41886770e-01
C     9.893856775000000e+00   7.029617245128878e+00  -5.849568000000005e-01 -2.06063834e+00  -3.18125495e+00   5.40114200e-02
C     1.104137018120000e+01   6.238262399532363e+00  -9.773919000000006e-01  1.27413830e+00   1.26680542e+00   3.65033750e-01
C     1.228235964120000e+01   7.064169155574731e+00  -9.143028000000015e-01  9.44782300e-01  -2.39725254e+00   1.31751950e+00
