32
Lattice="9.752 0 0 4.876 8.44547973770585 0 0 0 30 " PBC="1 1 1" Properties=species:S:1:pos:R:3:force:R:3 Energy="-257.80099228"
C     2.206236582544660e-03  -1.085756080972521e-03   2.998626009822380e+00 -6.75523000e-02   2.22600300e-02   1.45087800e-02
C     1.220980422262574e+00   7.038789095562670e-01   3.000449233281747e+00 -1.24887200e-01   1.06800390e-01   2.56370800e-02
C     2.436416135958831e+00   1.901816976867105e-03   3.002520196624062e+00  2.09992420e-01  -1.98333780e-01  -1.14267200e-02
C     3.660390078299068e+00   7.039967959287783e-01   3.001003411648907e+00 -2.01335850e-01   2.61879900e-02  -7.69622000e-03
C     4.877225333068413e+00   1.081954811129516e-03   3.001418977940754e+00 -1.90918800e-02  -1.38967300e-01  -2.36947400e-02
C     6.094473970675292e+00   7.033904675227816e-01   2.997498508165423e+00  1.04586180e-01   9.69245000e-02   4.47939400e-02
C     7.316070307629148e+00   2.607719410088295e-03   3.002922301592418e+00 -1.56033190e-01  -2.29456490e-01  -3.16307900e-02
C     8.534251690375825e+00   7.042145212737538e-01   2.999513711505439e+00  8.16385800e-02  -1.10772180e-01   1.00949600e-02
C     1.218696655774815e+00   2.113960000628099e+00   3.004664091543492e+00  1.77729100e-02  -1.11390830e-01  -2.94873500e-02
C     2.436991355942515e+00   2.817272563036575e+00   3.003736925744478e+00  1.25595810e-01  -2.04952430e-01  -4.91789400e-02
C     3.659623702424422e+00   2.111658574607973e+00   2.997302812519596e+00 -1.70154310e-01   3.88244500e-02   4.15711500e-02
C     4.876542057715289e+00   2.816759531613990e+00   2.997243146836429e+00 -3.48431400e-02  -9.04628300e-02   1.91571100e-02
C     6.092380669079383e+00   2.112183813961378e+00   2.997814152572498e+00  1.50355240e-01  -7.87599700e-02   7.80758000e-03
C     7.313108132819832e+00   2.812640172465307e+00   3.002230077362409e+00  6.39402500e-02   1.46635880e-01  -5.03116800e-02
C     8.533972258830605e+00   2.108537477342227e+00   2.999769495860600e+00 -5.91604400e-02   2.12694600e-01   1.43150900e-02
C     9.751995135589576e+00   2.816615991331872e+00   3.000969380904897e+00  2.16518900e-02  -2.93023000e-03   1.90049800e-02
C     2.437249871666664e+00   4.221025750284883e+00   2.996970150213804e+00 -1.57714900e-02   1.16830580e-01   4.20335500e-02
C     3.652800615949427e+00   4.924967810041204e+00   2.996558558948475e+00  3.04599520e-01   1.23194100e-02   3.04435600e-02
C     4.876560537980166e+00   4.220785932467734e+00   3.003029279625296e+00 -1.71098270e-01   1.96245030e-01  -7.75898000e-02
C     6.091554979621676e+00   4.928569405784306e+00   2.999518620474122e+00  2.35264200e-01  -1.86228960e-01   3.81490100e-02
C     7.316532069075537e+00   4.224724822475957e+00   2.998530555007918e+00 -3.50512750e-01  -2.27936700e-01   2.82537800e-02
C     8.530518828287455e+00   4.923491006445926e+00   2.999236011898636e+00  3.30284710e-01   1.55766290e-01  -1.70580000e-03
C     9.755372868905635e+00   4.225109588697926e+00   3.001416583118452e+00 -2.07882880e-01  -1.33482620e-01  -1.62477600e-02
C     1.097266846182298e+01   4.927680826091932e+00   2.999755423121689e+00 -4.21419900e-02  -1.38657040e-01  -2.74001200e-02
C     3.659532015300725e+00   6.333192682570472e+00   2.997813982773617e+00 -3.03387150e-01  -2.52469200e-02   2.68754100e-02
C     4.875299946085648e+00   7.036498417782129e+00   3.000012221636769e+00  5.51825400e-02   1.04986360e-01   2.52205000e-03
C     6.093638620302054e+00   6.333603071637492e+00   3.003247214629861e+00 -4.85036200e-02  -1.72949000e-03  -3.82194200e-02
C     7.309903451767876e+00   7.035192308445902e+00   3.002058489058557e+00  3.18298010e-01   1.53143180e-01  -2.03873000e-03
C     8.535599406487833e+00   6.330843400466234e+00   2.998996041154434e+00 -2.75551540e-01   1.77584140e-01   2.14342000e-02
C     9.751532346622463e+00   7.038507040913442e+00   3.000611873970620e+00  1.05182300e-01  -1.23021020e-01  -1.79137200e-02
C     1.097317072906897e+01   6.330728821410027e+00   2.997193936806082e+00 -2.02164050e-01   2.49605910e-01   5.49129200e-02
C     1.218686697048764e+01   7.035600228304003e+00   3.003189544311098e+00  3.25727470e-01   1.85520020e-01  -5.69733600e-02
