32
Lattice="9.86 0 0 4.93 8.53901048131456 0 0 0 30 " PBC="1 1 1" Properties=species:S:1:pos:R:3:force:R:3 Energy="-246.89966707"
C     9.652025435699999e+00   7.221059469167544e-01   4.539268500000000e+00  1.17007887e+00   1.76624700e-01  -1.70861820e+00
C     1.054396059200000e+00   1.414587675555455e+00   4.280204100000000e+00  1.03649490e-01  -1.24733204e+00   8.34697940e-01
C     2.260161556600000e+00   7.053267059334496e-01   4.466022300000001e+00  1.14688509e+00   1.36074700e-01   2.78733370e-01
C     3.578849985800000e+00   1.384949794860632e+00   4.220881200000000e+00 -3.20992512e+00   1.70962670e-01   2.13861830e+00
C     4.779659354199999e+00   6.741757125815712e-01   4.530317999999999e+00 -3.78577500e-01   4.31230024e+00  -8.45780320e-01
C     6.037175899700000e+00   1.581163874125836e+00   4.388663100000000e+00 -4.21801708e+00  -3.12892639e+00   5.06068650e-01
C     7.059030902300001e+00   6.700068822751304e-01   4.297770300000000e+00  8.01523513e+00   6.73684930e-01   1.25172789e+00
C     8.459548654699999e+00   1.368203685237990e+00   4.489510800000001e+00 -3.62517603e+00   2.07193377e+00  -2.27467881e+00
C     1.091839907130000e+01   2.783507954552925e+00   3.972930600000000e+00 -3.32938071e+00   1.36908867e+00   4.99291340e-01
C     2.164606817600000e+00   3.548394343974480e+00   4.162205700000000e+00  5.37660474e+00   8.15908640e-01  -7.75112460e-01
C     3.430949443500000e+00   2.846241844406761e+00   4.184898300000000e+00  2.22725401e+00  -4.11967000e-01  -5.63993870e-01
C     4.692352505199999e+00   3.639436590591401e+00   4.202048100000000e+00 -4.43692260e-01  -3.88913720e-01   3.43175448e+00
C     5.975081021399999e+00   3.103338043713107e+00   4.473875400000000e+00  1.76805062e+00  -7.55388769e+00  -2.23312653e+00
C     7.319140118000000e+00   3.520959698763707e+00   4.404118200000000e+00 -3.14476311e+00   5.65807471e+00   2.08400148e+00
C     8.500613582699998e+00   2.829429386672689e+00   4.254228600000000e+00 -1.72089860e-01  -2.37498934e+00   1.62533980e-01
C     9.668661523499999e+00   3.514770367797489e+00   3.895053300000000e+00  4.63799130e-01   2.49630540e+00   2.09661783e+00
C     1.219809864480000e+01   5.002544792105660e+00   4.199288100000000e+00 -7.90051641e+00  -1.79251740e+00  -2.34392490e-01
C     3.386590141600000e+00   5.649080069323890e+00   4.620657300000000e+00  8.12144322e+00   2.54357401e+00  -1.35678608e+00
C     4.680007883799999e+00   4.939049222517009e+00   4.695573900000000e+00  9.39193400e-01   2.80824159e+00  -1.46601144e+00
C     6.051942186400000e+00   5.686472396215811e+00   4.741767599999999e+00 -2.75334873e+00  -1.62667540e-01   8.79835600e-01
C     7.324753761100000e+00   5.019302856342975e+00   4.730830500000001e+00 -2.78876475e+00  -3.31209157e+00  -3.46037970e+00
C     8.415614713200000e+00   5.711117688263188e+00   4.307032200000000e+00  1.49836486e+00   3.88718165e+00   3.03879364e+00
C     9.652492356000000e+00   5.094278186230834e+00   4.092071100000000e+00  1.72507138e+00  -3.69168458e+00  -1.27958993e+00
C     1.089551573680000e+01   5.794240515000538e+00   4.165671300000000e+00 -8.76268740e-01  -1.74075359e+00   1.75368740e-01
C     1.341633255590000e+01   7.101701266068209e+00   4.233616199999999e+00 -3.04583240e-01  -3.25724219e+00   2.61572160e+00
C     4.663400587199999e+00   7.891123989763414e+00   4.447361099999999e+00  5.00834153e+00  -3.72441752e+00   1.30978562e+00
C     6.014334667399999e+00   7.126433570632376e+00   4.735135200000000e+00 -6.07820616e+00  -1.73909180e+00  -6.53274140e-01
C     7.132823931099999e+00   7.819627794305527e+00   4.883830500000000e+00  3.60971322e+00   3.70417089e+00  -1.95824865e+00
C     8.359636485899999e+00   7.162991550810295e+00   4.717095900000000e+00  2.94204321e+00  -2.39346527e+00  -5.16995520e-01
C     9.650729585200001e+00   7.816047131040948e+00   4.775074800000001e+00 -5.97100690e-01   2.19485392e+00  -2.02464865e+00
C     1.085273147130000e+01   7.209270596688961e+00   4.423997400000000e+00  2.56797738e+00  -6.05049037e+00  -5.76368540e-01
C     1.219946760720000e+01   7.615014915112405e+00   4.233579900000000e+00 -6.86329489e+00   9.95145755e+00   6.24454870e-01
