32
Lattice="9.832 0 0 4.916 8.5147617700086 0 0 0 30 " PBC="1 1 1" Properties=species:S:1:pos:R:3:force:R:3 Energy="-258.05881314"
C    -1.816643872674461e-04   3.460735036960999e-03   3.001511576073840e+00 -1.21581860e-01  -1.99513980e-01  -2.99514300e-02
C     1.227170240226386e+00   7.080573370381895e-01   3.000777380626321e+00  5.87530200e-02   8.65599200e-02   2.02580800e-02
C     2.457048367740706e+00  -2.294771326818090e-05   3.000224826469911e+00 -2.37960600e-02  -9.47800300e-02   3.03475300e-02
C     3.685678760679128e+00   7.069185582510095e-01   3.002417322373757e+00  7.01023000e-03   1.90491050e-01  -1.44668700e-02
C     4.913741345849333e+00  -2.495538302797177e-03   3.003299815625840e+00  1.71801300e-01   2.58419440e-01  -4.88356100e-02
C     6.145469717652457e+00   7.111439672023411e-01   2.999956771902136e+00 -1.99105150e-01   7.20930000e-03   4.67426300e-02
C     7.371007833645288e+00   3.071927470602185e-03   3.001347778849626e+00  1.51502850e-01  -1.08145280e-01  -6.14629000e-03
C     8.599851177402423e+00   7.113737169621906e-01   3.000890028429096e+00  1.21661710e-01   3.24077700e-02   1.24808800e-02
C     1.225044344090295e+00   2.125523384382003e+00   3.003383690476545e+00  2.87596330e-01   1.70467060e-01  -6.88668200e-02
C     2.457733700292369e+00   2.839894613654025e+00   2.996265607815026e+00 -6.15964500e-02  -1.92484040e-01   6.78638500e-02
C     3.687387251404496e+00   2.130989550046560e+00   2.999471804462049e+00 -5.27107300e-02  -1.89107790e-01   1.20408000e-03
C     4.916103431679572e+00   2.838656838052942e+00   3.001183807851138e+00 -1.35936100e-02   5.34935900e-02  -2.13698100e-02
C     6.145577649303570e+00   2.130964850655609e+00   3.003059785002999e+00  1.70248000e-03  -9.28291000e-02  -2.19109500e-02
C     7.375294051938660e+00   2.838498790165773e+00   3.001821835205667e+00 -7.06124700e-02   7.17357100e-02  -1.94821000e-02
C     8.602552284076703e+00   2.130640881861869e+00   3.001013027100585e+00  4.47709800e-02  -8.63379200e-02  -2.26781000e-03
C     9.833958073902529e+00   2.837602956145741e+00   2.999540567082608e+00 -1.85020050e-01   9.34785100e-02   1.56926900e-02
C     2.458497427739794e+00   4.256182689165438e+00   3.000938985259606e+00  4.44217200e-02   8.37459400e-02  -5.72943000e-03
C     3.686523929561052e+00   4.970927696129890e+00   2.999564687303400e+00  4.91566900e-02  -3.21558750e-01   2.24792000e-03
C     4.915414474369891e+00   4.257684049266238e+00   2.997202834369259e+00  2.98940100e-02   5.47521600e-02   1.69389000e-02
C     6.145826433714984e+00   4.966902333549137e+00   2.997252156087975e+00 -8.79043800e-02  -6.00524500e-02   2.69867600e-02
C     7.374977371351937e+00   4.257892644861258e+00   2.997666313874629e+00 -1.33772020e-01  -7.02587800e-02   2.66448300e-02
C     8.600254464905865e+00   4.964444276051940e+00   2.999516203429639e+00  1.87183040e-01   2.02276410e-01  -3.54586900e-02
C     9.829460453031810e+00   4.258795846552506e+00   2.997480172769500e+00  2.09273940e-01  -1.40404350e-01   5.36454400e-02
C     1.106421252048670e+01   4.964733781742822e+00   3.004359621599473e+00 -2.55538500e-01   6.84193500e-02  -7.95062400e-02
C     3.688732266148707e+00   6.383210541950382e+00   3.001428022993494e+00  3.35080100e-02   3.80717110e-01  -2.17938200e-02
C     4.919596236442755e+00   7.096741354908319e+00   2.997292691244994e+00 -2.32803260e-01  -3.94853000e-03   7.38272700e-02
C     6.142723163354400e+00   6.384768004292409e+00   3.003216131856550e+00  1.74951370e-01   5.86099100e-02  -5.91841500e-02
C     7.372512686693975e+00   7.094447791069515e+00   3.003359291235141e+00  1.31617240e-01   1.94208000e-03  -2.96457300e-02
C     8.604935213482968e+00   6.385239773426273e+00   2.998707760708551e+00 -8.95120600e-02   8.08580000e-02   1.92909900e-02
C     9.835520652730191e+00   7.099223959655178e+00   2.997144258851758e+00 -1.53852790e-01  -3.72535740e-01   3.09245500e-02
C     1.106209696176413e+01   6.383167326952082e+00   2.998030976205588e+00  1.80070000e-01   2.19654380e-01   5.34265900e-02
C     1.229379373188818e+01   7.098361864885585e+00   3.002806294731709e+00 -2.03475530e-01  -1.83280960e-01  -3.39072300e-02
