26
Lattice="8.88768389401873 1.33226762955019e-15 0 4.44384194700937 7.69696003302603 0 0 0 30 " PBC="1 1 1" Properties=species:S:1:pos:R:3:force:R:3 Energy="-208.3344677"
C     6.200840179289252e-01   7.682571332919917e-01   3.699798300000000e+00 -4.69564820e-01  -2.52327224e+00   6.73274200e-01
C     2.965091901778376e+00   9.991046663901530e-02   3.722876100000000e+00  1.68911439e+00   4.47051530e-01   2.01716800e-01
C     4.352574408308580e+00   4.589729593121126e-01   3.639229200000000e+00 -1.87210000e-03   1.35238419e+00  -1.06807710e-01
C     9.815271331647232e+00   7.161159171422040e+00   3.514411200000000e+00  3.74378310e-01   1.78762955e+00  -1.48722800e-01
C     1.121332298302916e+01   7.591923926768206e+00   3.464842500000000e+00 -1.49877682e+00  -1.49062020e-01   3.52334220e-01
C     1.226329129360560e+01   6.677145153257126e+00   3.493806000000000e+00  2.98975800e-02  -1.94619565e+00   8.39641390e-01
C     4.737792984356834e+00   7.036668847775220e+00   3.673114800000000e+00  2.14555500e-01   1.50775461e+00  -2.01945070e-01
C     5.774559040436920e+00   6.085672567630176e+00   3.749691900000000e+00 -3.70546470e-01  -2.53748038e+00  -6.83433590e-01
C     7.148479519019614e+00   6.397283686566325e+00   3.674687700000000e+00 -2.26327917e+00   2.38598058e+00   3.40430180e-01
C     8.123236026838885e+00   5.436115411924035e+00   3.533954400000000e+00 -4.92417340e-01  -1.80280933e+00   4.38537900e-02
C     9.445470624182704e+00   5.808113492593151e+00   3.476410200000000e+00  2.11879826e+00   1.02158356e+00  -2.84086070e-01
C     1.051147867118986e+01   4.892068646126735e+00   3.455058000000000e+00  3.59092670e-01  -1.59957747e+00   1.43290378e+00
C     1.188579571829171e+01   5.302181611046810e+00   3.583864800000000e+00  1.20294818e+00  -1.36237096e+00  -6.36163360e-01
C     4.071634767477192e+00   4.296819085243466e+00   3.699320100000000e+00 -1.58859134e+00  -4.17706650e-01  -2.57269310e-01
C     5.453401960007422e+00   4.659462665540120e+00   3.704010600000000e+00 -2.05026274e+00   1.21645418e+00   3.52709720e-01
C     6.405306232783213e+00   3.646855991865341e+00   3.674758500000000e+00  1.41956844e+00  -9.16586200e-01  -9.57242470e-01
C     7.782492446426552e+00   4.041109909430802e+00   3.527675100000000e+00 -1.87239867e+00   1.10085286e+00   8.23435220e-01
C     8.766979235016935e+00   3.095212018640030e+00   3.600066900000000e+00  2.15547833e+00  -1.73103818e+00   4.28626780e-01
C     1.014730226782785e+01   3.513224604547694e+00   3.659269500000000e+00  1.39482808e+00  -8.05127000e-01  -1.45219087e+00
C     2.335178151974165e+00   2.516093900526835e+00   3.656552400000000e+00 -1.39489572e+00  -6.30636900e-02   1.62137341e+00
C     3.700226855657586e+00   2.883991964527170e+00   3.717056400000000e+00  4.68581620e-01   1.03075492e+00  -5.89039760e-01
C     4.717824888293450e+00   1.875916029404450e+00   3.656301900000000e+00 -1.23276238e+00  -1.19955563e+00   1.06172440e-01
C     6.062018419525876e+00   2.226858998941900e+00   3.599755800000000e+00  7.74501260e-01   1.79578886e+00   5.22857740e-01
C     7.086765971730072e+00   1.244493527285791e+00   3.568701300000000e+00  7.48728310e-01   1.57502974e+00   1.31580000e-04
C     8.464132338750154e+00   1.676140816068998e+00   3.673875300000000e+00 -1.18979239e+00   1.57168990e+00  -7.72175090e-01
C     1.960189970031309e+00   1.128787667151611e+00   3.833632200000000e+00  1.47468905e+00   2.60890940e-01  -1.65038513e+00
