32
Lattice="9.86 0 0 4.93 8.53901048131456 0 0 0 30 " PBC="1 1 1" Properties=species:S:1:pos:R:3:force:R:3 Energy="-253.48165763"
C     5.011904308500000e+00   8.497073777120729e+00  -3.850985999999992e-01 -4.02643778e+00   8.80680550e-01  -6.46591850e-01
C     1.237318335500000e+00   7.266365750972328e-01  -4.783448999999997e-01  5.39380840e-01  -9.23903550e-01   1.18220995e+00
C     2.453615052400000e+00   6.950703296657119e-02  -4.313079000000002e-01  2.53304963e+00  -5.67641620e+00  -9.39196640e-01
C     3.755660984800000e+00   6.044178034870976e-01  -3.469964999999995e-01 -9.22595370e-01   4.75710959e+00   1.97346030e+00
C     9.939368020700000e+00   8.512219249228895e+00  -1.689761999999995e-01 -1.96863903e+00  -5.63024200e-01  -6.89380310e-01
C     6.248003208500000e+00   7.445295592174440e-01  -1.866120000000002e-01 -1.68614118e+00  -5.06661793e+00  -4.31251920e-01
C     1.236270577390000e+01   8.507022407450767e+00  -2.405453999999985e-01  8.51596720e-01  -1.25995224e+00   1.35537444e+00
C     8.647477641800000e+00   6.655366248987457e-01  -4.022046000000010e-01  8.36705190e-01   6.92964860e-01   8.24898410e-01
C     1.103929943330000e+01   2.081404725075676e+00  -1.670157000000003e-01  1.50126892e+00   7.70113550e-01  -7.17063680e-01
C     2.412443882900000e+00   2.774149711407475e+00   4.737630000000000e-02  2.63994856e+00  -1.89395667e+00   1.91046400e-02
C     3.721816682699999e+00   2.080049413332290e+00  -4.295129999999858e-02  1.72652280e-01  -1.07559068e+00  -1.83611569e+00
C     4.982728519200000e+00   2.790343005491641e+00  -1.767609000000014e-01 -3.17521734e+00   9.59349550e-01   4.11217080e-01
C     6.173660386100000e+00   2.078663190370967e+00  -3.530607000000003e-01 -3.04784400e-01   1.93502080e+00   3.18712190e-01
C     7.359788855399999e+00   2.779192082486019e+00  -4.374018000000000e-01  1.94542122e+00   6.05394630e-01   4.35959470e-01
C     8.584339033199999e+00   2.129335813311907e+00  -3.642672000000005e-01  2.05028885e+00  -2.80601300e+00  -1.00413485e+00
C     9.862936948899998e+00   2.782443993847118e+00  -2.646210000000018e-01 -1.83164780e+00   1.97755171e+00   1.24796244e+00
C     2.518759973800000e+00   4.108094545039285e+00   2.889489000000000e-01 -1.50792115e+00   6.07854714e+00  -9.86429830e-01
C     3.816074190800000e+00   4.941528951160402e+00   1.224912000000000e-01 -4.00779687e+00  -1.87192868e+00   6.64769460e-01
C     4.965956609900000e+00   4.257069110527033e+00  -1.534881000000006e-01  2.31389295e+00  -2.91030296e+00   5.47334980e-01
C     6.233227505499999e+00   4.890843178143323e+00  -2.466279000000000e-01 -2.02175629e+00   2.46400889e+00  -1.74413632e+00
C     7.437918607999999e+00   4.166567468663600e+00  -3.775569000000019e-01 -2.10822390e+00   1.08546530e+00   1.62294380e-01
C     8.611044744600001e+00   4.883540530990722e+00  -2.662821000000015e-01  2.03562182e+00  -2.16455570e-01   7.46954350e-01
C     9.864593379599999e+00   4.213156139062271e+00  -3.929639999999779e-02  3.81911940e-01   2.40064980e-01  -5.38433760e-01
C     1.106222072880000e+01   4.955860655569824e+00   2.247645000000000e-01  1.98801597e+00  -5.54502000e-01  -4.55578950e-01
C     3.723602378000000e+00   6.333313540789436e+00   9.424589999999999e-02  4.70475460e-01   1.75326027e+00  -1.11606903e+00
C     4.900941347500000e+00   7.105533744751843e+00  -2.977118999999995e-01  1.23232433e+00  -2.33134583e+00   3.96302620e-01
C     6.114194775400000e+00   6.350262281130768e+00  -4.634451000000013e-01  2.40944543e+00  -3.84188930e-01   1.22302216e+00
C     7.394364325800000e+00   7.054241189650054e+00  -5.126357999999982e-01 -1.46452042e+00   1.18686870e+00   1.11060818e+00
C     8.576664797999999e+00   6.266586638854942e+00  -2.314362000000010e-01  9.73979950e-01   4.65162017e+00  -8.94220810e-01
C     9.811188513699999e+00   7.099990731488855e+00  -9.506370000000075e-02  2.07993955e+00  -1.15937814e+00   3.21629190e-01
C     1.109921446280000e+01   6.476077257004555e+00   1.293663000000000e-01 -2.22078252e+00  -5.26454608e+00   4.55521780e-01
C     1.235267263230000e+01   7.028814151193234e+00   1.178676000000000e-01  2.90544470e-01   3.92010196e+00  -1.39873238e+00
