26
Lattice="8.88768389401873 1.33226762955019e-15 0 4.44384194700937 7.69696003302603 0 0 0 30 " PBC="1 1 1" Properties=species:S:1:pos:R:3:force:R:3 Energy="-206.68915304"
C     5.780598489470609e-01   7.932816436807283e-01   3.520416300000000e+00  8.23075750e-01  -2.23242303e+00  -6.91224220e-01
C     2.970070249093625e+00   1.939756309224477e-01   3.743103900000000e+00  4.71915570e-01  -1.75745669e+00   7.50594700e-02
C     4.330863218680267e+00   5.906417757613106e-01   3.823248000000000e+00  1.85732320e+00  -2.05982981e+00  -1.12648443e+00
C     9.889836910929283e+00   7.239156854673246e+00   3.805797300000000e+00 -2.52120675e+00   3.55045024e+00   1.57933080e-01
C     6.795317885675091e+00   3.251503795073200e-03   3.659734200000000e+00 -2.83089196e+00   1.72529120e-01  -7.09950080e-01
C     1.217613746557116e+01   6.720600881103301e+00   3.546563100000000e+00  3.52253749e+00  -1.73571306e+00  -2.33716240e-01
C     4.702280910208317e+00   7.015982497998593e+00   3.436576800000000e+00  4.44738790e-01   3.89273747e+00   1.42269450e-01
C     5.812379601618630e+00   6.136539005562836e+00   3.384936000000000e+00 -3.25149155e+00  -2.94239139e+00   1.02502714e+00
C     7.114947531997290e+00   6.426381274263738e+00   3.744298200000000e+00 -3.07803900e-01   5.38331580e+00  -1.63759447e+00
C     8.143175145771950e+00   5.546375057080188e+00   3.707232000000000e+00 -7.19260060e-01  -3.11879269e+00   1.42874667e+00
C     9.478150326840963e+00   5.906116806475933e+00   3.844131900000000e+00  4.59062670e-01   1.09435919e+00   6.71646000e-02
C     1.047626842284611e+01   4.963532764856477e+00   3.855778200000000e+00  1.90630640e+00  -2.71337674e+00  -1.40324622e+00
C     1.182294477304728e+01   5.369369452723084e+00   3.616515900000000e+00  1.65655464e+00  -1.99140285e+00  -8.08348800e-02
C     4.036341908117427e+00   4.377122469841259e+00   3.412558500000000e+00 -1.64263012e+00  -5.68296080e-01   1.82585320e+00
C     5.410171021329578e+00   4.719284670406886e+00   3.351068700000000e+00 -3.84040270e-01   1.56185787e+00  -3.66223090e-01
C     6.400383789121439e+00   3.740302628440763e+00   3.392323800000000e+00  6.44352640e-01  -1.46279857e+00   1.96795615e+00
C     7.748483146389224e+00   4.144571291610058e+00   3.720230700000000e+00  1.30990000e-01   3.62209970e-01  -2.27726556e+00
C     8.756257666488521e+00   3.180569612041524e+00   3.644062500000000e+00  2.52790761e+00  -2.03901511e+00   1.12566310e-01
C     1.018219464823348e+01   3.559074702720002e+00   3.719950500000000e+00 -2.69316700e-01  -4.18490050e-01   1.23752871e+00
C     2.398047494804818e+00   2.572937335801190e+00   3.804037200000000e+00 -3.98752245e+00  -3.41282750e-01  -2.07214443e+00
C     3.729313978729909e+00   2.975962862956040e+00   3.692443800000000e+00  2.71932330e-01   2.94438730e-01  -1.37434465e+00
C     4.706341245283562e+00   1.920748897339193e+00   3.578272500000000e+00 -1.06634260e-01   1.49621749e+00   1.50245964e+00
C     6.064987350379089e+00   2.303459299099661e+00   3.532710600000000e+00 -1.55961810e-01   2.28506387e+00  -1.74258391e+00
C     7.072966998237176e+00   1.361945981589979e+00   3.400770000000000e+00  1.51585664e+00  -2.47363010e-01   2.00162022e+00
C     8.453806894284611e+00   1.749019789991454e+00   3.484720800000000e+00 -7.25456500e-01   1.98844507e+00   3.17969700e-02
C     1.961157438882155e+00   1.161115592004013e+00   3.558213000000000e+00  6.69662620e-01   1.54700703e+00   2.13963057e+00
