32
Lattice="9.86 0 0 4.93 8.53901048131456 0 0 0 30 " PBC="1 1 1" Properties=species:S:1:pos:R:3:force:R:3 Energy="-256.71292072"
C     9.856050133300000e+00   2.254548959727064e-01   3.703279800000000e+00 -3.28759760e-01   1.35534496e+00   6.13548000e-03
C     1.202739660600000e+00   9.930452484528576e-01   3.657131400000000e+00  1.15015972e+00  -5.62845780e-01  -6.00449000e-03
C     2.454355341200000e+00   2.747059444489360e-01   3.810349500000000e+00 -4.72557790e-01  -8.61027640e-01   2.47980420e-01
C     3.705556260900000e+00   9.215958467724008e-01   3.827351100000000e+00 -8.84925800e-01   3.18027705e+00  -8.94478190e-01
C     4.957785874400001e+00   2.579954424999952e-01   3.822645600000000e+00 -1.66405280e+00   7.66936030e-01   2.03973710e-01
C     6.148593110899999e+00   1.027252951386262e+00   3.763307999999999e+00 -2.43610610e-01  -2.33238056e+00   6.66047900e-02
C     7.337663261900000e+00   2.355478355798568e-01   3.708588600000000e+00  2.08988605e+00   1.93348107e+00  -8.83736000e-03
C     8.614739779600001e+00   9.257464035964144e-01   3.683353200000000e+00 -5.63454400e-01   6.08810040e-01  -2.53276060e-01
C     1.108734721330000e+01   2.414612967344978e+00   3.467605500000000e+00 -6.94480720e-01  -9.36675850e-01   2.94660210e-01
C     2.462011927000000e+00   3.102702058212557e+00   3.476587500000000e+00 -9.31077370e-01   2.77088520e-01  -7.08098000e-02
C     3.644944277300000e+00   2.417756006322457e+00   3.655860000000000e+00  2.19696678e+00  -2.27567696e+00   5.19478070e-01
C     4.873583101299999e+00   3.144292248046550e+00   3.729810000000000e+00  4.12101510e-01   1.21189230e-01   2.17288670e-01
C     6.109332612199999e+00   2.426455977150005e+00   3.802690200000000e+00  3.87528250e-01  -1.72985060e-01  -3.15762350e-01
C     7.367240895500000e+00   3.065440292790876e+00   3.780665700000000e+00  1.04276519e+00   9.69781540e-01  -2.32792150e-01
C     8.617125850299999e+00   2.356461964415759e+00   3.635609100000000e+00  1.40127510e-01   4.06226370e-01   2.53658000e-02
C     9.858143509900000e+00   3.118091319069927e+00   3.469688700000000e+00 -1.49091055e+00  -2.56627730e-01   8.81187610e-01
C     1.232620218050000e+01   4.515288445881813e+00   3.430868400000000e+00 -1.70213683e+00   1.05458373e+00   3.32857020e-01
C     3.619101759600000e+00   5.253920281340932e+00   3.636349800000000e+00  3.30602598e+00  -3.53582080e-01   2.65196650e-01
C     4.903310508300001e+00   4.577359366961982e+00   3.760357200000000e+00  6.62677400e-02  -8.93284280e-01   1.49586030e-01
C     6.185142060300000e+00   5.234861466119885e+00   3.933868200000000e+00 -1.35545794e+00   3.91731860e-01  -5.17500770e-01
C     7.413428931600000e+00   4.487382020342022e+00   3.861201300000000e+00 -1.09206331e+00   7.85929860e-01   2.00322580e-01
C     8.626176640099999e+00   5.233198408438801e+00   3.818698200000000e+00 -5.91326770e-01  -9.97923400e-02  -2.05225550e-01
C     9.823491476599999e+00   4.550070141099683e+00   3.575495400000000e+00  1.87416324e+00  -4.37666270e-01  -5.64133700e-01
C     1.109066367360000e+01   5.269592781175923e+00   3.455912700000000e+00 -1.23856017e+00  -1.35131735e+00   6.57764060e-01
C     1.353575687590000e+01   6.649309614244097e+00   3.735917700000000e+00  2.17222990e-01   1.31630199e+00  -6.01551830e-01
C     4.933134296800000e+00   7.368763344505764e+00   3.811128900000000e+00 -9.79059810e-01  -8.10514690e-01   2.30709710e-01
C     6.155551214300000e+00   6.694964116896255e+00   3.960195600000000e+00 -4.51734000e-01  -2.52132417e+00  -4.04337660e-01
C     7.357648052200000e+00   7.366958197690291e+00   3.949099799999999e+00  1.13638118e+00   1.59279720e+00  -2.39904080e-01
C     8.581065661099998e+00   6.650338565006937e+00   3.899134200000000e+00  1.12911043e+00   9.80953450e-01  -6.16300500e-02
C     9.818312215799999e+00   7.399538109055893e+00   3.819555600000000e+00  1.19394205e+00  -2.08953233e+00  -5.64337690e-01
C     1.106208471010000e+01   6.664470627351337e+00   3.618955800000000e+00  4.35850860e-01   7.17230810e-01   1.22712830e-01
C     1.233068034600000e+01   7.377047550913040e+00   3.634665600000000e+00 -2.09433084e+00  -5.03430620e-01   5.18758060e-01
