32
Lattice="9.86 0 0 4.93 8.53901048131456 0 0 0 30 " PBC="1 1 1" Properties=species:S:1:pos:R:3:force:R:3 Energy="-250.97885061"
C     5.019342051600000e+00   8.103521457860628e+00  -8.668562999999985e-01 -2.84394067e+00   1.97292750e+00  -3.19274250e-01
C     1.256503923500000e+00   3.110352499262008e-01  -8.232411000000006e-01  1.83630544e+00   2.50769328e+00  -1.05875237e+00
C     7.424186290200000e+00   8.197530669058931e+00  -8.540825999999981e-01  2.20796871e+00  -5.91979960e-01  -6.43923000e-03
C     3.751973295500000e+00   3.527915235140296e-01  -9.498560999999981e-01  1.06378569e+00   2.06819979e+00  -2.03949730e-01
C     1.001830022940000e+01   8.204093923294069e+00  -9.025077000000010e-01 -3.89404987e+00   1.94506366e+00  -8.44245340e-01
C     6.322229140599999e+00   3.378751530570416e-01  -9.445164000000013e-01 -2.21798149e+00   6.30371550e-01   1.32896037e+00
C     1.238424666940000e+01   8.200654068312305e+00  -8.530692000000002e-01  5.11955549e+00  -3.55753368e+00  -1.97191893e+00
C     8.714034120800001e+00   3.889396311889088e-01  -8.054468999999997e-01  4.40405050e-01  -3.81909724e+00   1.63759780e-01
C     1.328014756700000e+00   1.786858731336879e+00  -1.070419200000000e+00  1.14747950e+00   9.76695730e-01   2.62996040e-01
C     2.581851303700000e+00   2.603295212416298e+00  -1.257886200000002e+00  9.66861420e-01  -5.06671581e+00   1.69348630e-01
C     3.829740101500000e+00   1.836300455917127e+00  -1.187136600000002e+00 -9.79629770e-01  -4.21013429e+00   1.53189663e+00
C     5.148418917200000e+00   2.355876444467146e+00  -1.077999299999998e+00 -2.53042582e+00   2.11062640e+00  -1.14902376e+00
C     6.416397662200001e+00   1.699230295719757e+00  -8.544251999999979e-01 -3.14701105e+00   2.71802488e+00  -2.51791380e-01
C     7.571549856899999e+00   2.493400367681423e+00  -7.590891000000006e-01 -1.75969611e+00  -1.79689834e+00  -3.90594690e-01
C     8.742286422499999e+00   1.746922120882338e+00  -7.349382000000020e-01  3.56053268e+00   3.49769469e+00  -1.44771464e+00
C     1.003432667340000e+01   2.550202804685536e+00  -1.067817900000001e+00 -4.29748150e+00  -1.00124425e+00   1.29478808e+00
C     2.607825008700000e+00   3.935689959475674e+00  -1.518893100000000e+00 -2.31835066e+00   2.56855198e+00  -1.28259712e+00
C     3.831115571500000e+00   4.715545831999402e+00  -1.641356999999999e+00 -8.92251600e-01  -9.01021523e+00   1.50534645e+00
C     4.958883982600000e+00   3.724530391727745e+00  -1.293742200000001e+00  4.71301030e+00   7.29309198e+00   6.64096850e-01
C     6.259790394800000e+00   4.593043052900702e+00  -1.008358200000000e+00 -3.58310127e+00  -4.80134590e-01  -7.06968300e-02
C     7.436418754100000e+00   3.865359765898831e+00  -8.999643000000006e-01  2.47901447e+00   2.75295754e+00  -7.46927850e-01
C     8.661100908000000e+00   4.639679541758062e+00  -1.169419500000000e+00 -1.70030473e+00   1.87031697e+00   2.24078702e+00
C     9.848130531999999e+00   4.002722301815036e+00  -1.237118700000000e+00  5.45453136e+00  -3.39548937e+00  -1.43399822e+00
C     1.116937600430000e+01   4.626813387717321e+00  -1.581007199999998e+00 -8.42962320e-01  -5.33696370e-01   1.58469184e+00
C     3.758050062800000e+00   6.025047235791583e+00  -1.473836700000000e+00  2.30118395e+00   4.84028949e+00   1.67092234e+00
C     4.979140514500000e+00   6.694977437752605e+00  -1.095480300000002e+00 -1.08427860e-01   1.95064415e+00   6.55991670e-01
C     6.192429635600000e+00   6.092887283132249e+00  -8.395281000000026e-01  1.52312280e+00  -4.58303538e+00  -2.07865287e+00
C     7.451302226899999e+00   6.766300035127433e+00  -8.534871000000024e-01 -1.09835663e+00   1.14485280e+00   7.23976190e-01
C     8.666626057599998e+00   6.103280112787457e+00  -9.855584999999998e-01  1.27945139e+00  -7.51232240e-01  -9.56876280e-01
C     9.910567009999999e+00   6.872799513125146e+00  -1.055740799999999e+00  1.57157588e+00  -6.41817060e+00  -1.38938626e+00
C     1.120455125850000e+01   5.989381923769244e+00  -1.448814600000002e+00 -1.09989150e+00   5.74931413e+00   1.78279119e+00
C     1.244375379070000e+01   6.795465537762501e+00  -1.302943200000001e+00 -2.35092127e+00  -1.38173918e+00   2.24866600e-02
