32
Lattice="9.86 0 0 4.93 8.53901048131456 0 0 0 30 " PBC="1 1 1" Properties=species:S:1:pos:R:3:force:R:3 Energy="-257.55213202"
C     1.239000451500000e+00   7.781749683107400e-01   3.566610000000000e+00 -2.13663261e+00  -7.79747810e-01  -5.65463600e-02
C     2.417106726200000e+00   1.490713637105493e+00   3.568895100000000e+00  2.03193325e+00  -2.00905000e-02  -3.20249910e-01
C     3.672190711100000e+00   7.921249789517064e-01   3.537998700000000e+00 -6.15940330e-01  -1.95843844e+00   1.57422850e-01
C     4.913485831099999e+00   1.428073249416413e+00   3.567342600000000e+00  7.28526510e-01   1.67543950e+00  -2.58613560e-01
C     6.156197438700000e+00   7.237816423333496e-01   3.576578100000000e+00  3.89630380e-01   9.63901270e-01   4.11409300e-02
C     7.394499358499999e+00   1.475516162423503e+00   3.555689100000000e+00 -8.23382520e-01   2.33150800e-01  -2.92641360e-01
C     8.624155488000000e+00   7.842485102948495e-01   3.508510500000000e+00  2.51768750e-01  -1.01066026e+00   4.81776870e-01
C     9.861756115300000e+00   1.491117276130882e+00   3.548289900000000e+00 -3.61471520e-01   2.15213870e-01  -3.20021960e-01
C     2.413252748000000e+00   2.896497251295648e+00   3.539271000000000e+00  1.38055043e+00   4.13437270e-01   1.30354450e-01
C     3.691172345000000e+00   3.567017071930312e+00   3.545646000000000e+00 -6.76175890e-01   1.53731226e+00   5.34765100e-02
C     4.922925055599999e+00   2.877149049009435e+00   3.539430300000000e+00  3.08098400e-02  -6.63474190e-01   8.66053000e-02
C     6.150531882699999e+00   3.609282355932854e+00   3.526615500000000e+00 -1.79311290e-01  -8.91656910e-01   2.79012730e-01
C     7.385675398000000e+00   2.913750663530907e+00   3.532689300000000e+00  1.05052880e-01  -9.41793840e-01   1.99156100e-02
C     8.624792937000000e+00   3.619436861805565e+00   3.529562400000000e+00 -6.94954910e-01  -4.89184460e-01   1.79981050e-01
C     9.842984006400000e+00   2.924696821065219e+00   3.528756600000000e+00  2.84325640e-01  -1.22212204e+00   3.22016400e-02
C     1.106553447760000e+01   3.619727529722304e+00   3.528005700000000e+00  2.01688220e-01   9.44144240e-01   3.73210100e-01
C     3.707709832800000e+00   5.025869270011991e+00   3.573812400000000e+00 -1.12428220e+00  -6.00823750e-01   2.62244300e-02
C     4.919686982299999e+00   5.739704843718445e+00   3.567168600000000e+00  5.11415210e-01  -7.77988620e-01  -1.73096850e-01
C     6.162063547100000e+00   5.007895079902115e+00   3.557510100000000e+00 -1.15107677e+00   6.10562270e-01  -7.99067000e-02
C     7.377484055100000e+00   5.691972287475874e+00   3.564576600000000e+00  2.49128330e-01   2.18154478e+00  -3.65504900e-02
C     8.612617168100000e+00   5.016919789298217e+00   3.576302400000000e+00  4.71157050e-01   1.06455359e+00  -2.70260930e-01
C     9.833249277699998e+00   5.773117991726686e+00   3.590138100000000e+00  5.08446790e-01  -1.30154364e+00  -6.49544300e-02
C     1.107773455140000e+01   5.050543594694998e+00   3.589627500000000e+00 -2.08854580e-01   1.16506020e-01  -5.52529800e-02
C     1.231865050510000e+01   5.766978955532194e+00   3.617974800000000e+00  2.43744830e-01  -2.48059164e+00  -3.88193670e-01
C     4.902589643700000e+00   7.145864686710349e+00   3.533719500000000e+00  2.73791650e-01   1.56348750e+00   2.96295640e-01
C     6.126915013500000e+00   7.895586562030367e+00   3.562800000000000e+00  1.01727068e+00  -1.29318793e+00  -2.46410430e-01
C     7.367426362100000e+00   7.150147342026488e+00   3.546659400000000e+00  8.40794800e-02   7.13200300e-02   1.15807800e-02
C     8.609933571899999e+00   7.873064067988319e+00   3.514816500000000e+00 -7.35522300e-01   8.71155460e-01   4.99688830e-01
C     9.848237611600000e+00   7.182496956279445e+00   3.573243300000000e+00 -4.70384480e-01  -3.78189650e-01   5.95126900e-02
C     1.109306083680000e+01   7.851728923353516e+00   3.610426200000000e+00 -6.95867350e-01   7.53130260e-01  -3.51732380e-01
C     1.230124464710000e+01   7.144602962521825e+00   3.589050000000000e+00  1.35424981e+00   1.63340888e+00   7.84570900e-02
C     1.354168135550000e+01   7.878787425152644e+00   3.531279300000000e+00 -2.43712980e-01  -3.87743200e-02   1.07574530e-01
