32
Lattice="9.86 0 0 4.93 8.53901048131456 0 0 0 30 " PBC="1 1 1" Properties=species:S:1:pos:R:3:force:R:3 Energy="-253.09278497"
C     1.225270845200000e+00   7.717921433670447e-01   3.395780400000000e+00  2.34992400e-02  -7.89970430e-01   2.73699113e+00
C     2.474659940600000e+00   1.429022531211475e+00   3.458039400000000e+00 -1.11406969e+00   4.82936623e+00  -1.05289600e-01
C     3.660197401500000e+00   8.454323135762504e-01   3.812279400000000e+00  2.56129782e+00  -1.79308621e+00   3.01443050e-01
C     4.958866924800000e+00   1.527167697525870e+00   3.785194800000000e+00 -2.66851562e+00   2.49419255e+00  -4.75851660e-01
C     6.146589558900000e+00   8.122497188509704e-01   3.735665400000000e+00 -3.16767430e-01  -2.40697610e-01   1.75923201e+00
C     7.320106250099999e+00   1.565582058582141e+00   3.916043700000000e+00  2.38328215e+00  -4.96834490e-01  -2.30695617e+00
C     8.591723532300000e+00   7.621966011203545e-01   3.873724500000000e+00 -5.41488800e-02   6.06725292e+00  -1.06897142e+00
C     9.853710601800000e+00   1.486299651808171e+00   3.487875900000000e+00 -1.80069316e+00  -4.96666680e-01   2.18433019e+00
C     2.442583043500000e+00   2.995947263801492e+00   3.398982600000000e+00 -2.21619199e+00  -4.10987442e+00  -4.70112900e-02
C     3.591301538900000e+00   3.701128294216153e+00   3.485458500000000e+00  5.16876968e+00  -7.09184290e-01   1.02572099e+00
C     4.965298257700000e+00   3.024341181449588e+00   3.715284300000000e+00 -5.01516063e+00  -3.88914917e+00  -9.43153470e-01
C     6.135759236299999e+00   3.665692937746039e+00   3.712236000000000e+00  3.24696120e-01   5.27134832e+00   1.99786220e-01
C     7.326883767600000e+00   3.005392690243944e+00   3.687897900000000e+00  2.91183468e+00  -3.08139922e+00   1.55162398e+00
C     8.638046058800001e+00   3.617119886701921e+00   3.709794000000000e+00 -2.40978273e+00   1.21385791e+00   8.39595800e-01
C     9.811503688599998e+00   2.907117901750463e+00   3.671919600000000e+00  1.49402842e+00  -1.55729126e+00  -2.18008101e+00
C     1.101564208880000e+01   3.644630187545547e+00   3.459495900000000e+00  1.05652060e+00  -1.56988047e+00  -3.02604800e-01
C     3.638355874600000e+00   5.084890910449751e+00   3.535795200000000e+00  1.36302512e+00   2.62968608e+00   6.48685800e-01
C     4.930224709399999e+00   5.899423192192129e+00   3.702567600000000e+00 -1.99367807e+00  -3.17371700e+00   2.97724370e-01
C     6.130620549400000e+00   5.189834153787483e+00   3.817034100000000e+00  1.57562518e+00  -2.53162758e+00  -1.35309326e+00
C     7.425732584699999e+00   5.800422160857323e+00   3.854571300000000e+00 -1.23544130e-01  -5.43985480e-01   1.52118093e+00
C     8.691955214399998e+00   5.026545047301378e+00   3.891031200000000e+00 -5.09989641e+00  -5.12369620e-01  -8.93641910e-01
C     9.824818928399999e+00   5.721858909545979e+00   3.790993500000000e+00  2.27439913e+00   2.95086351e+00   3.68067880e-01
C     1.098069484710000e+01   5.012520661879130e+00   3.419062200000000e+00  3.27804576e+00   3.08088082e+00   1.97341320e+00
C     1.228569123660000e+01   5.771907586991145e+00   3.566840700000000e+00 -2.01764821e+00   4.87340390e-01  -1.11574446e+00
C     4.906255887500000e+00   7.271626720719160e+00   3.816783900000000e+00 -1.17384330e+00   7.68973760e-01   7.96369030e-01
C     6.149708868499999e+00   7.938198444468291e+00   3.871231499999999e+00  1.16067447e+00   1.60724920e-01  -1.83563404e+00
C     7.451236707200000e+00   7.212168309895350e+00   3.989222400000000e+00 -3.13247993e+00   4.89732600e-01  -3.45509240e-01
C     8.615678402299999e+00   7.952848995529037e+00   4.093004700000000e+00  1.74961838e+00  -3.84270270e-01  -1.14364628e+00
C     9.848267635300001e+00   7.162218087241017e+00   4.042012500000000e+00 -9.41410500e-02   1.44205651e+00  -2.06061328e+00
C     1.105393167330000e+01   7.911359139068185e+00   3.746616600000000e+00 -1.36852438e+00  -2.69838820e-01   9.68879110e-01
C     1.224536999910000e+01   7.218804914230510e+00   3.669845700000000e+00  2.02966915e+00  -8.64316530e-01   1.25828274e+00
C     1.346704081040000e+01   7.979594969544599e+00   3.940428000000000e+00  1.24409968e+00  -4.87211696e+00  -2.25352453e+00
