32
Lattice="9.86 0 0 4.93 8.53901048131456 0 0 0 30 " PBC="1 1 1" Properties=species:S:1:pos:R:3:force:R:3 Energy="-256.14809419"
C     1.209351875200000e+00   3.256305535891408e-01   3.455570700000000e+00 -1.02903658e+00   1.60695657e+00  -1.18614200e-02
C     2.433271259500000e+00   1.054823537643876e+00   3.502523700000000e+00  1.33808047e+00  -7.70695620e-01  -1.84384630e-01
C     3.742395883100000e+00   3.151727420641800e-01   3.484768200000000e+00 -3.19347375e+00   1.50259066e+00   7.75475720e-01
C     4.885253791699999e+00   1.096186504408996e+00   3.685680900000000e+00  5.45918470e-01   4.42095860e-01  -1.58215129e+00
C     6.120097612299999e+00   3.797401282482808e-01   3.574591800000000e+00 -4.64879290e-01   5.27540250e-01   7.11097470e-01
C     7.352545206400000e+00   1.042036625620390e+00   3.440140500000000e+00  1.03283400e-02   6.15136040e-01   1.82509370e-01
C     8.573297706600000e+00   3.530800566781488e-01   3.412682700000000e+00 -3.86512710e-01  -1.72005061e+00   6.32962700e-01
C     9.768663862000000e+00   1.028588708795648e+00   3.487276500000000e+00  3.19296011e+00   1.59693803e+00  -4.17020010e-01
C     2.443508503100000e+00   2.474034404253412e+00   3.610603200000000e+00 -1.73921425e+00  -6.14472050e-01   4.13844810e-01
C     3.645480957100000e+00   3.193056316755105e+00   3.690185100000000e+00 -9.63599170e-01   1.16689018e+00  -1.86737920e-01
C     4.820645007800000e+00   2.553471025556651e+00   3.631365600000000e+00  5.25922079e+00  -3.19314026e+00  -2.45284600e-01
C     6.162430437699999e+00   3.202956616285826e+00   3.477738300000000e+00 -2.53290740e+00  -1.12241950e-01   7.58126060e-01
C     7.374213838200000e+00   2.456691588578427e+00   3.445321200000000e+00 -1.14433830e+00   4.14296160e-01  -3.74637670e-01
C     8.564477098499999e+00   3.185228947408508e+00   3.468920400000000e+00  1.25460052e+00   6.92898140e-01   1.06887549e+00
C     9.814386851200000e+00   2.478006324978184e+00   3.551797800000000e+00 -5.15414270e-01  -8.18776760e-01  -1.79927160e-01
C     1.104541593640000e+01   3.169277478101134e+00   3.681830700000000e+00  2.38446050e-01  -3.13572340e-01  -7.19398600e-02
C     3.661116156300000e+00   4.598344497557211e+00   3.714595200000000e+00 -1.43777101e+00   9.55608190e-01  -1.16494620e-01
C     4.847510894899999e+00   5.346497415091632e+00   3.647204100000000e+00  2.48081301e+00  -5.82607510e-01  -9.88533700e-01
C     6.146040751299999e+00   4.611127054685351e+00   3.485625900000000e+00 -1.22829489e+00   1.46876154e+00   8.31205210e-01
C     7.366498092399999e+00   5.370902163213787e+00   3.527426700000000e+00 -7.19772160e-01  -1.30145532e+00  -1.90577350e-01
C     8.554824257100000e+00   4.618285477950945e+00   3.636267000000000e+00  1.40302185e+00  -3.39478190e-01  -5.21663150e-01
C     9.830716440899998e+00   5.285001169416769e+00   3.787886700000000e+00 -1.48552324e+00   9.46424630e-01  -6.90489420e-01
C     1.104057709210000e+01   4.593067730640989e+00   3.803327100000000e+00 -5.58760850e-01  -1.85040013e+00  -2.88660720e-01
C     1.224419715210000e+01   5.242148828443727e+00   3.737627400000000e+00  2.37235217e+00   4.52148931e+00   4.66676000e-03
C     4.885883747099999e+00   6.784683158449196e+00   3.543230700000000e+00  1.63567515e+00  -1.95925357e+00  -4.47437200e-02
C     6.155402969200000e+00   7.470619393994557e+00   3.422420100000000e+00 -1.57221625e+00  -2.74131680e-01   4.41652430e-01
C     7.359884596000000e+00   6.779375565705142e+00   3.459745800000000e+00  1.16883424e+00  -5.69790870e-01  -1.57687550e-01
C     8.622952715899999e+00   7.441784094894749e+00   3.454401000000000e+00  2.16974720e-01  -3.21749160e-01   9.43986600e-01
C     9.831832198500001e+00   6.701293914584870e+00   3.681798600000000e+00  8.36595900e-02   1.89790169e+00   7.88333100e-02
C     1.103165463020000e+01   7.534508270405917e+00   3.730626600000000e+00  1.32497650e+00  -3.91055574e+00  -1.07980912e+00
C     1.229136946270000e+01   6.751429689936932e+00   3.652865100000000e+00 -8.26897820e-01  -6.46749500e-01   5.63162300e-01
C     1.354938881890000e+01   7.450406958457664e+00   3.533718300000000e+00 -2.72725002e+00   9.43594030e-01  -7.37943200e-02
