32
Lattice="9.86 0 0 4.93 8.53901048131456 0 0 0 30 " PBC="1 1 1" Properties=species:S:1:pos:R:3:force:R:3 Energy="-255.99671506"
C     4.930753747700000e+00   8.507628506414639e+00   3.496556400000000e+00  4.97381970e-01   2.13667830e+00  -9.95471400e-02
C     1.245970929200000e+00   7.330316962160192e-01   3.520706700000000e+00 -1.38984473e+00  -9.14856900e-01   8.72334200e-02
C     2.496994023800000e+00   3.323417034857920e-02   3.487482000000000e+00 -4.24278580e+00  -1.91345463e+00  -3.98283920e-01
C     3.645414895100000e+00   7.231442905911224e-01   3.475457700000000e+00  3.98648403e+00  -4.76627100e-01  -3.96879700e-02
C     9.815904502399999e+00   8.517485000821598e+00   3.443196000000000e+00  2.16226555e+00   5.95783930e-01  -4.69997550e-01
C     6.172894806400000e+00   6.801981058929056e-01   3.466006800000000e+00 -1.61763678e+00   8.42223960e-01  -2.21645760e-01
C     7.413105030599999e+00   5.169909739074080e-02   3.512285400000000e+00 -5.64115360e-01  -1.41971058e+00  -8.23780880e-01
C     8.630142529299999e+00   7.460500154235128e-01   3.517958400000000e+00  9.11579220e-01  -1.10172171e+00   1.81547010e-01
C     1.105684934590000e+01   2.146793222507533e+00   3.580594800000000e+00  2.44438580e+00   2.09378740e-01   1.17333380e-01
C     2.521582891800000e+00   2.816345658644918e+00   3.601510800000000e+00 -4.21331077e+00   2.88451770e+00  -5.49115200e-02
C     3.681768074200000e+00   2.130261612828149e+00   3.501706200000000e+00  1.63430452e+00  -4.31693270e-01  -1.04371560e-01
C     4.916700585499999e+00   2.820990624175724e+00   3.413024400000000e+00  1.42632136e+00  -3.57731800e-02  -1.45416780e-01
C     6.183764914099999e+00   2.082704020910313e+00   3.380008800000000e+00 -1.31898748e+00   2.66128123e+00   1.31086811e+00
C     7.371786996400000e+00   2.896048782465238e+00   3.535545000000000e+00  2.89020410e-01  -1.11354900e+00  -1.40990494e+00
C     8.613666863700001e+00   2.142402634098927e+00   3.544305000000000e+00  3.69348970e-01   2.36628322e+00   2.53038400e-01
C     9.853323251700001e+00   2.880943187536014e+00   3.573188100000000e+00 -4.65851780e-01  -2.23337110e-01  -4.60741360e-01
C     2.495249641900000e+00   4.302651031590112e+00   3.611767200000000e+00 -4.23479330e-01  -2.97844523e+00  -3.31882800e-01
C     3.678933028399999e+00   4.993186207399790e+00   3.510876300000000e+00  1.49159015e+00   5.17506500e-01  -4.41781770e-01
C     4.946980990600000e+00   4.247026465691610e+00   3.400030500000000e+00 -3.29649239e+00  -3.49257490e-01   8.97781990e-01
C     6.100495488600000e+00   4.973077179279810e+00   3.452015100000000e+00  2.13644580e+00   2.05800727e+00  -1.32228925e+00
C     7.335150243699999e+00   4.345863035684570e+00   3.420963000000000e+00  3.38092842e+00  -1.93372009e+00   1.15710448e+00
C     8.662407210100000e+00   5.065415562297490e+00   3.467728800000000e+00 -2.24174466e+00  -1.83241424e+00  -7.77923800e-01
C     9.893176484300000e+00   4.307985863777597e+00   3.468405300000000e+00 -1.86550212e+00  -2.74434490e-01   1.03693176e+00
C     1.112038442510000e+01   4.985396324309201e+00   3.555526500000000e+00  4.67253500e-01  -9.73334470e-01  -2.97376230e-01
C     1.351535042270000e+01   6.437206400448023e+00   3.454115100000000e+00  2.01952324e+00  -8.97447340e-01  -1.51521640e-01
C     4.930938869200000e+00   7.095414761162728e+00   3.439288800000000e+00 -1.64595197e+00   1.31141006e+00  -2.30067530e-01
C     6.128145689399999e+00   6.412273258357367e+00   3.348644100000000e+00  6.66757490e-01  -8.07763260e-01   1.07332705e+00
C     7.351211493499999e+00   7.124361579739404e+00   3.390915900000000e+00  9.88878770e-01   1.27306304e+00   1.33808380e-01
C     8.605979909100000e+00   6.478002035356852e+00   3.395732400000000e+00  9.32852080e-01  -2.12463542e+00  -6.06932500e-02
C     9.881665032899999e+00   7.098588113627411e+00   3.357281400000000e+00 -5.06212090e-01   8.10232780e-01   1.08881670e+00
C     1.113699172170000e+01   6.346360038731513e+00   3.470318100000000e+00 -1.08833593e+00   4.83307881e+00  -9.33617840e-01
C     1.234058831490000e+01   7.187499364788943e+00   3.392517300000000e+00 -9.25070060e-01  -2.69727001e+00   1.43765281e+00
