32
Lattice="9.704 0 0 4.852 8.40391051832419 0 0 0 30 " PBC="1 1 1" Properties=species:S:1:pos:R:3:force:R:3 Energy="-257.50742048"
C    -1.094793439157057e-03  -5.116199653499044e-04   3.000536064357413e+00  4.74765600e-02   8.88376000e-03  -5.59935000e-03
C     1.211839441022296e+00   6.996124451555548e-01   2.998910175920743e+00  5.17485800e-02   6.36645700e-02   1.41043400e-02
C     2.425520311614758e+00   3.976463747595222e-04   2.999534485517993e+00 -1.89152200e-02  -4.49692600e-02   8.51450000e-04
C     3.639202792436106e+00   6.992816556629061e-01   3.000891323278167e+00 -4.27411500e-02   6.84978500e-02  -1.40264700e-02
C     4.851110241499705e+00  -7.808695710566570e-04   2.999990125087878e+00  1.02748770e-01   9.16315000e-02   1.01373000e-02
C     6.065882335337699e+00   7.009540742719683e-01   3.001141396914097e+00 -6.70744800e-02  -7.61161700e-02  -1.49286400e-02
C     7.278629067993058e+00  -2.808094221493461e-04   2.999778550667231e+00 -1.66252300e-02   5.13592700e-02   7.70351000e-03
C     8.491517612398049e+00   6.997695213955210e-01   3.000859053567451e+00 -3.51142100e-02   5.96726200e-02  -4.64605000e-03
C     1.214002335790278e+00   2.101610223806055e+00   3.000040437872601e+00 -1.12302130e-01  -6.99902700e-02  -6.96462000e-03
C     2.425194169566427e+00   2.800815133607507e+00   2.999475845827244e+00  8.32931600e-02   6.48392100e-02   9.64930000e-03
C     3.638580817710875e+00   2.100880930030830e+00   3.000107637640044e+00  1.53712600e-02  -2.12326300e-02   5.45526000e-03
C     4.851314414510037e+00   2.802030986669218e+00   3.000549936473993e+00  4.64653500e-02  -7.42470100e-02  -1.00920600e-02
C     6.065847384122687e+00   2.100413637478964e+00   3.000278564749246e+00 -6.16169800e-02   6.71807000e-02   5.70028000e-03
C     7.278370586233570e+00   2.801028922777274e+00   2.999782519237218e+00  1.84387100e-02   3.49934800e-02   1.03818100e-02
C     8.491752442215068e+00   2.101221125418865e+00   3.000966373661406e+00 -2.60719300e-02  -2.83345100e-02  -4.16029000e-03
C     9.703975818177970e+00   2.802100005896821e+00   3.000870665857054e+00  4.19232300e-02  -3.70040000e-02   1.87753000e-03
C     2.426699767918473e+00   4.202895711252761e+00   3.000482436273999e+00 -4.43643900e-02  -8.97603800e-02  -9.13263000e-03
C     3.638889350886264e+00   4.901810285878891e+00   3.000776524766350e+00  1.93809300e-02   4.18079900e-02  -1.29858700e-02
C     4.851125826454059e+00   4.201715804467410e+00   2.999347921076045e+00  7.17945100e-02   3.60583900e-02   1.33659900e-02
C     6.065219450534356e+00   4.903218221997664e+00   2.999582101098341e+00 -1.78603000e-02  -9.27055000e-02   7.26209000e-03
C     7.278738983015800e+00   4.202676879750645e+00   3.000401972789500e+00 -6.12434900e-02  -4.16854700e-02  -1.21665700e-02
C     8.490379216917050e+00   4.903055893941313e+00   2.999921400488027e+00  8.68641600e-02  -3.07993000e-02   1.10300300e-02
C     9.704580077771665e+00   4.201859787494246e+00   3.000883272028464e+00 -4.81378100e-02   3.35516600e-02  -1.25034700e-02
C     1.091749045057240e+01   4.901475643217261e+00   2.999221851943802e+00 -1.80529600e-02   9.89112300e-02   1.60623900e-02
C     3.639848869599263e+00   6.302605651053983e+00   2.999711391248211e+00 -7.47708700e-02   1.94707300e-02   7.03660000e-03
C     4.850886969371386e+00   7.003584244894756e+00   3.000737936658772e+00  1.03876480e-01  -6.30762000e-02  -3.43417000e-03
C     6.065963881089678e+00   6.302192384951759e+00   3.000866912566340e+00 -1.11645990e-01   7.82923900e-02  -1.13565000e-02
C     7.277215745919185e+00   7.002951927455486e+00   2.999714408274325e+00  7.19405100e-02   2.61320300e-02   7.82207000e-03
C     8.491171384823410e+00   6.302959906417473e+00   3.000070541551010e+00 -3.08575500e-02   3.88793600e-02  -7.74279000e-03
C     9.704056289747800e+00   7.004306500224882e+00   2.999385193215901e+00 -2.17923900e-02  -8.00527200e-02   4.97712000e-03
C     1.091629234320173e+01   6.303699578469503e+00   2.999524181329179e+00  6.91377900e-02  -3.68049900e-02  -9.78078000e-03
C     1.213042550194035e+01   7.004286559695201e+00   2.998956745812183e+00 -2.12729100e-02  -9.70483200e-02   6.10317000e-03
