32
Lattice="9.86 0 0 4.93 8.53901048131456 0 0 0 30 " PBC="1 1 1" Properties=species:S:1:pos:R:3:force:R:3 Energy="-254.50518286"
C     5.073998693800000e+00   8.062089837451250e+00  -1.115040000000000e-01 -1.07359775e+00   1.12059710e+00  -6.41697600e-01
C     1.373837824900000e+00   2.643031241514664e-01  -7.132890000000103e-02 -1.44365244e+00   1.12376967e+00  -4.99819290e-01
C     7.543788928300000e+00   8.119854791716667e+00  -1.103409000000006e-01 -1.75422019e+00   8.31509850e-01  -9.15144550e-01
C     3.792212448500000e+00   2.699499717818904e-01  -4.314831000000012e-01 -9.74522360e-01   1.59750270e-01   2.43226942e+00
C     9.866623602899999e+00   8.095134014816649e+00  -2.476112999999991e-01  5.12305316e+00  -2.56480813e+00  -1.65029874e+00
C     6.243287959299999e+00   2.167370786132552e-01  -2.140041000000004e-01 -1.76064913e+00   3.00614253e+00  -2.35720870e-01
C     1.239531663930000e+01   8.123606491361160e+00  -3.591524999999969e-01  9.02903820e-01  -1.82356820e+00   5.77942350e-01
C     8.740981993799998e+00   3.001096714071456e-01  -1.840395000000008e-01 -4.75503220e-01  -2.81964983e+00   1.54516470e-01
C     1.320011197500000e+00   1.711328109597506e+00  -2.739744000000002e-01  1.56931380e-01  -4.40359670e-01  -1.60609274e+00
C     2.561618879500000e+00   2.380398006252666e+00  -6.209693999999999e-01 -1.74929459e+00   1.45114522e+00   1.05648380e+00
C     3.765890586899999e+00   1.672380145776340e+00  -4.550003999999994e-01 -8.12961500e-01   6.21159500e-02  -1.06211218e+00
C     4.941308434000000e+00   2.372631861611211e+00  -4.128441000000009e-01  4.13687584e+00   7.46511500e-02   5.91260540e-01
C     6.224332405100000e+00   1.688837209894234e+00  -1.626150000000024e-01  4.28086000e-02  -3.23426580e-01  -4.39151260e-01
C     7.482767606800000e+00   2.432582887949614e+00  -9.473789999999838e-02 -1.86192203e+00  -1.01133894e+00  -7.82428430e-01
C     8.701295641700000e+00   1.692499420708897e+00  -9.090690000000023e-02  8.61959380e-01   1.51362683e+00  -1.15379029e+00
C     9.920790893299998e+00   2.423783352259870e+00  -3.898425000000003e-01  9.67252830e-01  -1.26626595e+00   2.07563830e+00
C     2.542024348000000e+00   3.851894002542185e+00  -8.078891999999982e-01  3.32940210e-01  -2.80401293e+00   3.36586020e-01
C     3.816002212800000e+00   4.522849141931119e+00  -7.129475999999997e-01 -1.67345867e+00   1.03499987e+00  -2.09897000e-02
C     5.002817924100000e+00   3.760952430858823e+00  -5.284398000000010e-01  1.05687192e+00   3.39679306e+00   8.05574520e-01
C     6.254384353999999e+00   4.585030387026690e+00  -2.806370999999999e-01 -6.93335910e-01  -3.44003837e+00  -8.64635900e-01
C     7.472543624900000e+00   3.857295865961938e+00  -2.365272000000012e-01  3.08434640e-01  -5.64113940e-01   8.54808040e-01
C     8.714925366199999e+00   4.542463590564100e+00  -2.748254999999986e-01  2.17176550e-01  -3.75176070e-01  -3.18755810e-01
C     9.949893324200001e+00   3.838195209589541e+00  -4.494186000000013e-01 -1.39654053e+00  -8.04019420e-01  -8.95048960e-01
C     1.112697544070000e+01   4.499198729994768e+00  -8.088329999999999e-01  2.56592931e+00   6.92020360e-01   9.19179040e-01
C     3.765415187000000e+00   5.970471345770131e+00  -5.871462000000029e-01  1.31793602e+00  -1.92290040e-01   2.46512320e-01
C     5.072049026699999e+00   6.628993258949661e+00  -2.998278000000028e-01 -3.75852711e+00   2.11996062e+00  -1.64429070e-01
C     6.273617072800000e+00   5.970262993914419e+00  -2.181321000000018e-01  1.18772972e+00   8.52536410e-01   5.42621990e-01
C     7.500703341199999e+00   6.759342363998224e+00  -6.508380000000002e-02  1.34854198e+00  -4.89070337e+00  -8.55455410e-01
C     8.765221423400000e+00   5.935822432165225e+00  -2.320878000000022e-01 -2.09932440e+00   1.80238828e+00  -5.21988500e-02
C     9.970818906400000e+00   6.609840856173755e+00  -4.167363000000002e-01 -2.78330880e-01   1.93584740e+00   2.09273580e-01
C     1.122254344140000e+01   5.910910722990874e+00  -7.366185000000023e-01 -5.03147321e+00   8.58497690e-01   1.18513032e+00
C     1.232024718420000e+01   6.670727416500347e+00  -5.986388999999974e-01  6.30996857e+00   1.28341917e+00   1.69972940e-01
