32
Lattice="9.86 0 0 4.93 8.53901048131456 0 0 0 30 " PBC="1 1 1" Properties=species:S:1:pos:R:3:force:R:3 Energy="-255.22994745"
C     4.996003332999999e+00   8.475626429888218e+00  -3.939075000000010e-01 -4.11501383e+00  -4.50725036e+00   2.15859400e-02
C     1.218120570400000e+00   6.282783604713617e-01  -4.127183999999993e-01  2.82614327e+00  -1.05619487e+00   8.39162330e-01
C     7.349845341200000e+00   8.428438150173642e+00  -3.818345999999977e-01  4.27601555e+00  -9.87173740e-01  -9.21743390e-01
C     3.766107457600000e+00   5.333515472068784e-01  -5.106698999999999e-01 -2.68644013e+00   2.67453801e+00   1.48701312e+00
C     9.907209186999999e+00   8.375597216301514e+00  -3.861000000000026e-01 -9.80787050e-01   5.63460390e-01   3.51521850e-01
C     6.183585905799999e+00   5.389394756649905e-01  -2.894712000000013e-01  1.14979575e+00   1.79958800e+00  -9.98623250e-01
C     1.232803372480000e+01   8.390007650387563e+00  -3.371595000000021e-01  2.14988394e+00  -2.17218553e+00   1.63748820e-01
C     8.642895354699998e+00   5.610299811668552e-01  -4.043967000000031e-01 -1.70024060e-01   5.76283100e-02   3.49830700e-02
C     1.286753762600000e+00   1.998500753176928e+00  -2.594411999999977e-01 -2.01465265e+00   9.17134970e-01  -1.93802291e+00
C     2.488502887600000e+00   2.672863982428640e+00  -3.028970999999991e-01  3.10373162e+00   2.46422266e+00   1.01446270e-01
C     3.781005178100000e+00   2.040079329956668e+00  -4.217925000000022e-01 -8.95955110e-01  -3.76102883e+00   3.33727880e-01
C     5.026849307700000e+00   2.693757831001838e+00  -3.411416999999979e-01 -2.01136868e+00   8.92267610e-01  -5.00384960e-01
C     6.254161764500000e+00   2.003514262400051e+00  -3.594317999999994e-01 -2.68088531e+00  -2.25446741e+00   5.68629730e-01
C     7.417347591400000e+00   2.718914865947280e+00  -3.458733000000009e-01  1.87901810e+00  -3.23645536e+00  -1.20211762e+00
C     8.626096971299999e+00   1.952561986865891e+00  -4.777361999999989e-01  1.58848302e+00   1.72782660e+00   1.01550527e+00
C     9.900588788600000e+00   2.673511410203234e+00  -4.453152000000031e-01 -1.46272307e+00  -2.50913060e-01   1.00432612e+00
C     2.531662474000000e+00   4.115860604290635e+00  -2.606810999999993e-01 -1.99293540e+00   1.02773506e+00  -1.79940930e-01
C     3.804257818900000e+00   4.882856300080959e+00  -2.196294000000023e-01 -3.61426980e+00  -4.70802452e+00  -1.06933720e+00
C     4.937671227899999e+00   4.117149397142382e+00  -3.534888000000009e-01  3.67737211e+00   1.78077710e-01   3.57644030e-01
C     6.203255817000000e+00   4.814310332743911e+00  -4.421517000000001e-01 -1.54494832e+00   1.05141570e-01   2.02445050e-01
C     7.401928572699999e+00   4.063657278331051e+00  -4.389101999999987e-01 -3.33430020e-01   3.67389621e+00   5.70967330e-01
C     8.588752615699999e+00   4.785024686231390e+00  -3.410736000000014e-01  1.97084319e+00   2.16161788e+00  -7.16797110e-01
C     9.811103175400000e+00   4.076374341248809e+00  -3.732329999999990e-01  2.18955135e+00   1.22097285e+00  -7.40442000e-02
C     1.107017691070000e+01   4.821157167517090e+00  -3.524175000000014e-01  1.64709457e+00  -2.87408460e-01   8.90966170e-01
C     3.773042784400000e+00   6.220167040863776e+00  -3.597861000000009e-01 -6.46791090e-01   3.13444112e+00   6.49679920e-01
C     4.946518408699999e+00   6.957454152952503e+00  -3.485109000000008e-01  2.88229097e+00   2.27385049e+00  -1.03674574e+00
C     6.182936822000000e+00   6.238786353215416e+00  -4.452755999999987e-01  1.20425242e+00   7.58830080e-01   9.09673180e-01
C     7.455609617199999e+00   6.990941334181605e+00  -3.681938999999979e-01 -2.52285394e+00  -1.09333600e-02  -4.07088870e-01
C     8.674904316399999e+00   6.276629027520051e+00  -3.334868999999969e-01 -1.08232609e+00  -1.61784397e+00   1.68151650e-01
C     9.896531398599999e+00   6.984069138547301e+00  -2.738474999999987e-01  2.99882420e-01  -1.14652835e+00  -7.54247900e-01
C     1.111217508770000e+01   6.267359163133068e+00  -3.075005999999973e-01  1.60914555e+00  -1.45869219e+00   1.10676030e-01
C     1.242390639950000e+01   6.919976606735993e+00  -3.302915999999989e-01 -3.69809929e+00   1.82387051e+00   1.72403200e-02
