32
Lattice="9.684 0 0 4.842 8.3865900102485 0 0 0 30 " PBC="1 1 1" Properties=species:S:1:pos:R:3:force:R:3 Energy="-257.20797146"
C     9.460738005101341e-03  -1.085200849462970e-02   3.007892322248193e+00 -7.47111040e-01   4.79151650e-01   6.18124800e-02
C     1.205343289322862e+00   7.060466449052635e-01   3.009931071180142e+00  7.96565390e-01  -9.60864360e-01  -1.73926970e-01
C     2.433643393987132e+00  -2.633353966827146e-03   2.996180259879495e+00 -8.22772300e-01   1.13492390e-01   2.06667090e-01
C     3.641399353395807e+00   7.028233516776108e-01   3.009985014745128e+00 -3.84039110e-01  -7.80154410e-01  -1.95055230e-01
C     4.846147381591271e+00  -6.386966322924159e-03   3.004827581098301e+00 -2.71528200e-02   2.33769750e-01  -1.71404410e-01
C     6.054605087811949e+00   7.013434495468246e-01   2.987580870468519e+00 -3.00262080e-01   9.11144900e-02   1.68374020e-01
C     7.251170186152704e+00   2.865900354098892e-04   3.007946663157227e+00  7.61571210e-01  -1.22226870e-01  -1.77791460e-01
C     8.474615010631583e+00   6.922035715166829e-01   3.011082613693717e+00 -4.81313400e-02   2.31252290e-01  -5.67508600e-02
C     1.199364276278633e+00   2.091642529825414e+00   2.993414375014924e+00  9.38480210e-01   3.01829060e-01   2.04941470e-01
C     2.418810830236377e+00   2.802643551619166e+00   3.008486310373733e+00 -4.41806040e-01  -1.06284142e+00  -2.69014400e-01
C     3.618353742387562e+00   2.086542940367700e+00   2.990301385005830e+00  6.07330870e-01   8.64093720e-01   2.13824740e-01
C     4.835783816841848e+00   2.789074766173432e+00   2.995737709260558e+00  2.32602370e-01  -2.45890750e-01  -1.03638300e-02
C     6.058210076001235e+00   2.103417967391990e+00   2.988289976184584e+00 -4.14305140e-01  -3.27806550e-01   6.91503300e-02
C     7.264799862846885e+00   2.803183866920943e+00   3.000011970424309e+00  6.55574700e-02  -1.83204120e-01  -1.05027360e-01
C     8.472938233251861e+00   2.100809610478334e+00   2.999260899081670e+00  2.11445410e-01  -5.13150320e-01   6.20697600e-02
C     9.694110153302539e+00   2.786755076748698e+00   2.996783684272260e+00 -9.15685220e-01   7.52094950e-01  -7.57738300e-02
C     2.411148283905313e+00   4.183100471422692e+00   2.992277808319461e+00  6.62351400e-01   7.40737120e-01   1.47511480e-01
C     3.633132506214709e+00   4.880402187861677e+00   2.994003921064924e+00  1.70193700e-02   1.92614180e-01   9.40866200e-02
C     4.849287290776675e+00   4.178364882923167e+00   3.010747931246042e+00 -3.52918260e-01   7.31186640e-01  -1.26142680e-01
C     6.055971743919663e+00   4.901573734673974e+00   3.009321748288421e+00 -1.87463800e-02  -1.12688363e+00  -1.55076210e-01
C     7.270303502553946e+00   4.196630433155363e+00   2.993906454714554e+00 -3.06039590e-01   2.14963390e-01   2.12734150e-01
C     8.477394810056119e+00   4.889729508361262e+00   3.010243010484426e+00  2.56474150e-01   2.13199910e-01  -2.50616670e-01
C     9.691257608719942e+00   4.196015878116217e+00   2.991721081504478e+00 -3.37681330e-01  -4.96855790e-01   2.08526010e-01
C     1.089280257014779e+01   4.891772182836625e+00   3.008927968646910e+00  1.61778580e-01  -5.26390100e-02  -1.79289760e-01
C     3.641896715287597e+00   6.287214666313960e+00   3.000140032612579e+00 -1.40686081e+00  -3.55613310e-01  -4.70075700e-02
C     4.830638570946267e+00   6.981480506520526e+00   3.006823015570883e+00  1.06468707e+00   1.22415900e-01  -9.66905400e-02
C     6.049641890766925e+00   6.281333878782026e+00   2.990682376351904e+00 -2.31947520e-01   6.16188370e-01   2.42056450e-01
C     7.255469723647404e+00   6.980916127418502e+00   3.003717036669740e+00  6.24541120e-01   4.40662970e-01  -1.71256630e-01
C     8.482770806464350e+00   6.293265657958788e+00   2.995900579519601e+00 -1.20290737e+00  -6.66186260e-01   1.07974670e-01
C     9.672276432780368e+00   6.978449946476208e+00   2.988992624240984e+00  1.16135306e+00   6.76648050e-01   2.09627170e-01
C     1.089634913000930e+01   6.285233013212921e+00   3.006595691235476e+00 -4.94645280e-01   1.01748660e-01  -1.68001420e-01
C     1.209211902414342e+01   6.989268173622417e+00   2.991703978706133e+00  8.91253970e-01  -2.22846700e-01   2.19833380e-01
