32
Lattice="9.86 0 0 4.93 8.53901048131456 0 0 0 30 " PBC="1 1 1" Properties=species:S:1:pos:R:3:force:R:3 Energy="-255.7061746"
C     9.782913977699998e+00   1.799397499715816e-01   4.045328100000000e+00  3.21391523e+00  -2.75581090e+00   2.14596700e-01
C     1.233984176500000e+00   8.561342554108344e-01   4.107248400000000e+00 -1.50714428e+00   2.12758045e+00  -3.37666890e-01
C     2.479919166000000e+00   1.744410541729856e-01   4.025686200000000e+00 -2.44110046e+00  -1.76248132e+00   2.94286610e-01
C     3.702349936800000e+00   8.362179527573872e-01   3.978928800000000e+00 -1.02675509e+00   2.42297797e+00   1.27596090e-01
C     4.915906066700000e+00   2.052377639800488e-01   3.926976900000000e+00  1.08220397e+00  -3.41505802e+00   8.23985450e-01
C     6.144316434500000e+00   9.086741037734359e-01   3.978891900000000e+00 -1.92620502e+00  -7.93121400e-02   5.26016380e-01
C     7.326569825200000e+00   1.328924493200304e-01   3.968149500000000e+00  3.34093950e-01   1.56755695e+00   5.87345090e-01
C     8.549204796599998e+00   8.281212630202512e-01   4.087469700000000e+00  1.26477126e+00  -3.14442980e-01  -6.21482020e-01
C     1.110051011610000e+01   2.345719547671500e+00   4.121222700000001e+00 -2.61361021e+00  -2.91080018e+00  -3.16750410e-01
C     2.447461574300000e+00   3.004082720646207e+00   4.034467500000000e+00  5.64054200e-02  -7.93221580e-01  -1.60866310e-01
C     3.661088499000000e+00   2.262380086238272e+00   4.019971200000001e+00 -3.38726500e-02   1.58823547e+00   5.03099000e-03
C     4.826198357000000e+00   3.066087293614946e+00   4.056671700000000e+00  2.17767826e+00  -8.15227150e-01   1.58692470e-01
C     6.060679230999999e+00   2.349904260537433e+00   4.135533900000000e+00  1.52632329e+00  -2.01104750e+00  -1.73148030e+00
C     7.342378215300000e+00   2.925489668188287e+00   3.997372800000000e+00  2.22507220e-01   2.96156753e+00   8.08102410e-01
C     8.593011839900001e+00   2.200543048655151e+00   4.073346900000000e+00 -5.94652060e-01   3.97523377e+00  -1.06951920e-01
C     9.814846277899999e+00   3.033343006297604e+00   4.091826600000000e+00  7.84913690e-01  -3.38658882e+00   3.74617730e-01
C     1.225435872020000e+01   4.385600089464194e+00   3.933357000000000e+00  2.82727019e+00   2.65541237e+00   6.98385270e-01
C     3.642415335200000e+00   5.169726491909179e+00   3.984116100000000e+00  3.78103130e-01  -1.35215780e+00  -1.59783340e-01
C     4.920351151899999e+00   4.500890991091695e+00   4.031333100000000e+00 -2.34833632e+00  -1.05325270e+00  -3.36041160e-01
C     6.151653950699999e+00   5.186194742130803e+00   3.982192200000000e+00  8.67897550e-01  -2.48440805e+00   4.45319710e-01
C     7.365034868400000e+00   4.398108885916346e+00   3.941396100000000e+00  5.16473670e-01  -7.54053380e-01   5.01957430e-01
C     8.627748077600000e+00   5.078281716338230e+00   3.981004800000000e+00 -2.78342290e+00   2.31265453e+00   3.07275680e-01
C     9.834908074800000e+00   4.415877883604387e+00   4.110350400000000e+00  3.68769550e-01   4.80007640e-01  -1.30515384e+00
C     1.107174681990000e+01   5.127766733701613e+00   3.972135900000000e+00 -8.71105220e-01  -8.54695200e-01   8.35111810e-01
C     1.354455239030000e+01   6.570020461651847e+00   3.987401400000000e+00 -1.33672867e+00   1.31716950e-01  -3.77716510e-01
C     4.917000674600000e+00   7.229848331094189e+00   3.962253599999999e+00 -3.72554840e-01   3.14089841e+00   1.18132543e+00
C     6.173148159100000e+00   6.575495162830994e+00   4.074650400000000e+00 -4.01649407e+00  -7.12247900e-01  -1.08324144e+00
C     7.301971885999999e+00   7.271472250019578e+00   4.039968000000000e+00  5.26568905e+00   1.66093335e+00  -3.44905670e-01
C     8.536283907500000e+00   6.532636502990197e+00   3.985051200000000e+00  2.36214912e+00   4.78246470e-01   4.14379510e-01
C     9.815145233099999e+00   7.268065611788582e+00   4.026211500000000e+00 -8.29445500e-02  -1.38135940e-01  -8.50533220e-01
C     1.107511632700000e+01   6.525778567503395e+00   4.015871700000000e+00 -8.93695940e-01   2.04362590e+00  -3.80671800e-01
C     1.229378185960000e+01   7.291244670346437e+00   3.983625900000000e+00 -4.00542270e-01  -1.95370622e+00  -1.90779920e-01
