32
Lattice="10.04 0 0 5.02 8.69489505399576 0 0 0 30 " PBC="1 1 1" Properties=species:S:1:pos:R:3:force:R:3 Energy="-257.3952107"
C    -1.235278009051584e-03  -2.841469171020774e-03   2.997592732458974e+00  7.57215000e-03   1.38442500e-01   1.31132100e-02
C     1.255876079252661e+00   7.253871360845643e-01   2.999689585514759e+00 -8.32244500e-02  -9.39293300e-02  -4.04897000e-03
C     2.510247851538647e+00   6.934754700979062e-04   2.997674761470423e+00 -3.18236000e-02  -1.46200100e-02   4.84957100e-02
C     3.763069382297579e+00   7.277028311538835e-01   3.002678951876420e+00  1.39892060e-01  -2.53407660e-01  -6.98847000e-02
C     5.019722363572101e+00  -4.018143665390049e-03   2.999265555941362e+00 -2.76208300e-02   3.10519830e-01   3.71298000e-02
C     6.273923957100999e+00   7.274134143369735e-01   2.998643974762482e+00 -4.42909500e-02  -1.53017260e-01   6.86779000e-03
C     7.528460235766781e+00   2.915894128223348e-03   2.999178680503132e+00  3.26993400e-02  -1.19253200e-01   1.20671000e-02
C     8.781746544311535e+00   7.217002980076317e-01   2.997374434953573e+00  1.46026340e-01   1.97415820e-01   2.66577000e-02
C     1.256209231446572e+00   2.174009180532207e+00   3.002890465203506e+00 -5.20129200e-02  -4.30185100e-02  -7.20541000e-02
C     2.510243661975845e+00   2.898206556030060e+00   2.998551890239817e+00 -2.02611300e-02  -5.13649200e-02   3.17953800e-02
C     3.763482143450502e+00   2.172331576814455e+00   2.997818303968883e+00  8.11418600e-02   1.70305710e-01   4.60646600e-02
C     5.017874870737271e+00   2.902027326351349e+00   3.001439313624947e+00  1.71849860e-01  -2.62425880e-01  -2.05971300e-02
C     6.277520598018837e+00   2.172943147378566e+00   3.000109016148880e+00 -1.97348230e-01   1.79216770e-01   1.30695800e-02
C     7.532611277668455e+00   2.899448820997168e+00   3.002658237466411e+00 -8.24071000e-02  -8.08566100e-02  -3.13324400e-02
C     8.783828658547819e+00   2.175144348511272e+00   3.000385043311627e+00  1.27661970e-01  -1.64920540e-01  -2.47913100e-02
C     1.004074737731491e+01   2.896240195582657e+00   2.996864453139250e+00 -3.20446100e-02   9.20796300e-02   4.35900400e-02
C     2.510726918499671e+00   4.344838307976660e+00   3.001078549654579e+00  2.19682100e-02   1.23740610e-01  -2.99765300e-02
C     3.765916828361835e+00   5.069874939161724e+00   2.998329287772304e+00 -1.40921000e-02   8.79312000e-02   4.92944500e-02
C     5.021936621675647e+00   4.347056629990634e+00   3.002181292292899e+00 -1.10162010e-01   4.97940300e-02  -3.95788100e-02
C     6.275598995893734e+00   5.071074444103051e+00   2.999584176073478e+00  1.14718200e-01  -1.71582700e-02   1.52412100e-02
C     7.532040844685350e+00   4.344631555452221e+00   3.000664891486117e+00  1.58468800e-02   2.46960760e-01   3.13078800e-02
C     8.788688535428788e+00   5.075635349271526e+00   3.004217908136532e+00 -9.83652800e-02  -2.38938210e-01  -8.16391400e-02
C     1.004224791658343e+01   4.347303136682813e+00   2.996139089453186e+00 -2.75574500e-02  -3.02347700e-02   7.26473900e-02
C     1.129567656147902e+01   5.070389089436771e+00   3.001375074466795e+00  9.97668000e-03   1.41254090e-01  -3.69153600e-02
C     3.766552516319251e+00   6.521706491619521e+00   3.000831156795496e+00 -1.15881920e-01  -8.83330400e-02  -5.91084000e-03
C     5.017369528569685e+00   7.245188894009580e+00   2.999154394605847e+00  2.21647740e-01  -4.10187700e-02  -1.12879100e-02
C     6.276376635430605e+00   6.519368810048177e+00   2.998101268555625e+00 -3.53038500e-02   7.22552800e-02   1.30465100e-02
C     7.531643216094999e+00   7.245369634683217e+00   2.999388102231178e+00  1.72300000e-03  -2.08906000e-02  -1.60133400e-02
C     8.788951563330020e+00   6.520228088404889e+00   3.000680506304226e+00 -1.46078610e-01   8.27977200e-02   3.18592700e-02
C     1.004249692783293e+01   7.244616474959073e+00   3.002813440821206e+00 -1.17735220e-01   7.82990600e-02  -4.66457400e-02
C     1.129156390835698e+01   6.524791879595665e+00   3.000092467618161e+00  3.73594510e-01  -2.17173740e-01   5.06752400e-02
C     1.255331519111905e+01   7.248668685290873e+00   3.003633438357183e+00 -2.30108530e-01  -8.04517100e-02  -5.22465800e-02
