32
Lattice="9.86 0 0 4.93 8.53901048131456 0 0 0 30 " PBC="1 1 1" Properties=species:S:1:pos:R:3:force:R:3 Energy="-252.47724446"
C     9.820524158900000e+00   3.263023175436024e-01   4.458807300000000e+00 -2.04720975e+00   4.05104858e+00   2.25156474e+00
C     1.120761303500000e+00   1.120714812012796e+00   4.612775400000000e+00  1.40094146e+00   2.18196055e+00   2.56711790e-01
C     2.407698757900000e+00   4.928024335306072e-01   4.490903400000000e+00 -9.92754640e-01  -3.11104299e+00  -1.53807780e-01
C     3.668066371700000e+00   1.111423514709508e+00   4.491114000000000e+00 -3.39658485e+00   3.68988658e+00   1.06118500e-02
C     4.812807786800000e+00   4.050416432510448e-01   4.270269000000000e+00  2.43095909e+00  -2.88394532e+00   1.57794982e+00
C     6.037363634100000e+00   1.048661958461718e+00   4.435916100000000e+00  1.12447787e+00   2.77532158e+00  -3.17439880e-01
C     7.278324795900000e+00   3.492847226901032e-01   4.518087000000000e+00 -4.59370040e-01   2.61376344e+00   9.67055690e-01
C     8.530278427999999e+00   1.043672187687730e+00   4.669523100000000e+00 -5.38466360e-01   2.19766038e+00  -1.05626060e+00
C     1.093182198230000e+01   2.620495853566791e+00   4.857046200000000e+00  1.78912997e+00  -3.49340229e+00  -1.61567338e+00
C     2.341459327200000e+00   3.308786465081698e+00   4.679140500000000e+00  8.28058530e-01  -6.17192874e+00   6.92290730e-01
C     3.594344581400000e+00   2.642515997622301e+00   4.587840300000000e+00 -2.67635190e-01  -5.27368527e+00  -4.54800630e-01
C     4.809875274900000e+00   3.245044545040698e+00   4.432798200000001e+00  7.05295360e-01   2.39195436e+00   3.38117700e-01
C     6.022494803400000e+00   2.494745347222128e+00   4.474793100000000e+00 -1.20769030e+00  -5.38044940e-01  -1.03094197e+00
C     7.197111821299999e+00   3.237653177569210e+00   4.454351100000000e+00  2.58463163e+00  -1.05859248e+00   1.72016087e+00
C     8.396823623800000e+00   2.570939791636216e+00   4.745266800000000e+00  3.72988212e+00  -3.85132392e+00  -7.06200910e-01
C     9.711133917199998e+00   3.277661259541468e+00   4.844634900000000e+00 -3.28128404e+00  -3.28240869e+00   4.72520700e-02
C     1.234861119970000e+01   4.592345501134591e+00   4.593329400000000e+00 -3.85485165e+00   7.48259226e+00   1.36345415e+00
C     3.611027060500000e+00   5.469216316545582e+00   4.561434900000000e+00  1.49221814e+00  -2.38256766e+00  -1.14972784e+00
C     4.863948057200000e+00   4.726136339747223e+00   4.378505400000001e+00 -2.45378103e+00  -1.66055596e+00  -1.78784290e-01
C     6.058414980599999e+00   5.319429008040347e+00   4.121441700000000e+00  2.11340668e+00   3.26536499e+00   2.19946154e+00
C     7.296970548899999e+00   4.622255434703306e+00   4.402375800000000e+00 -2.30512840e+00   2.44307177e+00  -1.98388553e+00
C     8.457813984900000e+00   5.412365121791628e+00   4.418926500000000e+00  2.59506379e+00  -2.96248576e+00   1.78444264e+00
C     9.659683401899999e+00   4.602501287858875e+00   4.758010500000000e+00  2.81076536e+00   5.92097046e+00  -1.59074336e+00
C     1.104561229830000e+01   5.260427605057425e+00   4.697153100000000e+00 -1.83648551e+00   6.14042400e-01  -1.21981475e+00
C     1.341207278940000e+01   6.881732342768482e+00   4.536798600000000e+00  1.91078039e+00  -1.53659971e+00   7.95959100e-01
C     4.873957781300000e+00   7.496432908065701e+00   4.435615200000000e+00 -1.45010070e+00  -9.21009740e-01  -6.92523580e-01
C     6.087054188700000e+00   6.804268403666334e+00   4.255208700000000e+00  6.63896270e-01  -1.34400122e+00  -4.22459200e-02
C     7.331698257699999e+00   7.527559992188236e+00   4.352623500000000e+00 -1.60184527e+00   2.02036069e+00  -2.46749130e-01
C     8.535174065900000e+00   6.820018266936274e+00   4.370249700000000e+00  8.77411340e-01  -1.24288600e-02  -4.28130570e-01
C     9.808957491499999e+00   7.486500501855575e+00   4.359059700000000e+00 -1.00232342e+00  -1.67328331e+00  -5.02231500e-01
C     1.104853485160000e+01   6.631018797625623e+00   4.424670300000000e+00 -2.25132909e+00   4.94607663e+00   2.04682507e+00
C     1.215764074770000e+01   7.544032597305204e+00   4.688753700000000e+00  1.88992222e+00  -4.43676782e+00  -2.68189612e+00
