32
Lattice="9.86 0 0 4.93 8.53901048131456 0 0 0 30 " PBC="1 1 1" Properties=species:S:1:pos:R:3:force:R:3 Energy="-250.66442152"
C     5.197048930199999e+00   7.750364037747531e+00  -1.156922399999999e+00 -3.44815657e+00  -2.24259008e+00   1.22887747e+00
C     6.416332388999999e+00   8.480109581170426e+00  -1.170072600000001e+00  2.05578850e-01  -3.35387092e+00   5.08403540e-01
C     7.645722150599999e+00   7.746140813944333e+00  -1.170030600000000e+00  1.64966533e+00  -2.80478093e+00  -1.94145290e-01
C     8.907194873200000e+00   8.431437733775056e+00  -1.111296600000003e+00 -2.16335822e+00  -5.93468340e-01   1.97858323e+00
C     1.011942996030000e+01   7.680858114852322e+00  -8.321375999999994e-01 -1.63646029e+00   3.53492241e+00  -2.96088609e+00
C     1.123452960250000e+01   8.497997356494245e+00  -1.058073000000000e+00  2.69264806e+00  -1.71427423e+00   1.58440381e+00
C     1.246773617010000e+01   7.698219972520677e+00  -9.646803000000013e-01  1.07796390e+00   8.44039340e-01   2.25767010e-01
C     1.366104730430000e+01   8.384808673856815e+00  -1.219140600000003e+00  4.68511147e+00   2.97905530e-01   7.48669600e-02
C     1.440740735000000e+00   1.219844611625640e+00  -7.324067999999997e-01 -9.25141110e-01   5.41005627e+00  -1.93340515e+00
C     2.668801072800000e+00   1.975506905756384e+00  -5.647044000000001e-01 -1.53371570e-01   2.07848774e+00   1.03280856e+00
C     3.906072721200000e+00   1.315808573103024e+00  -8.168034000000013e-01  2.22375340e-01   2.49442300e-01   8.77686180e-01
C     5.107341023300000e+00   2.087220645113604e+00  -6.593832000000006e-01  7.40677500e-02   1.40646940e-01  -1.98850081e+00
C     6.325518781700000e+00   1.395405386242868e+00  -1.088422500000000e+00  4.31325500e-02   6.22016220e-01   8.39416190e-01
C     7.554782335300000e+00   2.120363277269838e+00  -1.241605200000002e+00  1.19232248e+00  -2.21417907e+00  -3.54279160e-01
C     8.871139120999999e+00   1.266842812966931e+00  -1.320031800000002e+00 -4.63218848e+00   2.15908453e+00   5.74659930e-01
C     1.000223932470000e+01   1.984021921616935e+00  -1.009693499999997e+00  3.83845019e+00   4.66387610e-01   3.54724123e+00
C     2.667552254499999e+00   3.510168865830027e+00  -1.671414000000020e-01 -2.52952137e+00  -2.30887573e+00  -5.80423780e-01
C     3.870689371700000e+00   4.280434917244086e+00  -1.468868999999984e-01  1.03629772e+00  -2.27899990e+00  -2.36605915e+00
C     5.038745841399999e+00   3.527304695890976e+00  -5.418501000000013e-01  3.51256181e+00  -3.65841800e-01  -5.49336200e-02
C     6.365913969199999e+00   4.230312206578057e+00  -8.520354000000019e-01 -1.65127335e+00  -1.45248377e+00   4.42732660e-01
C     7.593473566900000e+00   3.541229345670817e+00  -1.181932799999998e+00 -8.42626300e-01  -2.36919261e+00   2.08596346e+00
C     8.876701886499999e+00   4.093499582936764e+00  -8.442216000000009e-01 -2.00625550e+00   2.95903745e+00  -1.82443430e+00
C     9.997750313199999e+00   3.427866040269071e+00  -5.260619999999996e-01  2.00464580e+00  -3.80396380e+00  -1.40903575e+00
C     1.116777513470000e+01   4.164099950805195e+00  -1.651674000000014e-01  3.82445717e+00   3.15463230e-01  -2.23543099e+00
C     3.954120698400000e+00   5.663964076931159e+00  -4.742600999999986e-01  2.21241578e+00  -2.52733410e-01   1.26025018e+00
C     5.226844075400000e+00   6.324712707873560e+00  -7.517052000000000e-01 -2.17415877e+00   2.93005883e+00  -1.14540716e+00
C     6.420368678599999e+00   5.639392903494750e+00  -8.292855000000010e-01  1.00378681e+00  -2.44402385e+00  -4.61942850e-01
C     7.684022383899999e+00   6.159775999315338e+00  -1.109268000000000e+00  1.24925005e+00   5.47325147e+00  -2.55857900e-02
C     8.977946338500001e+00   5.483535212439284e+00  -1.039870799999999e+00 -1.83691013e+00   2.94648348e+00   9.57417570e-01
C     1.020628334790000e+01   6.314384689307896e+00  -9.033453000000016e-01 -2.96777712e+00  -3.02531608e+00   7.23093010e-01
C     1.133266761220000e+01   5.594804240130705e+00  -5.427183000000007e-01  1.33678175e+00  -1.30379153e+00   2.11790390e+00
C     1.262949568190000e+01   6.315084205046417e+00  -4.668671999999994e-01 -4.89431404e+00   2.10110271e+00  -2.52560500e+00
