32
Lattice="9.86 0 0 4.93 8.53901048131456 0 0 0 30 " PBC="1 1 1" Properties=species:S:1:pos:R:3:force:R:3 Energy="-253.61248955"
C     1.100827341500000e+00   8.485511017639656e-01   3.868576800000000e+00  3.88882924e+00   4.80547208e+00   1.33943151e+00
C     2.384114229500000e+00   1.709722092506428e+00   3.982969200000000e+00 -6.92731830e-01  -2.34408564e+00  -4.36041110e-01
C     3.673107444599999e+00   1.003370961485693e+00   3.983955000000000e+00 -4.65955483e+00  -7.52473510e-01  -3.36931300e-01
C     4.813335493999999e+00   1.753495365759738e+00   3.919347300000000e+00  1.87084631e+00   4.15410880e-01   7.97404510e-01
C     6.056854734200000e+00   1.073507661085059e+00   3.947953200000000e+00  1.65842297e+00  -6.53992740e-01  -1.08023830e-01
C     7.340857408900000e+00   1.788932686202261e+00   3.954699600000000e+00 -1.57867660e+00  -3.85463901e+00  -3.26251480e-01
C     8.544777065000000e+00   1.095346009607450e+00   3.837958200000000e+00  9.48626920e-01   4.14861300e-01   2.46436709e+00
C     9.855027799200000e+00   1.729869290003254e+00   4.062607200000000e+00 -2.56594315e+00  -1.70718857e+00  -2.78395707e+00
C     2.338305063900000e+00   3.122386270561158e+00   3.998766600000000e+00  5.78091420e-01   1.26760654e+00  -2.67259720e-01
C     3.604335670100000e+00   3.836036633130302e+00   4.090960500000000e+00 -1.11945395e+00   1.40333272e+00  -9.08239220e-01
C     4.803538745899999e+00   3.200277587137831e+00   3.987210000000000e+00  2.22311057e+00  -3.09994138e+00  -8.90159910e-01
C     6.088377745799999e+00   3.810629917518424e+00   3.800965200000000e+00 -3.94634700e-02   2.11719287e+00   2.19699430e+00
C     7.385576107799999e+00   3.113566924367099e+00   4.009898100000000e+00 -4.17557064e+00   3.51814310e+00  -1.35730948e+00
C     8.555909991000000e+00   3.804521963322080e+00   3.982615200000001e+00  2.12842067e+00   2.86743957e+00   4.09646070e-01
C     9.794514612800000e+00   3.156278030106802e+00   3.966984900000000e+00  1.22377480e+00  -6.33562190e-01  -8.07284400e-02
C     1.098017453490000e+01   3.920676158909109e+00   3.836672700000000e+00  7.35519690e-01  -2.87262696e+00   1.70607949e+00
C     3.668327711000000e+00   5.273985248166835e+00   4.023553200000000e+00 -3.54265586e+00  -1.75868553e+00   7.60115520e-01
C     4.800444382099999e+00   6.008942064295570e+00   4.018420500000000e+00  2.99141862e+00   1.09757357e+00  -1.94353496e+00
C     6.087060597699999e+00   5.249842135325788e+00   3.847739100000000e+00 -7.95985600e-02  -1.64282740e-01   7.56687270e-01
C     7.381139896600000e+00   5.883367803127214e+00   3.915125700000000e+00 -2.67082883e+00   3.16561558e+00   4.19239610e-01
C     8.590945233199999e+00   5.271097184042289e+00   4.009428300000000e+00  1.53682070e+00  -1.61111264e+00  -1.30142346e+00
C     9.827992221499999e+00   6.058497528495412e+00   3.894886800000000e+00 -2.46241522e+00  -1.13008665e+00   4.82756900e-01
C     1.099376802390000e+01   5.306354502143895e+00   3.918959099999999e+00  1.56756831e+00   2.11818480e-01  -1.86831090e-01
C     1.226211706120000e+01   5.929317413981562e+00   4.018940100000000e+00  2.48355530e-01   2.62823113e+00  -6.14825460e-01
C     4.756641825099999e+00   7.482204525683087e+00   3.829260000000000e+00  2.40822560e+00  -3.08013471e+00   1.60687414e+00
C     6.107593801199999e+00   7.982954728608059e+00   3.827376000000000e+00 -2.49592267e+00   2.58930327e+00   4.03351780e-01
C     7.352970616100000e+00   7.345887079259529e+00   3.978857400000000e+00 -2.01947991e+00  -2.40788935e+00  -1.27544200e+00
C     8.508120789500000e+00   8.057984195822360e+00   3.930042300000000e+00  1.42381628e+00   4.49120686e+00   3.76160980e-01
C     9.743393421499999e+00   7.484803288132571e+00   3.868557000000000e+00  2.30364872e+00  -2.57589887e+00   9.02667710e-01
C     1.097542916340000e+01   8.182341477217108e+00   3.989263800000000e+00  1.50831819e+00  -1.09542838e+00  -1.04780762e+00
C     1.224804358740000e+01   7.352621028314162e+00   3.970090500000000e+00 -1.20424211e+00   4.17326502e+00   5.70970800e-01
C     1.343354397470000e+01   8.267615878425103e+00   3.961897500000000e+00  6.27230800e-02  -5.42444412e+00  -1.32798153e+00
