32
Lattice="9.86 0 0 4.93 8.53901048131456 0 0 0 30 " PBC="1 1 1" Properties=species:S:1:pos:R:3:force:R:3 Energy="-252.33043023"
C     9.818819907200000e+00   3.392863099289664e-01   4.154220900000000e+00 -2.05472589e+00  -1.31013837e+00  -1.18244030e-01
C     1.157874442100000e+00   9.778682673960201e-01   4.283364300000001e+00  9.88524200e-01   4.63132894e+00  -1.04745570e-01
C     2.368214240000000e+00   4.212471481201984e-01   3.780170099999999e+00 -1.91068870e-01  -1.78185267e+00   3.80100690e-01
C     3.618453415300000e+00   1.081471569209231e+00   3.863569500000000e+00  3.43281430e-01   7.52494070e-01   4.14226290e-01
C     4.843388823300000e+00   3.669686718337640e-01   3.757908300000000e+00  2.03328977e+00  -1.61875660e+00   3.79872640e-01
C     6.095840385399999e+00   1.057108833018638e+00   3.859688400000000e+00  6.45850380e-01   1.01466576e+00   1.56385340e-01
C     7.404245031799999e+00   3.991017367809472e-01   3.925026900000000e+00 -3.40848011e+00   6.27937530e-01   1.53747892e+00
C     8.572056874899999e+00   1.089283226776545e+00   4.340853900000000e+00  4.51434370e-01   3.93916800e-01  -2.50486324e+00
C     1.097189957920000e+01   2.550715999215384e+00   4.647319200000000e+00  2.28316942e+00  -2.21785887e+00  -1.89318362e+00
C     2.436005388200000e+00   3.197398830534709e+00   4.515414600000000e+00 -8.22415340e-01  -1.25570315e+00  -4.42445050e-01
C     3.670750904600000e+00   2.511764790570235e+00   4.133902800000000e+00 -2.61982436e+00  -2.15973383e+00  -9.82745500e-02
C     4.845546635000000e+00   3.158960816419408e+00   3.857627100000000e+00  1.49668781e+00   2.46174151e+00   1.02695937e+00
C     6.079748569600000e+00   2.472399781477225e+00   3.901906500000000e+00  1.33990209e+00   5.81051340e-01  -1.38179946e+00
C     7.371756775500000e+00   3.227023646543497e+00   3.863311200000000e+00 -2.25135682e+00  -3.80985520e-01   1.11821284e+00
C     8.520371395800000e+00   2.551735727846906e+00   4.259183699999999e+00  2.27649399e+00  -7.33259900e-01   5.01983270e-01
C     9.761495149000000e+00   3.331365828933543e+00   4.499159400000000e+00 -6.73892490e-01  -4.11826542e+00   3.68115820e-01
C     1.233588401030000e+01   4.589334646039344e+00   4.468467900000000e+00 -3.00208680e-01   1.98271222e+00   9.48473400e-02
C     3.679320279900000e+00   5.337990852851457e+00   4.132578899999999e+00 -2.04863427e+00   1.02529594e+00  -1.31616521e+00
C     4.876923866500000e+00   4.636431899902203e+00   3.791309100000000e+00 -4.78380466e+00  -3.40522311e+00   1.54655543e+00
C     5.983934709800000e+00   5.249767418984088e+00   3.509165400000000e+00  7.68578987e+00   5.50292826e+00  -5.78903710e-01
C     7.342588874200001e+00   4.645480945478173e+00   3.701825700000000e+00 -9.01647450e-01   8.70865500e-02  -6.94953370e-01
C     8.546180635999999e+00   5.436114927809967e+00   3.795967500000001e+00  4.95162840e-01  -1.89412469e+00   1.43531477e+00
C     9.786181877499999e+00   4.694950421842480e+00   4.427429400000000e+00 -9.12423440e-01   2.48951555e+00  -2.00562897e+00
C     1.108263304870000e+01   5.311841328717924e+00   4.519485299999999e+00 -8.51867650e-01   1.63746446e+00  -2.32930279e+00
C     1.340889367890000e+01   6.796751171180371e+00   3.891163200000000e+00  1.96402825e+00  -1.74445002e+00   1.36006393e+00
C     4.837383738200000e+00   7.444100813828078e+00   3.757945800000000e+00 -5.06602330e-01   2.18025798e+00   5.57316760e-01
C     6.053528956199999e+00   6.783581369926961e+00   3.462669600000000e+00  3.66607200e-02  -1.66215624e+00   3.32671720e-01
C     7.311952769600000e+00   7.534823872233257e+00   3.392532600000000e+00 -1.27137899e+00   4.87501800e-01   1.62393104e+00
C     8.544907069099999e+00   6.847248659016365e+00   3.551244900000000e+00  1.43531075e+00  -2.15771364e+00   1.07142416e+00
C     9.847510042200000e+00   7.417027197980399e+00   3.810911700000000e+00 -3.18059553e+00   2.45418514e+00  -1.08372356e+00
C     1.102087962220000e+01   6.689501284941676e+00   4.045493700000000e+00  1.01594823e+00   1.90251068e+00   1.32418142e+00
C     1.219140059890000e+01   7.557141686194100e+00   4.018174500000001e+00  2.28739278e+00  -3.77237249e+00  -6.77408630e-01
