32
Lattice="9.696 0 0 4.848 8.39698231509392 0 0 0 30 " PBC="1 1 1" Properties=species:S:1:pos:R:3:force:R:3 Energy="-257.44543524"
C    -9.755785493593294e-04   6.332693132198516e-04   2.999386577646955e+00  5.45126600e-02  -3.42944800e-02  -1.92112000e-03
C     1.211122831210443e+00   6.993399527271951e-01   2.998989190945577e+00  6.35589500e-02   5.01316900e-02   1.37037300e-02
C     2.424416872445024e+00   7.431833667438580e-04   3.001170166400855e+00 -4.29641200e-02  -5.77214400e-02  -1.43684700e-02
C     3.636328841621147e+00   6.990599242304847e-01   3.000118842495372e+00 -1.64082600e-02   6.97974200e-02   1.31105000e-03
C     4.848110437338214e+00  -6.445995986916680e-04   2.999063671443449e+00 -1.26960900e-02   2.71188000e-02   1.16676600e-02
C     6.059999174063327e+00   6.989052370737767e-01   3.000079231059271e+00 -3.36650000e-04   2.50032800e-02  -3.63406000e-03
C     7.271726104406715e+00   4.565055774153264e-04   2.999691975427134e+00  5.99929000e-02  -5.26723100e-02   6.69360000e-04
C     8.485081491948991e+00   7.004208418513170e-01   3.000261875150636e+00 -1.30440300e-01   7.52495000e-03  -5.64739000e-03
C     1.212279322456685e+00   2.099592180718956e+00   2.999438804021284e+00 -4.17977300e-02  -4.16838300e-02   1.01442500e-02
C     2.424606378504214e+00   2.798477382137660e+00   3.000507527564171e+00 -6.67373800e-02   9.46338700e-02  -1.47127500e-02
C     3.634945043143744e+00   2.099705795727155e+00   3.000126454828330e+00  9.87149200e-02  -6.26999800e-02  -2.56690000e-03
C     4.848130475388273e+00   2.798622090429918e+00   2.999206413815244e+00 -2.40607000e-03   2.29393900e-02   2.13541200e-02
C     6.060101644713453e+00   2.098159066933750e+00   3.000789151654892e+00 -1.66573800e-02   2.96377000e-02  -2.33072800e-02
C     7.272511626335842e+00   2.797889166379040e+00   2.998973524625162e+00 -8.11282800e-02   7.20565100e-02   2.48924500e-02
C     8.482813073601747e+00   2.100443773662632e+00   3.000241052006563e+00  9.85890600e-02  -9.97687600e-02  -1.58740000e-04
C     9.695223686857901e+00   2.798665358277671e+00   3.000881940226352e+00  4.54954000e-02   3.83761700e-02  -1.97232900e-02
C     2.423879419334333e+00   4.199633757865766e+00   2.999116839298757e+00  2.61252600e-02  -5.56270100e-02   2.15414900e-02
C     3.636522794946071e+00   4.899260062364209e+00   3.001055323360256e+00 -1.16526300e-02  -8.55965300e-02  -3.32964000e-03
C     4.849057598251096e+00   4.198909961831759e+00   3.001064118148313e+00 -5.90803400e-02  -3.78542100e-02  -2.23975200e-02
C     6.060058728018042e+00   4.898115870143758e+00   2.998863816870077e+00  7.16634200e-02  -8.35813000e-03   2.82429500e-02
C     7.272870469284507e+00   4.197721607343670e+00   3.000553422097901e+00 -1.23818900e-02   4.01675400e-02  -1.60354000e-02
C     8.485132900707478e+00   4.899205201172783e+00   3.000810516522765e+00 -7.05028600e-02  -8.53017500e-02  -1.60569100e-02
C     9.696219390916964e+00   4.198155334765549e+00   2.999187549608956e+00  9.66044000e-03   2.92305900e-02   2.11474400e-02
C     1.090785507330731e+01   4.898870375932341e+00   2.999860071770883e+00  1.25183700e-02  -1.10304600e-02  -1.12680700e-02
C     3.635104388701974e+00   6.296966006965492e+00   3.001205788093858e+00  5.72568500e-02   8.94388400e-02  -1.90437800e-02
C     4.847439697009005e+00   6.998399753464261e+00   2.999185440397978e+00  2.55054700e-02  -7.77507000e-02   1.87685600e-02
C     6.061089428311783e+00   6.297494741131293e+00   3.000370094814216e+00 -9.61009500e-02   4.74009700e-02  -1.10331400e-02
C     7.272510816000863e+00   6.997245158911197e+00   3.000998267048465e+00 -3.86778500e-02   4.77601100e-02  -7.38142000e-03
C     8.482918696976792e+00   6.297725111212263e+00   2.999393124064782e+00  9.88443300e-02   2.77511300e-02   1.79303900e-02
C     9.695632693368472e+00   6.998069170658628e+00   2.999663444587830e+00 -6.90851000e-03  -4.64455000e-02  -7.58551000e-03
C     1.090831691885277e+01   6.298886271902461e+00   2.999811336347859e+00 -8.45764100e-02  -6.68029000e-02  -3.57711000e-03
C     1.211894136587584e+01   6.996463757507179e+00   2.999287019725626e+00  6.90156500e-02   1.04639020e-01   1.23750300e-02
