32
Lattice="9.86 0 0 4.93 8.53901048131456 0 0 0 30 " PBC="1 1 1" Properties=species:S:1:pos:R:3:force:R:3 Energy="-255.93504771"
C     9.855581536799999e+00   5.221072074266048e-01  -5.549490000000290e-02  2.54342240e-01  -7.78602520e-01  -1.38356880e-01
C     1.240216534600000e+00   1.212125858492349e+00  -2.100689999999972e-02 -1.15607032e+00   1.09807931e+00   1.83483800e-01
C     2.470157174400000e+00   5.433345043590464e-01  -4.400700000000057e-02 -1.23232633e+00  -2.46412584e+00   1.93934420e-01
C     3.669717576600000e+00   1.222985772020813e+00   4.873500000000000e-02  1.00482942e+00   7.50266350e-01  -9.09814900e-02
C     4.865851185099999e+00   4.472522775865144e-01   1.971150000000000e-02  1.63693627e+00   2.70340815e+00  -1.12551870e-01
C     6.116855151299999e+00   1.126647716494300e+00  -4.006560000000192e-02  5.79381140e-01   2.80652798e+00  -1.31888700e-01
C     7.410512047800000e+00   5.152281805839168e-01  -7.013189999999980e-02 -2.52064100e+00  -9.95575280e-01   1.03710900e-01
C     8.610453095300000e+00   1.230258020296105e+00  -9.901469999999790e-02  1.24718806e+00  -2.57399760e+00   3.20402990e-01
C     1.105622151040000e+01   2.634717660911336e+00   1.185801000000000e-01  5.62029220e-01   4.54780470e-01   1.57626922e+00
C     2.432670391100000e+00   3.353396390581838e+00   3.462621000000000e-01  3.00744830e-01   2.56687200e-02  -1.57088549e+00
C     3.709484583500000e+00   2.678788604069978e+00   1.696884000000000e-01 -3.74181196e+00  -2.46661947e+00   3.89780080e-01
C     4.875849767400000e+00   3.335439961613760e+00   1.082220000000000e-01  3.98327347e+00   1.71716772e+00  -5.58868280e-01
C     6.101175631399999e+00   2.568858322441611e+00  -9.117060000000166e-02  9.15075830e-01   8.28442100e-01   7.45754330e-01
C     7.383116530799999e+00   3.286414257624097e+00  -1.141811999999973e-01 -1.41960546e+00   7.66803100e-01   1.83060230e-01
C     8.610406161700000e+00   2.576755626284039e+00  -3.249239999999887e-02 -6.75661900e-02   4.08736873e+00   2.72456860e-01
C     9.811219819199998e+00   3.350123644035168e+00   2.091015000000000e-01  1.08511239e+00  -9.13970670e-01  -1.82876404e+00
C     1.229806997360000e+01   4.774955399683269e+00   3.418449000000000e-01  1.48401819e+00   8.38298750e-01  -4.57732200e-02
C     3.742886319500000e+00   5.513571181802684e+00   1.521789000000000e-01 -2.75026501e+00  -1.34680914e+00   9.29333980e-01
C     4.967915003100000e+00   4.792156297004077e+00   1.279614000000000e-01 -8.97207550e-01  -9.08356850e-01  -7.18634390e-01
C     6.196515816800000e+00   5.478706145842529e+00  -7.293989999999795e-02 -1.09523544e+00  -7.88458770e-01   2.48230960e-01
C     7.402352059700000e+00   4.742382063355737e+00  -1.264605000000003e-01  1.58221239e+00   2.83086510e-01  -9.60813200e-02
C     8.672712931400000e+00   5.519564627868490e+00  -1.183244999999999e-01 -1.91411824e+00  -1.86001554e+00   7.17504410e-01
C     9.890041349400001e+00   4.773388320479979e+00   1.273632000000000e-01 -2.50558216e+00   5.42822710e-01   4.51213200e-01
C     1.105852342600000e+01   5.508755777622698e+00   3.457140000000000e-01  1.95858666e+00  -7.55140760e-01  -9.12816820e-01
C     1.348393444140000e+01   6.909606917799186e+00   3.369510000000000e-02  2.88873869e+00   1.19400474e+00   1.79650890e-01
C     4.922805848199999e+00   7.639856945961240e+00  -3.093210000000113e-02 -1.86163476e+00  -9.31726270e-01  -4.13805960e-01
C     6.125893073799999e+00   6.887765153672603e+00  -1.079708999999980e-01  9.99985440e-01   1.06947922e+00   3.47451030e-01
C     7.361429263600000e+00   7.595936716337570e+00  -9.608130000000159e-02 -3.02496730e-01   2.48749959e+00  -4.12605740e-01
C     8.580242499000001e+00   6.946091206316662e+00  -1.076864999999998e-01  2.57967247e+00  -1.86522866e+00   5.86498810e-01
C     9.864326814500000e+00   7.632836598495109e+00   3.256290000000001e-02 -2.51927554e+00  -2.43682373e+00   1.43639870e-01
C     1.107110621570000e+01   6.916674742163586e+00   2.213409000000000e-01 -4.51083580e-01   8.11060940e-01  -9.22109860e-01
C     1.227298357000000e+01   7.650170533599193e+00   5.310060000000000e-02  1.37279355e+00  -1.37931397e+00   3.81748080e-01
