32
Lattice="9.86 0 0 4.93 8.53901048131456 0 0 0 30 " PBC="1 1 1" Properties=species:S:1:pos:R:3:force:R:3 Energy="-256.12868514"
C     1.283617740300000e+00   8.219971700941000e-01   3.389709600000000e+00 -1.10916700e+00   7.77947430e-01   4.82643890e-01
C     2.468219536500000e+00   1.552177861491057e+00   3.579840900000000e+00  7.34318540e-01  -1.11117642e+00  -7.17134180e-01
C     3.685473708700000e+00   8.447638798358760e-01   3.391023900000000e+00  1.58586627e+00   4.57893850e-01   2.80133700e-02
C     4.968312065299999e+00   1.526584056159562e+00   3.400368900000000e+00 -1.16029297e+00   2.62782000e-02   1.25123400e-02
C     6.178710185100000e+00   7.599942195373528e-01   3.281296800000000e+00  3.80483510e-01   3.86764923e+00   3.26812020e-01
C     7.390981951400000e+00   1.549666453118784e+00   3.249644100000000e+00  2.03044266e+00  -9.58429540e-01   2.73557230e-01
C     8.677344666400000e+00   8.722150053368751e-01   3.280302000000000e+00 -1.04808656e+00  -6.79219360e-01   5.50790580e-01
C     9.939134733100000e+00   1.583571021180148e+00   3.434889600000000e+00 -2.06965455e+00  -1.76573457e+00  -6.49712040e-01
C     2.462005370100000e+00   2.930390718643388e+00   3.783111000000000e+00  9.87173000e-03   2.45553072e+00  -3.36342380e-01
C     3.715087676400000e+00   3.645291960857747e+00   3.708096900000000e+00  8.98900520e-01   6.38875920e-01   3.60334000e-02
C     4.950076044599999e+00   2.969713118074102e+00   3.518359800000000e+00  1.03458200e+00  -1.20209990e+00  -7.42506940e-01
C     6.214291227599999e+00   3.690287422681059e+00   3.309745500000000e+00 -1.81723214e+00  -2.50411563e+00   9.01331220e-01
C     7.450033589999999e+00   2.971894493691323e+00   3.276451800000000e+00 -1.96232587e+00  -3.13192490e-01  -4.22202350e-01
C     8.638779593499999e+00   3.690870722486948e+00   3.325944900000000e+00  1.98063422e+00  -1.91727600e-01   7.65215270e-01
C     9.887228340699998e+00   2.983660823182239e+00   3.544462200000000e+00 -5.56260450e-01   5.83546960e-01  -4.22563180e-01
C     1.107614975360000e+01   3.694022385865011e+00   3.762759300000000e+00  1.00602398e+00   5.30582880e-01   5.63286300e-02
C     3.805720204800000e+00   5.101259681199282e+00   3.692250300000000e+00 -3.75579037e+00  -1.44677797e+00   4.92417380e-01
C     4.962243876200000e+00   5.803565797565535e+00   3.459253500000000e+00  8.07555380e-01   1.43751367e+00  -5.67772750e-01
C     6.166593674800000e+00   5.045343337312678e+00   3.309361200000000e+00  1.48824299e+00   3.24950970e+00  -3.31699240e-01
C     7.428368113399999e+00   5.761305039238549e+00   3.191322600000000e+00 -1.46608538e+00   2.00441285e+00   2.85340280e-01
C     8.655346069700000e+00   5.116501387955558e+00   3.308343000000000e+00  6.37854190e-01  -5.84697670e-01   2.45949190e-01
C     9.880627859499999e+00   5.853696193340996e+00   3.501336300000000e+00 -5.35896930e-01   1.53525250e-01  -1.01880640e-01
C     1.106801116170000e+01   5.155567019341139e+00   3.781753500000000e+00  2.45938837e+00  -1.73457798e+00  -4.22904670e-01
C     1.239332960280000e+01   5.788992951500158e+00   3.787038000000000e+00 -1.00398574e+00   1.89815907e+00  -1.11330357e+00
C     4.899004547700000e+00   7.279160177325036e+00   3.325716900000000e+00  2.55257862e+00  -2.75776529e+00   2.90828420e-01
C     6.159999158899999e+00   7.955061965485034e+00   3.232992300000000e+00  4.01788150e-01  -6.22450200e-01   2.55186970e-01
C     7.391648684599999e+00   7.209292712726104e+00   3.184263600000000e+00  7.92307030e-01   5.69890390e-01  -5.15077400e-02
C     8.640878639600000e+00   7.985674915786568e+00   3.202143900000000e+00 -4.61955000e-01  -1.66897433e+00   1.05895696e+00
C     9.904179011800000e+00   7.281511052300285e+00   3.390511800000000e+00 -2.25333873e+00  -1.35798847e+00  -4.80364720e-01
C     1.112136342450000e+01   7.931640142859233e+00   3.413664000000000e+00  1.26433265e+00  -7.06208460e-01   6.29779600e-02
C     1.237737710880000e+01   7.236214504967448e+00   3.529527000000000e+00 -1.72379122e+00  -1.88336861e+00   5.16988940e-01
C     1.355456329760000e+01   7.937196903929093e+00   3.376713000000000e+00  8.58692130e-01   2.83718837e+00  -2.81989680e-01
