32
Lattice="9.86 0 0 4.93 8.53901048131456 0 0 0 30 " PBC="1 1 1" Properties=species:S:1:pos:R:3:force:R:3 Energy="-250.88866865"
C     4.961712471500000e+00   8.369250425982045e+00   7.992900000000001e-03  2.43738920e-01   5.06389595e+00  -1.49929350e-01
C     1.283126170000000e+00   6.531683805590943e-01   1.323390000000000e-02 -1.19729734e+00  -2.01064390e-01  -4.94290640e-01
C     2.513835594000000e+00   8.500243372420800e-03  -8.277749999999884e-02 -3.52174745e+00  -6.40585314e+00   1.70430500e+00
C     3.702479398600000e+00   5.825266838799408e-01  -4.947600000000207e-02  3.66315537e+00   3.37832369e+00  -3.17574402e+00
C     9.838724042699999e+00   8.388904495623652e+00  -2.969484000000016e-01  1.67608495e+00   5.71053590e-01   1.35802230e-01
C     6.188215570200000e+00   5.644970755920496e-01  -3.709322999999998e-01 -4.74836760e-01  -2.19644450e-01   2.56522233e+00
C     1.235801349850000e+01   8.343250334531913e+00  -2.868369000000008e-01 -6.16473440e-01   6.49207800e-01  -2.68495849e+00
C     8.642874697999998e+00   5.545752577549184e-01  -1.190903999999975e-01  4.59497940e-01   6.84439420e-01  -3.34264220e-01
C     1.300763984500000e+00   2.080685057272421e+00  -1.949192999999987e-01  1.71670620e-01  -4.21621990e-01  -1.83973045e+00
C     2.501298357500000e+00   2.763910413160696e+00  -6.706019999999988e-01  2.43605220e-01  -2.37758335e+00   1.73932793e+00
C     3.735332820000000e+00   1.993829572883949e+00  -4.807337999999994e-01 -3.60795260e-01   1.58780846e+00   1.38221571e+00
C     4.946843197100000e+00   2.752407512143089e+00  -3.785223000000002e-01  8.24839970e-01  -1.11700022e+00   9.65209720e-01
C     6.135557550000000e+00   1.958761223084265e+00  -1.781400000002265e-03  2.62316663e+00   2.51729271e+00  -2.42587283e+00
C     7.486189421200000e+00   2.740575090711058e+00   8.406060000000000e-02 -2.90380099e+00   1.28789839e+00  -1.38114318e+00
C     8.692544004300000e+00   2.061083075594743e+00  -1.722396000000010e-01 -1.18172910e-01  -1.88573730e+00   2.07145676e+00
C     9.956219648099999e+00   2.765326864219119e+00  -2.553624000000028e-01 -2.40508497e+00   1.87411236e+00  -9.56312640e-01
C     2.485094581400000e+00   4.149126881318619e+00  -9.088989000000005e-01 -8.58811140e-01   1.22040770e+00   4.02828750e-01
C     3.708551876800000e+00   4.866108311876011e+00  -6.598259999999989e-01  8.02897500e-01   2.28115600e-02  -1.20764831e+00
C     4.960748163500000e+00   4.210243226417228e+00  -4.588125000000005e-01 -1.15154231e+00  -3.32837901e+00  -5.68806860e-01
C     6.174843093100000e+00   4.867624071626316e+00  -4.089162000000002e-01  1.69113642e+00   1.82672025e+00   4.58360436e+00
C     7.420523941100000e+00   4.275271206826620e+00   4.462980000000000e-02  6.43697670e-01  -3.84918471e+00  -2.16208475e+00
C     8.685341865900000e+00   4.989146828492227e+00  -1.374414000000002e-01 -8.83861070e-01  -5.11691237e+00  -1.25003668e+00
C     9.866391547799999e+00   4.234290702340900e+00  -5.735667000000007e-01  2.02765830e-01  -1.47654483e+00   1.82518418e+00
C     1.105586724060000e+01   4.905898222130506e+00  -9.614429999999992e-01  1.19951299e+00  -4.54733390e-01   2.10510721e+00
C     3.721903007000000e+00   6.267817281045320e+00  -6.502152000000017e-01  8.55441550e-01   8.01633610e-01   1.55782953e+00
C     4.950276350499999e+00   7.030525198113216e+00  -4.991550000000089e-02 -1.26310772e+00  -4.67777916e+00  -2.30270819e+00
C     6.159325227900000e+00   6.263168729130113e+00   2.207310000000000e-02  1.06473835e+00   1.37832052e+00  -2.49982132e+00
C     7.426043174699999e+00   6.994217667112675e+00  -2.417970000000125e-02 -1.24839305e+00   2.41502727e+00  -7.27033600e-02
C     8.646360553099999e+00   6.322338094449177e+00  -2.454666000000003e-01  1.43515540e-01   2.11692131e+00   5.12049600e-01
C     9.882321659599999e+00   6.984297471687536e+00  -4.092380999999996e-01  8.18715200e-02   2.12758826e+00  -4.59154350e-01
C     1.112099589300000e+01   6.354865490900327e+00  -7.297440000000002e-01 -4.30465462e+00  -4.78809494e+00  -1.44660218e+00
C     1.231795468490000e+01   6.883145805173238e+00  -8.468172000000003e-01  4.71724204e+00   6.79667039e+00   3.86166853e+00
