32
Lattice="9.896 0 0 4.948 8.57018739585081 0 0 0 30 " PBC="1 1 1" Properties=species:S:1:pos:R:3:force:R:3 Energy="-258.05224595"
C    -2.810537347302224e-03   2.429091591206967e-03   3.000501527839316e+00  1.89180860e-01  -1.75790060e-01   1.81243000e-03
C     1.238501125353296e+00   7.157506243753883e-01   2.999689867338879e+00 -1.36415140e-01  -1.67925270e-01   1.52360000e-02
C     2.473648465400958e+00  -3.192502332415131e-04   2.998994890936934e+00  8.24503500e-02  -8.61937800e-02   3.25256000e-03
C     3.714157738999545e+00   7.115455436583922e-01   3.003277815472165e+00 -2.06830840e-01   7.56572600e-02  -3.11921000e-02
C     4.947440204660053e+00  -2.468281580927549e-03   3.003494733958082e+00  1.20313760e-01  -3.52748300e-02  -3.50142300e-02
C     6.185158848603714e+00   7.109005014202545e-01   3.001644206699286e+00  1.47140500e-02   6.76327700e-02   7.80954000e-03
C     7.424510570427645e+00  -7.040772398059850e-04   3.000459909143864e+00 -1.28039310e-01  -5.26717000e-03   1.49837400e-02
C     8.659388809864192e+00   7.171068933979156e-01   3.001669841072613e+00 -1.77319400e-02  -2.04492920e-01  -2.33846100e-02
C     1.235946220499316e+00   2.140940268806316e+00   3.002695094957766e+00 -3.20328600e-02   7.29623600e-02  -4.00996600e-02
C     2.471955912464359e+00   2.853282708184648e+00   3.001323072513710e+00  5.23244800e-02   2.35254320e-01  -4.08231000e-03
C     3.708809916612718e+00   2.141372000444216e+00   2.999960533588349e+00  1.89643240e-01  -9.71833000e-03   4.10889100e-02
C     4.950615553327185e+00   2.855266796210303e+00   3.002177058960236e+00 -2.44820030e-01   1.16636770e-01  -4.30990400e-02
C     6.184185539997419e+00   2.142095573766205e+00   3.001385046816920e+00  4.60227800e-02  -9.47489100e-02   1.92540300e-02
C     7.419421446668563e+00   2.857171557672940e+00   3.001849273006199e+00  1.75267220e-01  -8.36323600e-02  -5.19283700e-02
C     8.659608668690554e+00   2.139348962487239e+00   2.999281471770451e+00 -1.46204820e-01   2.98709110e-01   1.72269300e-02
C     9.894010643732342e+00   2.855064019672295e+00   2.998345460875532e+00  9.77805600e-02   9.97678500e-02   3.13952300e-02
C     2.471104084411801e+00   4.286702752525899e+00   3.000709548253958e+00  2.27163970e-01  -1.63808110e-01   1.69775400e-02
C     3.713387022712620e+00   5.001138605972249e+00   2.999880263565959e+00 -1.85974050e-01  -9.16456500e-02  -1.90448800e-02
C     4.949247599311465e+00   4.287390139959369e+00   2.997569285130860e+00  3.26902300e-02  -1.53499270e-01   5.02459100e-02
C     6.187833245292523e+00   4.999426737088901e+00   3.000436407557245e+00 -5.80348400e-02  -2.16635600e-02  -2.39848500e-02
C     7.423977381702198e+00   4.284939289595652e+00   2.996563551179192e+00 -5.82061200e-02  -6.28690500e-02   5.43578000e-02
C     8.659999087716090e+00   4.997448821533027e+00   2.999363890315814e+00  4.62662400e-02   7.94253000e-02   2.75980000e-03
C     9.898034465483892e+00   4.287579637781055e+00   2.999902651198303e+00 -1.91653050e-01  -3.12343830e-01   8.74974000e-03
C     1.113078061689799e+01   4.997004163128833e+00   3.003348376469066e+00  1.18843570e-01   1.53564100e-01  -4.35572500e-02
C     3.712274878151607e+00   6.429839661843267e+00   2.998979392352564e+00 -9.86350400e-02  -1.68718960e-01   2.72895100e-02
C     4.944743211981498e+00   7.138870518327360e+00   3.001172975467848e+00  2.73748260e-01   2.75223480e-01  -3.60610000e-03
C     6.187151399862624e+00   6.425804050595040e+00   3.002789540718382e+00 -1.51089780e-01   6.65389900e-02  -5.47564300e-02
C     7.422100564772939e+00   7.138758999209046e+00   2.996231090560919e+00  5.90738000e-02   1.44676480e-01   8.17482300e-02
C     8.661403012009639e+00   6.425847182383881e+00   3.002546217393686e+00 -1.83424400e-01  -4.73047100e-02  -7.28890200e-02
C     9.895206020784121e+00   7.137727978406511e+00   2.998486430497754e+00  3.92491300e-02   1.43492890e-01   5.33007400e-02
C     1.112942447606167e+01   6.425518500448718e+00   2.999542686738141e+00  2.53833600e-01   6.28190100e-02   1.89656000e-02
C     1.237171912361727e+01   7.141353338194923e+00   3.000730654800876e+00 -1.79473860e-01  -7.46392000e-03  -1.98153700e-02
