32
Lattice="9.86 0 0 4.93 8.53901048131456 0 0 0 30 " PBC="1 1 1" Properties=species:S:1:pos:R:3:force:R:3 Energy="-251.60762365"
C     5.099962785300000e+00   8.064944343264608e+00  -4.909542000000009e-01 -5.14412095e+00  -6.43634320e-01  -1.56776200e-01
C     1.266537952500000e+00   2.915758697235384e-01  -5.838915000000000e-01  5.46615835e+00  -7.26257980e-01   6.46421090e-01
C     7.515180335500000e+00   8.138385127579106e+00  -6.139520999999988e-01  1.08398677e+00  -2.64865000e-01   9.53484080e-01
C     3.930181949500000e+00   2.709852414124856e-01  -4.787295000000000e-01 -5.73381821e+00   2.04756369e+00   9.81832660e-01
C     9.998309720300000e+00   8.083717528585099e+00  -2.883698999999993e-01  1.71826157e+00   9.39570420e-01  -1.74135356e+00
C     6.363614173500000e+00   2.872927020667704e-01  -4.663958999999984e-01 -3.36753431e+00  -2.31909694e+00   1.08195411e+00
C     1.244219842500000e+01   8.120248013149272e+00  -3.602919000000000e-01  2.47973400e+00  -1.13572117e+00   7.26603770e-01
C     8.778988892099999e+00   3.007377156279496e-01  -4.391034000000005e-01  1.64775720e-01  -1.10592402e+00  -1.98430380e-01
C     1.305501566600000e+00   1.670075039897264e+00  -3.102236999999981e-01  2.65645029e+00   2.35040615e+00   2.75655410e-01
C     2.549699815700000e+00   2.422801707615089e+00   3.243030000000000e-02  9.88714320e-01  -1.29107637e+00  -7.76679080e-01
C     3.771737221800000e+00   1.717749360088362e+00  -1.380161999999991e-01  3.71657544e+00  -7.63443530e-01  -1.42749910e+00
C     5.104795861500000e+00   2.409674516023975e+00  -2.159900999999991e-01 -2.59046414e+00  -2.00852333e+00  -3.28517400e-02
C     6.330829722800000e+00   1.653164383542672e+00  -5.494385999999984e-01 -2.40558283e+00   3.20418949e+00   1.18110279e+00
C     7.474943450300001e+00   2.414147762054028e+00  -5.761187999999997e-01  4.88753596e+00   7.85252630e-01   7.81830360e-01
C     8.807419068200000e+00   1.725136287274400e+00  -4.785773999999989e-01 -2.06579413e+00   3.27129290e-01  -1.39846483e+00
C     1.006148195150000e+01   2.457700985007268e+00  -4.480880999999997e-01 -3.41813265e+00   7.45244700e-01   1.94620844e+00
C     2.659101840100000e+00   3.858535388723215e+00   2.947839000000000e-01 -4.12959831e+00  -1.71135361e+00  -3.88458770e-01
C     3.847475332800000e+00   4.560138659136861e+00   1.809114000000000e-01  7.17876000e-01   2.27827490e-01   1.13641100e-02
C     5.097240291399999e+00   3.795420061271238e+00  -4.169609999999935e-02 -2.62959985e+00  -4.33144630e-01   2.02682120e-01
C     6.258266581100000e+00   4.452643532517180e+00  -2.108933999999998e-01  2.36772584e+00   4.98379163e+00  -7.61180340e-01
C     7.539086595699999e+00   3.876391484318153e+00  -4.478214000000023e-01 -4.08135438e+00  -3.31312784e+00  -1.19960590e-01
C     8.668118762999999e+00   4.595036570287363e+00  -4.318524000000004e-01  6.46386558e+00  -8.82342800e-01   2.02792993e+00
C     9.999782754999998e+00   3.881623421429353e+00  -1.025414999999974e-01 -6.73008010e-01  -8.71296360e-01  -1.35576706e+00
C     1.118941699660000e+01   4.523641391323454e+00   3.344610000000000e-01  6.03965750e-01   3.11481038e+00  -1.82746378e+00
C     3.749663590500000e+00   6.005450633690508e+00   4.823490000000000e-02  5.16341430e-01  -2.16666312e+00  -6.71621930e-01
C     4.944578897400000e+00   6.597658420702149e+00  -4.041288000000023e-01  1.98180644e+00   2.64927853e+00   1.63065296e+00
C     6.161050382799999e+00   5.921979671495889e+00  -2.672999999999988e-01  4.10698373e+00   2.10942100e-02  -1.70960602e+00
C     7.545859922700000e+00   6.742586690683844e+00  -4.873457999999999e-01 -2.16813333e+00  -2.36044186e+00   3.27976980e-01
C     8.829371174999999e+00   5.966985550911986e+00  -3.802373999999986e-01 -6.97590711e+00   6.50372950e-01  -6.09869180e-01
C     9.942581690499999e+00   6.663176454922988e+00  -2.370684000000018e-01  4.52765306e+00   2.72596898e+00   1.52820661e+00
C     1.118249744580000e+01   6.109458257649948e+00   1.834560000000000e-01 -2.77696065e+00  -6.54029008e+00  -1.56696490e-01
C     1.236408504000000e+01   6.680744358914226e+00   2.869830000000000e-02  3.71159860e+00   3.76470244e+00  -9.71226350e-01
