26
Lattice="8.88768389401873 1.33226762955019e-15 0 4.44384194700937 7.69696003302603 0 0 0 30 " PBC="1 1 1" Properties=species:S:1:pos:R:3:force:R:3 Energy="-208.77194911"
C     1.324223634585680e+01   7.573522342606884e+00  -1.473038999999972e-01  1.17822972e+00   1.21290540e+00  -6.21242200e-02
C     9.480198805647980e+00   7.423387672380112e+00  -1.562969999999986e-01 -3.23893500e-02   5.55421400e-02   5.39590890e-01
C     1.084374655676046e+01   6.997581221715671e+00  -1.062885000000016e-01  5.70329220e-01   3.01865215e+00  -2.49437650e-01
C     1.122462051672237e+01   5.675163132298958e+00  -1.086330000000011e-01 -1.09119549e+00  -2.21873192e+00  -9.21048000e-02
C     7.097218469331773e+00   6.859592200477040e+00  -1.692882000000004e-01  5.73814340e-01  -4.48098707e+00   5.32175580e-01
C     8.460068803870540e+00   6.404740501443389e+00  -1.174296000000012e-01 -4.63600500e-02   3.01662375e+00  -6.08631750e-01
C     8.821970580529440e+00   5.066334286652360e+00  -1.333106999999991e-01  5.73108600e-02  -4.32455580e-01   3.26389590e-01
C     1.016706172292721e+01   4.695108057135053e+00  -1.058304000000021e-01  1.54692572e+00  -1.52467493e+00  -2.40522790e-01
C     1.050414690863525e+01   3.283695791611473e+00  -1.373970000000000e-01  3.88425250e-01   1.01418803e+00  -4.32780700e-02
C     4.710372879221796e+00   6.188023278477103e+00  -1.423784999999995e-01  7.70609940e-01   5.92316020e-01  -9.44903800e-02
C     6.097650657463552e+00   5.792716339809938e+00  -1.405029000000013e-01 -4.54132370e-01   1.59189020e+00  -1.85161900e-02
C     6.465484874224751e+00   4.427466669035883e+00  -1.067469000000010e-01 -1.00261496e+00  -9.08560500e-02  -4.11144220e-01
C     7.839318919652602e+00   4.078660683481162e+00  -1.249143000000004e-01 -1.14592824e+00  -3.09242353e+00  -2.09830000e-04
C     8.168770784704272e+00   2.617698237159652e+00  -1.380681000000017e-01 -1.22284204e+00   3.04356462e+00   1.94735690e-01
C     9.512034663744309e+00   2.264378908182540e+00  -1.500623999999995e-01  2.56686030e-01  -9.16311800e-02  -1.22679550e-01
C     3.681329197125407e+00   5.240848000199753e+00  -1.480415999999991e-01  4.76758880e-01  -1.15681424e+00   3.55177350e-01
C     4.022792189287094e+00   3.829356302048662e+00  -1.400417999999988e-01  4.88441890e-01   1.56751926e+00  -2.74850850e-01
C     5.397812873791073e+00   3.421366928400866e+00  -1.472426999999996e-01  7.95877090e-01   2.06682666e+00   3.43775850e-01
C     5.754726660057489e+00   2.080929408888319e+00  -1.337201999999991e-01  2.60860220e-01  -1.92203860e-01  -2.90785500e-02
C     7.129758498595356e+00   1.658479525523360e+00  -1.099025999999981e-01 -5.39708220e-01   1.65738131e+00  -2.40642990e-01
C     7.454466118069774e+00   3.256425231316382e-01  -1.185116999999991e-01 -6.97631110e-01  -2.97513052e+00   1.26286200e-02
C     2.983339962845609e+00   2.900902185713080e+00  -1.685841000000003e-01 -4.25251200e-01  -1.79752023e+00   1.04041760e-01
C     3.324424117482615e+00   1.491149307802367e+00  -1.910594999999979e-01  6.01129600e-01   1.24826253e+00   3.94700930e-01
C     4.705151361671033e+00   1.161311402667177e+00  -1.573268999999975e-01 -3.02659840e-01  -3.29201686e+00  -1.60204150e-01
C     9.454870551768937e-01   8.941131285569335e-01  -1.818597000000004e-01  6.13969980e-01  -1.52629193e+00   4.41204630e-01
C     2.334002621139732e+00   4.768278284025045e-01  -1.500740999999977e-01 -1.61865585e+00   2.78606582e+00  -5.96504890e-01
