2
Lattice="2.522 0 0 1.261 2.18411606834435 0 0 0 30 " PBC="1 1 1" Properties=species:S:1:pos:R:3:force:R:3 Energy="-16.06251189"
C     0.000000000000000e+00   0.000000000000000e+00   3.000000000000000e+00 -0.00000000e+00  -0.00000000e+00  -0.00000000e+00
C     1.261000000000000e+00   7.280386894481180e-01   3.000000000000000e+00  0.00000000e+00   0.00000000e+00   0.00000000e+00
