32
Lattice="9.86 0 0 4.93 8.53901048131456 0 0 0 30 " PBC="1 1 1" Properties=species:S:1:pos:R:3:force:R:3 Energy="-253.88145738"
C     9.771807969499999e+00   5.159450305137128e-01   3.634633800000000e+00 -5.29319620e-01  -2.92070995e+00   6.00168230e-01
C     1.150409731900000e+00   1.116467337419834e+00   3.582143700000000e+00  1.24447012e+00   3.18540810e+00   5.13171700e-02
C     2.381836914600000e+00   4.631765928405616e-01   3.946568400000000e+00 -6.15002460e-01   1.20364130e-01  -7.81254340e-01
C     3.642330440600000e+00   1.094897028436411e+00   3.818792400000000e+00 -1.48648884e+00   3.15574161e+00  -1.93429460e-01
C     4.829898913600000e+00   4.319593367673584e-01   3.927075600000000e+00  2.67104680e+00  -1.31608734e+00  -1.68240110e-01
C     6.083203168499999e+00   1.161779938092373e+00   3.848446800000000e+00 -1.24559144e+00   2.56036640e-01   7.75524590e-01
C     7.328352562499999e+00   4.280622177743912e-01   3.788365800000000e+00 -1.76680861e+00   5.98297130e-01  -6.48324250e-01
C     8.488283159700000e+00   1.157017731947678e+00   3.582978300000000e+00  2.04753202e+00  -3.26333330e-01  -1.17955520e-01
C     1.101203594170000e+01   2.572000763688356e+00   3.290038200000000e+00 -4.67387400e-02  -1.41600996e+00   1.21884200e-01
C     2.392052269000000e+00   3.282050994049027e+00   3.268641900000000e+00  5.46451330e-01   1.56033260e-01   1.21729339e+00
C     3.662377989800000e+00   2.534106086809898e+00   3.620532300000000e+00 -2.24324543e+00   1.48154987e+00   4.62593300e-02
C     4.812370347900000e+00   3.306758364702593e+00   3.936859200000000e+00  4.70272620e-01   5.57371300e-02  -1.26654637e+00
C     6.019574074199999e+00   2.615084938795929e+00   3.962673300000001e+00  3.59460838e+00  -2.56195653e+00  -5.95648580e-01
C     7.366881695700000e+00   3.251099386591857e+00   3.834206700000000e+00 -5.13042860e+00   2.25849650e+00  -1.24379580e-01
C     8.470884696699999e+00   2.546214830621061e+00   3.464267100000000e+00  3.01424095e+00   5.49256500e-01   4.18391950e-01
C     9.744582636099999e+00   3.248276560507378e+00   3.287889000000000e+00  3.34535810e-01   1.05492367e+00   2.85910450e-01
C     1.220399541780000e+01   4.741003610893950e+00   3.287970900000000e+00  2.16993980e+00   8.57474100e-02   1.53776952e+00
C     3.655668506300000e+00   5.422317850846697e+00   3.670939800000000e+00 -2.24829156e+00  -1.99799420e-01  -4.00097670e-01
C     4.873104299700000e+00   4.750623916271032e+00   3.925228800000000e+00 -3.28881685e+00  -1.66248978e+00  -8.50138000e-03
C     6.000348503900000e+00   5.452758227746430e+00   4.234832700000000e+00  4.69889629e+00  -1.38733570e+00  -1.38295397e+00
C     7.298990862899999e+00   4.679317884576535e+00   3.909023400000000e+00  5.77429760e-01   1.29239270e+00   2.09679963e+00
C     8.559425623300001e+00   5.402114210490597e+00   3.896865599999999e+00 -1.23652552e+00  -5.00277480e-01  -8.54933090e-01
C     9.786074403499999e+00   4.697794595453159e+00   3.423054300000000e+00 -2.17771915e+00   8.00384780e-01   1.06049790e+00
C     1.095372109160000e+01   5.497107542646720e+00   3.393691200000000e+00  2.10459110e+00  -1.89425993e+00   6.13921310e-01
C     1.350403276960000e+01   6.819196045617155e+00   3.809630100000000e+00 -1.07018700e-01   2.63405293e+00  -1.28496510e+00
C     4.898367887499999e+00   7.629776046358866e+00   3.866027700000000e+00 -1.72037526e+00  -2.44422527e+00   1.42398048e+00
C     6.075853820300000e+00   6.850052870057998e+00   4.269373800000000e+00 -2.94692030e-01   3.67137236e+00  -1.49222164e+00
C     7.323878340999999e+00   7.655153729335112e+00   4.279763099999999e+00 -4.95238400e-01  -4.66925929e+00  -6.30605710e-01
C     8.525776795700001e+00   6.818428473965107e+00   4.150666500000000e+00  1.65527883e+00   1.20914118e+00  -1.09678362e+00
C     9.792668229200000e+00   7.521449732459062e+00   3.914867700000000e+00 -2.95908977e+00   1.99345133e+00   1.37639285e+00
C     1.098938816260000e+01   6.897576305933914e+00   3.762309000000000e+00  1.58191249e+00  -2.53699304e+00  -1.72934855e+00
C     1.224357725390000e+01   7.562943089914213e+00   3.695787000000000e+00  8.80184660e-01  -7.22650230e-01   1.15007793e+00
