32
Lattice="9.896 0 0 4.948 8.57018739585081 0 0 0 30 " PBC="1 1 1" Properties=species:S:1:pos:R:3:force:R:3 Energy="-258.06066994"
C    -5.040795740223994e-04   7.646335285758103e-04   2.999629524747403e+00  2.65930600e-02  -4.14509200e-02   6.73544000e-03
C     1.237715998500410e+00   7.143340603536235e-01   2.999390379072741e+00 -7.12534600e-02  -9.07822000e-03   6.65545000e-03
C     2.473022713305037e+00  -1.092368155966920e-03   3.000428725350025e+00  8.42334000e-02   7.43211300e-02  -6.87452000e-03
C     3.711489430571422e+00   7.147581886390915e-01   3.000712200420723e+00 -5.96859600e-02  -5.13796000e-02  -1.17499000e-03
C     4.946951955016655e+00  -4.510582039622084e-04   3.000596291587752e+00  3.61753700e-02   8.22225000e-03  -1.51214100e-02
C     6.184575694722980e+00   7.141084229172592e-01   2.999211006065676e+00 -5.53608000e-03  -2.14151500e-02   1.25305500e-02
C     7.421563349890076e+00  -1.115621701376711e-04   3.000073305895302e+00  2.58010000e-04  -2.02945400e-02  -7.20880000e-04
C     8.658487957577368e+00   7.136305195034226e-01   3.000440750700066e+00 -3.90446000e-03   4.12420700e-02  -1.35482900e-02
C     1.236340576825298e+00   2.142985378747418e+00   2.999832590598980e+00  2.85161800e-02  -4.40869900e-02  -7.75615000e-03
C     2.473722086389748e+00   2.856322025865492e+00   3.000032711535549e+00  1.71879300e-02   9.98831000e-03   8.26212000e-03
C     3.712206547816926e+00   2.142623331117258e+00   3.000446399054002e+00 -8.54774700e-02  -2.04534200e-02   8.64230000e-04
C     4.947730667330040e+00   2.855780491977816e+00   3.000512676447038e+00  2.56330900e-02   6.81524400e-02  -5.22353000e-03
C     6.184786286217942e+00   2.142438074684060e+00   2.999584250573574e+00 -1.01366200e-02  -2.03498400e-02   1.00108000e-02
C     7.420994851511966e+00   2.856624523056292e+00   3.000756531656136e+00  3.13436900e-02   1.65686100e-02  -2.23868000e-02
C     8.658241741789475e+00   2.142460329450402e+00   2.999235329948371e+00 -1.69127600e-02  -2.09803800e-02   1.24539700e-02
C     9.894950731238639e+00   2.855571269550341e+00   2.999140175029894e+00  2.86283400e-02   5.66815100e-02   1.39043500e-02
C     2.473399045653434e+00   4.284028328626686e+00   3.001056866677252e+00  3.34430400e-02   7.64799900e-02  -1.10214600e-02
C     3.711115352526345e+00   5.000432071308325e+00   3.000982941284576e+00 -2.43563800e-02  -9.72196600e-02  -4.33452000e-03
C     4.947730458239056e+00   4.284793774238668e+00   3.000374995065954e+00  1.86647800e-02   1.76162300e-02   4.82795000e-03
C     6.185881432671591e+00   4.999135090132510e+00   3.000081152416105e+00 -8.67978600e-02   1.66071000e-02  -1.04613600e-02
C     7.421166058525066e+00   4.285230160216978e+00   2.999076666454921e+00  9.01720900e-02   6.79812000e-03   1.58125100e-02
C     8.660102748937073e+00   5.000469963912691e+00   2.999508777724906e+00 -6.68099400e-02  -1.22880890e-01   4.35539000e-03
C     9.896667053659394e+00   4.284628462276629e+00   3.001183006196905e+00 -4.73088200e-02   1.60556700e-02  -2.65898500e-02
C     1.113245888215495e+01   4.999705987692142e+00   2.999834424526646e+00  3.63828600e-02  -3.51304100e-02   1.96721200e-02
C     3.710764174395532e+00   6.427840986634786e+00   3.000226571721926e+00 -7.08513000e-03  -7.06128000e-03   9.24022000e-03
C     4.946906945258419e+00   7.141626987420747e+00   3.000481710086630e+00  3.74723100e-02   4.91391700e-02  -1.10938600e-02
C     6.183816690852266e+00   6.428121086451569e+00   2.999404965858742e+00  5.27518600e-02  -1.96682300e-02   9.49826000e-03
C     7.422046107477416e+00   7.141940384212291e+00   2.999663265951400e+00 -4.97533900e-02  -3.98874600e-02  -1.11210000e-03
C     8.658758592266947e+00   6.426568202375553e+00   2.999329815195412e+00 -4.26649000e-03   6.42699700e-02  -1.16426000e-03
C     9.894765493652443e+00   7.141068439558668e+00   2.999044895877106e+00  4.81854000e-02   3.39722300e-02   1.77946900e-02
C     1.113281994608009e+01   6.428284771407034e+00   3.000541388361665e+00 -1.56303100e-02  -3.15827200e-02  -1.36554800e-02
C     1.237029104804589e+01   7.141242501239831e+00   3.000432426054179e+00 -4.07262800e-02   4.68049000e-02  -3.78580000e-04
