32
Lattice="9.86 0 0 4.93 8.53901048131456 0 0 0 30 " PBC="1 1 1" Properties=species:S:1:pos:R:3:force:R:3 Energy="-257.03281654"
C     5.185737488900000e+00   6.606195979550368e+00  -2.541791999999994e-01 -3.98092070e-01   1.50451540e+00   5.55130500e-02
C     6.418832046899999e+00   7.337878853670965e+00  -2.779749000000002e-01 -8.06903880e-01   1.41854344e+00  -6.14293520e-01
C     7.686870050500000e+00   6.701409532786769e+00  -3.395994000000009e-01 -3.65628063e+00  -1.75068484e+00   7.90776400e-02
C     8.845923995099998e+00   7.409493655984420e+00  -3.568323000000007e-01  1.47296762e+00  -9.61171060e-01   2.70297840e-01
C     1.003012966580000e+01   6.662715092186753e+00  -2.845107000000020e-01  2.93074658e+00  -1.36955820e-01  -2.85281900e-02
C     1.130569839230000e+01   7.379834940104026e+00  -1.667276999999991e-01 -1.39102489e+00   3.43809230e-01  -7.14487130e-01
C     1.253222609170000e+01   6.681029476474152e+00  -2.095230000000008e-01  2.46640530e-01  -3.27436700e-01   1.99974390e-01
C     1.380352361410000e+01   7.355851421368850e+00  -2.773563000000010e-01 -4.73135940e-01  -7.94259300e-02   3.43773690e-01
C     1.428866830000000e+00   2.517792136507648e-01  -3.770027999999996e-01  1.54458122e+00  -8.08935170e-01   1.61801210e-01
C     2.673653967600000e+00   9.876180241719792e-01  -3.947541000000001e-01 -7.15873090e-01  -1.33051424e+00  -2.37860170e-01
C     3.910411022600000e+00   2.504216817646544e-01  -3.618813000000003e-01 -1.84452795e+00   1.86296654e+00   1.04898330e-01
C     5.073833538800000e+00   9.716350459159344e-01  -3.087933000000014e-01  3.72206195e+00   5.20404800e-01   3.15991980e-01
C     6.346150092200000e+00   2.726085926948384e-01  -2.010956999999998e-01 -4.23335600e-02  -4.86726320e-01  -6.24304110e-01
C     7.595349776999999e+00   9.572982181002240e-01  -3.104393999999999e-01 -2.41366400e-01   4.37846160e-01   4.31272110e-01
C     8.836501927000000e+00   2.439106862736544e-01  -3.360656999999989e-01  4.63295920e-01   8.71103100e-02  -8.67626300e-02
C     1.008612608480000e+01   9.636164027345856e-01  -4.223102999999995e-01 -9.70724340e-01  -3.82608490e-01  -6.94910000e-03
C     2.648960337100000e+00   2.395898871977010e+00  -4.192964999999980e-01  2.73453935e+00  -3.94212800e-02   3.23503500e-01
C     3.920285221000000e+00   3.113102402196987e+00  -3.427064999999985e-01 -1.25590587e+00   5.26929690e-01   3.85846380e-01
C     5.158788580600000e+00   2.393897925651232e+00  -3.239595000000008e-01 -1.76931752e+00   4.68923320e-01  -1.26414910e-01
C     6.376513962200000e+00   3.111329703621339e+00  -3.298674000000013e-01  8.29348970e-01  -2.84119930e-01   3.20862880e-01
C     7.598991272199999e+00   2.399155394403768e+00  -3.281058000000030e-01  8.43099010e-01  -1.12533777e+00  -3.94040750e-01
C     8.853841969499999e+00   3.070369180420142e+00  -3.990957000000002e-01 -4.20901310e-01   1.06050962e+00  -3.76870730e-01
C     1.010800167800000e+01   2.377003493416552e+00  -4.943670000000004e-01 -1.41205274e+00   1.66343150e-01   7.89226620e-01
C     1.131684507300000e+01   3.095958289295872e+00  -4.252289999999981e-01 -9.52135770e-01   7.20779940e-01   4.73131200e-02
C     3.861841599300000e+00   4.558035073905113e+00  -2.019851999999993e-01  1.47752803e+00  -1.71693380e+00  -7.40220990e-01
C     5.153426071700000e+00   5.198167117944601e+00  -2.224791000000010e-01 -7.41045000e-01   7.68776920e-01  -9.09838800e-02
C     6.400460500499999e+00   4.526267393216369e+00  -3.055734000000001e-01 -6.35429680e-01   3.75234560e-01   1.01735300e-02
C     7.621418532400000e+00   5.278520828973392e+00  -3.656822999999996e-01  5.71436910e-01  -1.51262633e+00   1.56335990e-01
C     8.824901587699999e+00   4.510163331791718e+00  -4.092779999999969e-01  1.01450356e+00   2.39359270e-01  -1.86967000e-03
C     1.008171866480000e+01   5.228076966123211e+00  -3.798867000000001e-01 -1.89123656e+00   3.76942880e-01   5.11517450e-01
C     1.128885100470000e+01   4.515325675967507e+00  -3.014820000000000e-01  1.17005650e-01   3.33328650e-01  -4.51589500e-01
C     1.247983049540000e+01   5.259225568552155e+00  -2.111622000000004e-01  1.65053187e+00  -2.69426220e-01  -1.22044200e-02
