32
Lattice="9.688 0 0 4.844 8.39005411186364 0 0 0 30 " PBC="1 1 1" Properties=species:S:1:pos:R:3:force:R:3 Energy="-257.24431971"
C    -5.764966813467777e-03   6.816938820657022e-03   2.994604553000003e+00  5.81425360e-01  -1.09368680e-01   6.87912400e-02
C     1.222520998062727e+00   7.070055267741322e-01   3.004032027398989e+00 -5.73606720e-01  -9.42814360e-01  -2.73862300e-02
C     2.434230476240787e+00   3.663709371359556e-03   3.001425879510498e+00 -4.57241980e-01  -1.84945180e-01  -6.64463400e-02
C     3.640921388904254e+00   7.086632625422462e-01   2.987030127171294e+00  8.78339900e-02  -9.60550300e-01   2.30506190e-01
C     4.852530067445296e+00   5.187351266772515e-03   3.009398977018414e+00 -1.02610430e-01  -4.03729930e-01  -1.36206870e-01
C     6.060692338401442e+00   7.094113203105842e-01   3.008569124447821e+00 -1.57153750e-01  -5.96457530e-01  -2.26753400e-02
C     7.263496233136712e+00  -1.203601147788737e-02   3.010407232752461e+00  9.85063800e-02   1.46221277e+00  -1.25868200e-01
C     8.475094947586733e+00   7.059945037015332e-01   2.993319064973833e+00  1.31838200e-02  -8.32295770e-01   7.42451100e-02
C     1.208981428637121e+00   2.089815968589983e+00   3.009664601280241e+00  5.80660150e-01   6.30328460e-01  -1.03664030e-01
C     2.426984176880234e+00   2.783250443116109e+00   3.005097001306882e+00 -1.17124860e-01   9.53445730e-01   9.46627800e-02
C     3.638225160054936e+00   2.089073512529513e+00   3.003937979397919e+00  3.70086000e-02   7.94906900e-01  -7.76841600e-02
C     4.853195625898705e+00   2.791469511490810e+00   3.003022575219751e+00 -7.25125670e-01   7.55088430e-01  -1.38530920e-01
C     6.049253819987818e+00   2.106240277065516e+00   2.990258152274577e+00  9.33333760e-01  -3.79215440e-01   1.65049150e-01
C     7.267595914838942e+00   2.794639580774358e+00   2.997085364629100e+00  2.44432570e-01   4.94877430e-01  -9.17025200e-02
C     8.487498364721588e+00   2.090059466016393e+00   2.995437860075357e+00 -6.27678960e-01   8.95717980e-01  -6.63020000e-03
C     9.695844957281430e+00   2.795290276670665e+00   2.998070315247286e+00 -2.28483290e-01   4.07369300e-01   8.74989700e-02
C     2.427950178849364e+00   4.205876105591388e+00   3.010637764555307e+00 -1.52954500e-02  -1.52787881e+00  -1.49341350e-01
C     3.632500744343499e+00   4.887667942570666e+00   2.997695372564428e+00  5.38294340e-01   6.54480850e-01   1.96818300e-02
C     4.850013716294152e+00   4.199158721524451e+00   2.989953357853194e+00 -1.79246970e-01  -5.42864300e-01   1.33233360e-01
C     6.058394566546893e+00   4.897193095323840e+00   2.998712313092231e+00 -3.01983010e-01   2.35933900e-02  -2.95478400e-02
C     7.265974617137015e+00   4.207426242325985e+00   2.995369347569443e+00  1.66473210e-01  -9.76058660e-01   8.00052300e-02
C     8.469876776319843e+00   4.901028639291742e+00   3.005873584698455e+00  9.03045730e-01   3.37871000e-02  -1.05824590e-01
C     9.700219060490760e+00   4.204211187503098e+00   3.005522465867593e+00 -6.22821240e-01  -3.82862020e-01  -7.15512700e-02
C     1.091404836392664e+01   4.894734489551753e+00   2.996964988845488e+00 -4.38799110e-01   3.90431840e-01   1.74983590e-01
C     3.637498526675774e+00   6.291475537504947e+00   2.998020899400584e+00 -7.37565890e-01   7.75033900e-02  -1.45901300e-02
C     4.834846823876285e+00   6.994065580258357e+00   3.003495475537656e+00  5.31369480e-01   6.94854000e-02  -3.34693200e-02
C     6.052949510318803e+00   6.289155499464931e+00   3.009665798499715e+00 -2.34023480e-01   4.31891500e-01  -6.57630500e-02
C     7.259896414054101e+00   6.986641346117754e+00   3.003162649773498e+00  2.52630050e-01   7.03603880e-01  -1.55890700e-02
C     8.475684196720856e+00   6.303987715974341e+00   2.994737913085403e+00 -2.10732390e-01  -7.58004290e-01   1.20775380e-01
C     9.686008329107484e+00   6.980684616554864e+00   3.004091452381960e+00  5.62282490e-01   1.03546945e+00   2.08243900e-02
C     1.091094658777172e+01   6.296546077475319e+00   3.007379885319007e+00 -9.34508040e-01  -3.51807250e-01  -1.12107240e-01
C     1.209893810111718e+01   7.001692021835760e+00   2.997957778089316e+00  1.13352133e+00  -8.65341270e-01   1.24321440e-01
