32
Lattice="9.86 0 0 4.93 8.53901048131456 0 0 0 30 " PBC="1 1 1" Properties=species:S:1:pos:R:3:force:R:3 Energy="-254.60677747"
C     9.749415367199999e+00   9.286566691482081e-01   3.584209800000000e+00  3.31451153e+00  -9.35895320e-01   1.22030813e+00
C     1.224400552300000e+00   1.501409516242636e+00   3.713687700000000e+00 -2.25144340e+00   3.52836662e+00   3.67525240e-01
C     2.445705754800000e+00   7.993955194249024e-01   3.566637000000000e+00 -4.07718190e-01   3.11201607e+00   1.49207862e+00
C     3.608044114700000e+00   1.581217328331441e+00   3.872582100000000e+00  7.61767350e-01   6.19344000e-02  -1.38527207e+00
C     4.826901818700000e+00   8.557621253341160e-01   3.794015700000000e+00  1.07269447e+00   3.57917100e-01  -1.10291240e-01
C     6.102565644899999e+00   1.535441571730467e+00   3.718345800000000e+00 -3.09413200e-01   6.20373300e-01   5.64540670e-01
C     7.350619499100000e+00   7.829112158635768e-01   3.726876300000000e+00 -3.06478725e+00   8.07555040e-01   5.60589180e-01
C     8.514089491200000e+00   1.541513064352061e+00   3.746655300000000e+00  1.40950207e+00   1.79558621e+00   6.09306360e-01
C     1.104246759920000e+01   2.952491470957829e+00   4.060489499999999e+00  1.08020092e+00  -2.06072700e-02  -1.93391479e+00
C     2.408327825900000e+00   3.752137268779900e+00   3.999029700000000e+00 -9.89974190e-01  -2.21927138e+00   5.04921720e-01
C     3.618199027300000e+00   3.023506066224644e+00   3.925604700000000e+00  1.01452874e+00   6.89173500e-02  -7.57831760e-01
C     4.865037932300000e+00   3.770060993337840e+00   3.715215300000000e+00 -1.95108850e-01  -4.05782948e+00   1.55289849e+00
C     6.108593703800000e+00   3.023590687818501e+00   3.705905400000000e+00 -2.02645768e+00  -3.22869479e+00  -4.88249880e-01
C     7.310366936500000e+00   3.665783622037337e+00   3.712130700000000e+00  1.87921126e+00   2.14410300e-01   1.51557986e+00
C     8.578030999599999e+00   2.955084939220815e+00   3.989671800000000e+00 -2.36716919e+00   7.43755880e-01  -2.63274177e+00
C     9.799353506399999e+00   3.695632160120701e+00   3.978279000000001e+00  3.45700140e-01  -3.96426464e+00   1.16898690e+00
C     1.224075911800000e+01   5.158225640254086e+00   3.986286000000000e+00  1.78190908e+00  -6.85845100e-02   2.36164650e-01
C     3.662107234200000e+00   5.852624632915862e+00   3.934933500000000e+00 -1.19035562e+00   1.21396338e+00  -8.83866700e-02
C     4.872495000999999e+00   5.123916408486075e+00   3.850331400000000e+00 -3.21771030e-01   3.04730101e+00  -1.52846259e+00
C     6.062141025299999e+00   5.870506601712552e+00   3.565972800000000e+00  2.83916770e-01   2.18495690e-01   1.71879686e+00
C     7.239734481399999e+00   5.066436059439955e+00   3.661570200000000e+00  2.18693526e+00   2.44292883e+00  -9.17932330e-01
C     8.494385464400001e+00   5.753759798798211e+00   3.656739000000000e+00  2.58570946e+00   9.86631200e-01   1.21225984e+00
C     9.790576528799999e+00   5.049678934493794e+00   3.945330300000000e+00 -1.79830570e+00   3.52452043e+00  -1.16219521e+00
C     1.100748185420000e+01   5.802276236202846e+00   3.955057800000001e+00 -7.96758170e-01   1.73333473e+00  -7.29936830e-01
C     1.351480777760000e+01   7.309873887950234e+00   3.847877100000000e+00  1.67363366e+00  -2.39911730e+00   3.08801340e-01
C     4.915224691399999e+00   8.098879480983491e+00   3.696862800000000e+00 -2.20681025e+00  -3.73660631e+00  -5.40841130e-01
C     6.129635141000000e+00   7.347669256136810e+00   3.593437800000000e+00 -5.79616980e-01  -2.18951472e+00  -9.59754720e-01
C     7.393199958399999e+00   7.973457982712622e+00   3.425729700000000e+00 -4.92332090e-01  -1.91351523e+00   1.15652447e+00
C     8.602243609999999e+00   7.216487170615923e+00   3.601503300000000e+00 -2.70324332e+00  -1.42442524e+00  -5.52113980e-01
C     9.740948437299998e+00   7.968142021738298e+00   3.748452000000000e+00  3.46617674e+00  -3.13433450e-01  -2.57227960e-01
C     1.102748133590000e+01   7.251838588613019e+00   3.782067900000000e+00 -2.67771757e+00  -1.96271817e+00   1.28407731e+00
C     1.224154200200000e+01   7.873516208593235e+00   3.877944900000000e+00  1.52258525e+00   3.95647028e+00  -1.42820672e+00
