32
Lattice="9.86 0 0 4.93 8.53901048131456 0 0 0 30 " PBC="1 1 1" Properties=species:S:1:pos:R:3:force:R:3 Energy="-257.14587165"
C     4.980788071200000e+00   8.442464158007880e+00  -3.568770000000043e-02 -1.51623923e+00  -7.65447050e-01  -8.78010600e-02
C     1.273223476200000e+00   6.029987907255312e-01  -1.414559999999909e-02 -2.73045630e-01  -2.91084650e-01  -6.27553750e-01
C     7.417369184800000e+00   8.433800477974872e+00  -1.788000000001233e-03  1.83796496e+00   2.91358850e-01  -8.46756300e-02
C     3.753377063699999e+00   6.273082434907289e-01  -8.937869999999748e-02 -1.62295887e+00  -7.14379920e-01  -2.60306210e-01
C     9.892766258999998e+00   8.417024054865026e+00  -1.617648000000003e-01  2.83567700e-02   1.43788066e+00   5.82985400e-02
C     6.188380873100000e+00   6.103683837202951e-01  -1.388162999999984e-01 -1.37048000e-03   1.65654470e-01  -1.84617770e-01
C     1.235307802620000e+01   8.474380246698766e+00  -1.804139999999990e-01  6.96495100e-01  -1.18055420e+00   8.14878800e-02
C     8.671210464599998e+00   6.289356934981120e-01  -3.654660000000121e-02 -4.04012000e-01  -2.00747220e-01  -3.22148210e-01
C     1.243988526900000e+00   1.993001715817913e+00  -2.451630000000016e-01  6.51681690e-01   1.50906237e+00   1.01490736e+00
C     2.463127931100000e+00   2.740172305586716e+00  -3.380583000000001e-01  1.08541879e+00  -1.03183210e-01  -3.79010230e-01
C     3.705874886800000e+00   2.051877253786360e+00  -2.265270000000008e-01  9.51619550e-01  -7.32292500e-01   1.46069780e-01
C     4.962403756100000e+00   2.749365233489274e+00  -2.055888000000010e-01 -8.38864050e-01  -4.31708800e-02  -2.65674800e-02
C     6.192026903900000e+00   2.029856085049593e+00  -1.012035000000004e-01 -7.75308470e-01   3.84495260e-01   1.04660400e-02
C     7.405581456200000e+00   2.751999091271831e+00  -4.861199999999855e-02  8.51726680e-01  -1.22470880e-01   2.79784400e-01
C     8.636739806000000e+00   2.050298049188189e+00  -9.402000000022781e-04  1.26014698e+00  -2.32453880e-01  -5.33042660e-01
C     9.907816365799999e+00   2.736911684434928e+00  -1.419059999999988e-01 -1.65055220e+00  -8.82203700e-02  -4.40971490e-01
C     2.524221575700000e+00   4.157963988654476e+00  -5.249462999999999e-01 -1.30806600e+00   4.09076120e-01   6.63993550e-01
C     3.760243370500000e+00   4.910558557880175e+00  -4.770570000000021e-01 -1.18589932e+00  -1.51541123e+00   8.86043990e-01
C     4.944845955500000e+00   4.168185013418826e+00  -2.435676000000022e-01  1.51781725e+00   5.62407490e-01   7.86392600e-02
C     6.197352092699999e+00   4.874442471494596e+00  -3.157679999999985e-02 -4.76498360e-01  -1.67157310e-01  -6.69684350e-01
C     7.445899193400000e+00   4.170385772589837e+00  -2.775989999999950e-02 -1.33688558e+00   1.41406040e-01  -1.51660680e-01
C     8.653035427999999e+00   4.884737529479809e+00  -1.422851999999999e-01  1.08304725e+00  -4.82083560e-01   1.16205610e-01
C     9.884939538899999e+00   4.152939805668254e+00  -2.881296000000013e-01  4.50592490e-01   2.50146860e-01   3.04558440e-01
C     1.111791459370000e+01   4.854445133631693e+00  -4.551872999999986e-01  5.40402240e-01   1.14283594e+00  -2.56652780e-01
C     3.719278817299999e+00   6.315398440632080e+00  -3.301836000000016e-01 -3.71234420e-01   2.66948020e-01  -4.46556720e-01
C     4.921183040100000e+00   6.998845981573045e+00  -1.412775000000011e-01  2.26129286e+00   1.10699938e+00   7.36425260e-01
C     6.181370511699999e+00   6.287648705934596e+00  -1.137210000000266e-02  2.52424900e-01   6.85271610e-01  -2.06264420e-01
C     7.445987144599999e+00   7.015431387018454e+00   3.522240000000000e-02 -8.76815190e-01  -4.95172200e-01  -4.01028870e-01
C     8.686619820499999e+00   6.300327941035929e+00  -1.075476000000002e-01 -1.45184855e+00   1.38917240e-01  -3.35908800e-02
C     9.886445949700001e+00   7.015021429125309e+00  -2.610078000000016e-01  6.52497560e-01  -4.52975850e-01   1.55190010e-01
C     1.111435789450000e+01   6.313345662512689e+00  -4.389830999999980e-01  4.85812090e-01  -4.67838210e-01   4.41573330e-01
C     1.235366375950000e+01   7.048057494430752e+00  -3.643862999999996e-01 -5.17698780e-01  -4.37817210e-01   1.38489720e-01
