32
Lattice="9.86 0 0 4.93 8.53901048131456 0 0 0 30 " PBC="1 1 1" Properties=species:S:1:pos:R:3:force:R:3 Energy="-257.41987033"
C     9.804097004499999e+00   1.366257900919912e-01   1.503600000000000e-03  7.47960170e-01  -2.88886740e-01  -1.70323150e-01
C     1.192701145300000e+00   8.182213904400536e-01   6.562469999999999e-02 -1.51370250e-01   7.51531160e-01  -5.16233960e-01
C     2.436819281900000e+00   1.294508011460664e-01  -3.623430000000027e-02 -5.39388820e-01   6.52099000e-01   1.51092230e-01
C     3.663009177700000e+00   8.682374488651864e-01  -7.223760000000112e-02 -1.96835760e-01  -1.44111118e+00   6.95102240e-01
C     4.880196893500000e+00   1.228209426291848e-01  -4.743660000000105e-02  1.04084194e+00   9.93240910e-01  -1.27060020e-01
C     6.126554088200000e+00   8.541225499318511e-01   1.428000000000000e-04 -1.01469785e+00  -3.35064470e-01  -5.67785410e-01
C     7.361379174800000e+00   1.680154487867856e-01  -6.781140000000008e-02 -5.97151490e-01  -9.18674870e-01   6.99390710e-01
C     8.587910423800000e+00   8.562643045404449e-01  -1.007430000000298e-02 -1.34892830e-01  -1.35272800e-01   2.61784100e-02
C     1.102320189870000e+01   2.246703743848564e+00   8.308860000000000e-02  1.74602086e+00   1.08278400e-02  -6.63099900e-01
C     2.425468597800000e+00   2.992989948301954e+00   3.396810000000000e-02 -1.12578174e+00  -1.48895550e+00   4.01614130e-01
C     3.652201385200000e+00   2.267879038207183e+00   1.697580000000000e-02  4.08722320e-01   1.25605342e+00  -3.63807860e-01
C     4.892609647500000e+00   3.002366891880356e+00  -4.589700000000363e-03 -7.00757670e-01  -5.28865310e-01   9.91313900e-02
C     6.092344818200000e+00   2.261552485342551e+00   2.922000000000000e-04  1.68425371e+00   1.04313102e+00  -2.81922120e-01
C     7.372231583799999e+00   2.967221605596248e+00  -5.247269999999915e-02 -1.77161418e+00   1.10064731e+00   3.85584850e-01
C     8.578717403499999e+00   2.273236498772439e+00   8.548800000000000e-03 -9.10185900e-02  -1.09714430e+00  -5.19191930e-01
C     9.803028131200000e+00   2.928989723193935e+00  -2.462729999999880e-02  7.51992930e-01   2.21208019e+00   8.39644030e-01
C     1.227130135540000e+01   4.394937497424074e+00   4.413090000000000e-02  7.04272120e-01   6.10380880e-01  -1.32095480e-01
C     3.656875666099999e+00   5.114976320683829e+00   2.028900000000000e-02 -5.88960500e-01   1.08130171e+00  -5.98385700e-02
C     4.895798568700000e+00   4.434341871355396e+00  -2.355870000000237e-02 -1.42835209e+00  -1.63124239e+00   3.22691640e-01
C     6.094000410800000e+00   5.109740967968436e+00  -3.545340000000152e-02  2.57211821e+00   4.84999990e-01  -6.05387830e-01
C     7.367358722499999e+00   4.410407195760165e+00  -7.392779999999988e-02 -1.02420462e+00  -7.05043460e-01   3.02655350e-01
C     8.587274355199998e+00   5.123888058971282e+00  -5.425500000000127e-02  5.45783760e-01  -6.83234150e-01   1.06673500e-01
C     9.823320306999999e+00   4.372363086198307e+00  -1.102170000000058e-02 -4.99291680e-01   5.52277840e-01  -2.71943240e-01
C     1.104118747540000e+01   5.098869441385720e+00   1.802670000000000e-02  4.18936950e-01   7.36571180e-01  -9.35087400e-02
C     1.351018792390000e+01   6.564542344868508e+00   1.278210000000000e-02 -4.85992650e-01  -1.03060964e+00  -6.50372460e-01
C     4.876455368600000e+00   7.257070525724219e+00  -8.676780000000051e-02  4.91229340e-01  -4.33506970e-01   6.67841530e-01
C     6.119544170499999e+00   6.514271140810233e+00  -9.863339999999710e-02 -3.35869630e-01   1.76230069e+00   4.66631330e-01
C     7.350322466600000e+00   7.265086607202424e+00  -6.297629999999899e-02  7.22244070e-01  -1.57563528e+00  -8.84758500e-02
C     8.603557405699998e+00   6.539209150136863e+00  -3.418920000000014e-02 -1.94786900e-01   5.15137160e-01  -5.16768560e-01
C     9.856257439800000e+00   7.249247938223491e+00  -6.856170000000006e-02 -1.64709423e+00  -2.46371500e-02   3.79100330e-01
C     1.108215350760000e+01   6.558729755044667e+00  -2.919719999999870e-02 -1.57951603e+00  -1.71611690e+00   1.35850330e-01
C     1.225876037210000e+01   7.275634419897844e+00  -2.321159999999978e-02  2.27320114e+00   2.71420830e-01  -5.13669000e-02
