32
Lattice="9.86 0 0 4.93 8.53901048131456 0 0 0 30 " PBC="1 1 1" Properties=species:S:1:pos:R:3:force:R:3 Energy="-252.88397025"
C     1.050586727080000e+01   1.162603354872960e+00   3.777934800000000e+00  3.03875451e+00  -2.86657968e+00   3.63591020e-01
C     1.859794284600000e+00   1.869420630475798e+00   3.965040600000000e+00  2.66897820e-01   1.17448896e+00  -3.16433500e-01
C     3.090441492000000e+00   1.175178243266227e+00   3.966737700000000e+00  1.24895301e+00   1.07303259e+00  -1.29138088e+00
C     4.413979660800000e+00   1.729401523009160e+00   3.773412000000000e+00 -2.28114090e-01   2.29775660e+00   9.20333200e-01
C     5.656469073300000e+00   1.025025977453077e+00   3.806678700000000e+00  2.31909560e-01   1.78342260e+00  -1.47653013e+00
C     6.949355114999999e+00   1.750970038800382e+00   3.739975500000000e+00 -4.69808245e+00   4.17754502e+00   5.99741660e-01
C     8.130747875599999e+00   1.114084526545390e+00   3.912500400000000e+00  7.84624150e-01  -1.66129723e+00  -2.22275730e-01
C     9.374983691299999e+00   1.811902624393462e+00   4.033778399999999e+00 -4.75570034e+00   3.26799951e+00  -1.61417398e+00
C     1.172772443610000e+01   3.314353302183924e+00   4.079558700000001e+00  1.91672920e+00  -2.30990565e+00  -3.54721900e-01
C     3.208847076800000e+00   3.899933621601618e+00   4.002005100000001e+00 -3.00948388e+00   7.48829410e-01  -1.57734450e-01
C     4.448279593500000e+00   3.174220284317482e+00   3.723820800000000e+00 -7.05153166e+00  -2.54909964e+00   1.58766684e+00
C     5.491946838800001e+00   3.918055963543322e+00   3.727109700000000e+00  9.13569275e+00   4.31191347e+00  -2.37997700e-01
C     6.808004127000000e+00   3.290322904281213e+00   3.704112000000000e+00  1.19698872e+00  -2.42437316e+00   5.13081000e-02
C     8.072836102299998e+00   4.028672781614281e+00   3.750493800000000e+00 -2.32324608e+00  -1.08541749e+00   1.04480543e+00
C     9.259233700299999e+00   3.280842638676002e+00   3.929767200000000e+00  2.54068951e+00   1.12907600e-01   9.30216000e-01
C     1.051723097010000e+01   4.018957095490137e+00   4.059165000000000e+00 -5.56154380e-01   1.42823913e+00  -7.92406400e-01
C     3.096427695200000e+00   5.320334143151228e+00   4.040323800000000e+00  3.04030355e+00   9.29738800e-01  -6.55829870e-01
C     4.304353420000000e+00   6.076553522325686e+00   3.853358100000000e+00  2.40047726e+00  -7.47560580e-01  -5.46690370e-01
C     5.593534369500000e+00   5.429071183455120e+00   3.779044200000000e+00 -6.10537092e+00  -5.15120113e+00  -4.49842400e-02
C     6.745019580899999e+00   6.039966851072554e+00   3.746152800000000e+00  4.32558622e+00   6.30377938e+00  -1.08480726e+00
C     7.995432538699999e+00   5.456924240179412e+00   3.835590300000000e+00  3.34351700e+00  -2.10785363e+00  -3.16386390e-01
C     9.276439548199999e+00   6.171331415247399e+00   3.899727299999999e+00 -8.28313960e-01  -5.97761050e-01  -3.64353590e-01
C     1.059546952780000e+01   5.496984410115599e+00   3.956457900000000e+00 -4.67697242e+00  -2.84679783e+00   5.65994900e-01
C     1.180304980750000e+01   6.131290031134268e+00   4.016025300000000e+00 -2.15646600e-01  -1.60349524e+00  -4.59807080e-01
C     4.411986215300000e+00   7.446006977137529e+00   3.678971700000000e+00 -4.27253915e+00   3.08473293e+00   1.13119977e+00
C     5.567699444000000e+00   8.231568872634307e+00   3.535482300000000e+00  1.01476264e+00   7.45653150e-01   9.35446310e-01
C     6.807508908500000e+00   7.570144549792625e+00   3.545501100000000e+00 -6.33661430e-01  -9.22179170e-01   2.22945986e+00
C     7.970882814900000e+00   8.367760880993915e+00   3.858836400000000e+00  1.18789089e+00  -5.69750162e+00  -1.26339292e+00
C     9.213194895299999e+00   7.570899056758638e+00   3.848598000000000e+00  1.37535194e+00   7.96682680e-01  -2.24941330e-01
C     1.052123462310000e+01   8.182451886622614e+00   3.729309000000000e+00 -1.50817870e-01  -3.21098760e-01   1.80763166e+00
C     1.178638226630000e+01   7.503927085223369e+00   3.853350900000000e+00 -7.11585760e-01   1.33116287e+00   4.01021800e-02
C     1.297645542580000e+01   8.227946453608482e+00   3.871447500000000e+00  3.16809225e+00  -6.75762840e-01  -7.82649210e-01
