2
Lattice="2.455 0 0 1.2275 2.1260923662908 0 0 0 30 " PBC="1 1 1" Properties=species:S:1:pos:R:3:force:R:3 Energy="-16.12807773"
C     0.000000000000000e+00   0.000000000000000e+00   3.000000000000000e+00  0.00000000e+00  -0.00000000e+00  -0.00000000e+00
C     1.227500000000000e+00   7.086974554302655e-01   3.000000000000000e+00 -0.00000000e+00   0.00000000e+00   0.00000000e+00
