32
Lattice="9.86 0 0 4.93 8.53901048131456 0 0 0 30 " PBC="1 1 1" Properties=species:S:1:pos:R:3:force:R:3 Energy="-256.60433134"
C     1.170847490600000e+00   2.828308129206560e-01   3.545301600000000e+00  1.48361780e+00   1.21397450e+00   1.03944560e-01
C     2.424361911400000e+00   1.009195591314310e+00   3.484043100000000e+00  3.40127200e-02  -2.33097366e+00   2.05003670e-01
C     3.657382519400000e+00   2.575114513859888e-01   3.514217700000000e+00 -1.19859690e-01   4.52185710e-01  -7.73830430e-01
C     4.881362887799999e+00   9.344876178445808e-01   3.502629600000000e+00  5.78961660e-01   2.18701536e+00  -3.63331000e-02
C     6.144124558900001e+00   2.470063337429688e-01   3.446781900000000e+00 -8.29979210e-01   3.11103590e+00   2.18891820e-01
C     7.369181392799999e+00   9.844720819309376e-01   3.460087500000000e+00  1.50833853e+00  -8.97696200e-01   9.65095550e-01
C     8.641708753000000e+00   2.873071329944816e-01   3.561967200000000e+00 -1.53396247e+00   4.01558520e-01  -5.00627860e-01
C     9.835827519800000e+00   1.048451130292966e+00   3.578419200000000e+00 -6.94482800e-02  -1.39633778e+00  -2.32378120e-01
C     2.458931465800000e+00   2.383660505986760e+00   3.376986600000000e+00 -3.90866140e-01   3.10953610e+00  -6.54979800e-02
C     3.695644249400000e+00   3.141998072100888e+00   3.267579000000000e+00 -7.54040860e-01  -8.41295700e-01   1.25738008e+00
C     4.869362577600000e+00   2.394711693349976e+00   3.486063000000000e+00  2.36471736e+00  -2.78833410e-01  -6.32638880e-01
C     6.181472957100000e+00   3.084740505838191e+00   3.516642600000000e+00 -2.00046762e+00  -4.81989670e-01  -7.41238900e-02
C     7.415406453199999e+00   2.395644494854811e+00   3.553380600000000e+00 -1.32080960e+00   3.76697600e-01  -9.86967290e-01
C     8.592136321200000e+00   3.172824583054527e+00   3.438321600000000e+00  1.29956414e+00  -1.53943773e+00   6.40484140e-01
C     9.828532894600000e+00   2.453596026499218e+00   3.494353500000000e+00  1.23294609e+00   1.13296526e+00  -3.74653000e-03
C     1.110304117810000e+01   3.163549253700836e+00   3.443713500000000e+00 -1.05582747e+00  -1.19250376e+00  -8.21235590e-01
C     3.689499053700001e+00   4.585220550790080e+00   3.277650300000000e+00 -2.12617938e+00  -1.24971475e+00  -3.97757070e-01
C     4.880573101800000e+00   5.234094406808468e+00   3.473122800000000e+00  2.94491670e+00   7.19273050e-01  -2.86010500e-02
C     6.168571738700001e+00   4.482880680967489e+00   3.490155600000000e+00 -1.41652018e+00   1.80806794e+00   4.23713470e-01
C     7.370595415400000e+00   5.234357920671879e+00   3.519282600000000e+00 -1.62586310e-01   2.39350234e+00  -4.78368600e-01
C     8.608277584900000e+00   4.577927894279741e+00   3.397890000000000e+00  1.46189390e-01  -5.05801100e-02   4.93217430e-01
C     9.856508524699999e+00   5.272469488416530e+00   3.344119500000000e+00 -9.08634280e-01   1.02842327e+00   1.13946350e-01
C     1.107707250170000e+01   4.586455120925278e+00   3.304146000000000e+00  2.70100090e-01  -9.80339630e-01  -2.92732980e-01
C     1.227946479450000e+01   5.298769469914721e+00   3.160693500000000e+00  1.93010277e+00   1.22979894e+00   1.50987681e+00
C     4.924888723900000e+00   6.664284306142663e+00   3.580681200000000e+00 -4.59418500e-02  -3.90791750e-01  -6.25851300e-01
C     6.148250919599999e+00   7.399975477172679e+00   3.552543000000000e+00 -9.98688970e-01   5.28638330e-01   5.48512220e-01
C     7.367272644700000e+00   6.735740112080980e+00   3.533355900000000e+00  8.34391090e-01  -3.43624683e+00  -5.90510330e-01
C     8.620528191200000e+00   7.386279075142968e+00   3.416627100000000e+00 -1.38034162e+00   5.86366290e-01   9.52696950e-01
C     9.847215030999999e+00   6.712044443389085e+00   3.378549300000000e+00 -4.06079400e-01  -1.68003455e+00  -4.58781560e-01
C     1.104387195900000e+01   7.431079847527337e+00   3.356844300000000e+00  2.02218163e+00  -1.75290827e+00   5.63925500e-02
C     1.230765522470000e+01   6.755256362093439e+00   3.317120700000000e+00  2.01598550e-01  -2.23981152e+00  -9.05760100e-02
C     1.358129262370000e+01   7.398428123083598e+00   3.518772000000000e+00 -1.33140520e+00   4.60456190e-01  -3.98597020e-01
