32
Lattice="9.792 0 0 4.896 8.48012075385722 0 0 0 30 " PBC="1 1 1" Properties=species:S:1:pos:R:3:force:R:3 Energy="-257.82880607"
C     9.886338738765838e-03  -5.627409363568240e-03   2.999829376638791e+00 -4.67143840e-01   6.76667000e-01  -1.41909500e-02
C     1.232319544141748e+00   7.148233484177985e-01   2.996584590182799e+00 -7.37741220e-01  -2.90816720e-01   6.47713600e-02
C     2.434986289077246e+00   1.006357098040031e-02   3.012676153600283e+00  1.37863996e+00  -5.89006490e-01  -2.39228450e-01
C     3.684413848211887e+00   7.182422311918876e-01   3.002618529256607e+00 -9.28321400e-01  -5.55871730e-01  -5.25782600e-02
C     4.892539194473135e+00   3.332527368835376e-03   2.991658349744047e+00  5.29684240e-01   2.48891420e-01   2.85157070e-01
C     6.131611093064824e+00   7.123657100650711e-01   3.014010977330317e+00 -5.36777820e-01  -4.62439320e-01  -3.08304780e-01
C     7.346900930597051e+00  -1.994783101485475e-03   2.992366320777037e+00 -3.71870900e-02   5.94090400e-02   2.00811960e-01
C     8.559470157161465e+00   7.020434817331969e-01   2.994852378434931e+00  9.19576660e-01   3.55680360e-01   5.57838600e-02
C     1.224422872297515e+00   2.122168821358453e+00   2.990640790595209e+00 -1.89222420e-01  -2.16833410e-01   1.41098670e-01
C     2.441092738665742e+00   2.815333909808917e+00   3.001927479727633e+00  2.22372040e-01   5.24673910e-01  -1.09252990e-01
C     3.676123557479869e+00   2.126062429984354e+00   2.992376812169027e+00 -5.80270680e-01  -4.45783030e-01   1.39254300e-01
C     4.881853810142331e+00   2.813362959319791e+00   3.001602058533340e+00  1.55275106e+00   9.74294340e-01  -1.31448910e-01
C     6.133225581946596e+00   2.117496276598898e+00   3.000272644221933e+00 -9.16150610e-01   9.39266800e-02   1.54122500e-01
C     7.345980406303276e+00   2.826691795754586e+00   3.009409792358776e+00  1.10814660e-01   4.23281410e-01  -1.23941870e-01
C     8.569007393040778e+00   2.128980997619910e+00   3.007556050308057e+00 -1.17682370e-01  -8.43816650e-01  -3.32666000e-02
C     9.790653703084137e+00   2.820199234522432e+00   3.005788334875898e+00  2.05164010e-01   6.16353860e-01  -1.30569590e-01
C     2.433320133669026e+00   4.227162951182389e+00   3.002625306339461e+00  8.52290690e-01   3.35190980e-01  -1.98101390e-01
C     3.664558939506180e+00   4.939015810875302e+00   2.985643358145566e+00  3.24278400e-01   2.13976160e-01   1.84510680e-01
C     4.908751603226274e+00   4.240155896995950e+00   2.991154206622746e+00 -1.17434119e+00  -4.44178060e-01   1.12688760e-01
C     6.118798389875706e+00   4.948319460337070e+00   3.008472144685724e+00  2.96307450e-01  -2.94399700e-01  -2.65969050e-01
C     7.343236721360635e+00   4.241123535347901e+00   2.995106897767296e+00  3.27881540e-01   2.38674990e-01   2.42117460e-01
C     8.575862830813566e+00   4.957526399744537e+00   3.009098749952993e+00 -2.07922340e-01  -1.07397061e+00  -1.55354220e-01
C     9.800155294481970e+00   4.240750521899362e+00   2.994915104471709e+00 -4.41377490e-01  -1.82072660e-01   9.62706600e-02
C     1.101805861660535e+01   4.945495614162060e+00   2.986608019354757e+00 -3.30272870e-01   2.47463650e-01   2.39752250e-01
C     3.667789234440609e+00   6.365660451903348e+00   3.001282155864926e+00  4.58105930e-01  -5.52293240e-01  -3.74255900e-02
C     4.905264981094890e+00   7.072104020713287e+00   3.007770454057314e+00 -5.33332270e-01  -4.40288970e-01  -1.63548370e-01
C     6.114976601759593e+00   6.353389288198502e+00   2.989321629498483e+00  5.63084760e-01   4.54542570e-01   1.63556280e-01
C     7.345308259496364e+00   7.061540904083867e+00   2.989380759951394e+00 -1.31396940e-01   3.21387620e-01   1.86772220e-01
C     8.578600341547659e+00   6.351968450718001e+00   3.005556164204944e+00 -7.47189680e-01   8.46956840e-01  -3.71936200e-02
C     9.785057893530386e+00   7.071048479180112e+00   3.011664248322179e+00  3.82075850e-01  -1.81557300e-02  -1.12265500e-01
C     1.100378388885947e+01   6.363922717617621e+00   3.010191202275792e+00  8.60229380e-01  -2.18770300e-02  -1.24320630e-01
C     1.224865215608160e+01   7.068771219349521e+00   3.004283499778607e+00 -9.06926390e-01  -1.99567480e-01  -2.97072400e-02
