2
Lattice="2.482 0 0 1.241 2.14947505219298 0 0 0 30 " PBC="1 1 1" Properties=species:S:1:pos:R:3:force:R:3 Energy="-16.1244175"
C     0.000000000000000e+00   0.000000000000000e+00   3.000000000000000e+00 -0.00000000e+00  -0.00000000e+00   0.00000000e+00
C     1.241000000000000e+00   7.164916840643256e-01   3.000000000000000e+00  0.00000000e+00   0.00000000e+00   0.00000000e+00
