2
Lattice="2.412 0 0 1.206 2.08885327392807 0 0 0 30 " PBC="1 1 1" Properties=species:S:1:pos:R:3:force:R:3 Energy="-16.06287112"
C     0.000000000000000e+00   0.000000000000000e+00   3.000000000000000e+00  0.00000000e+00  -0.00000000e+00   0.00000000e+00
C     1.206000000000000e+00   6.962844246426886e-01   3.000000000000000e+00 -0.00000000e+00   0.00000000e+00  -0.00000000e+00
