32
Lattice="9.86 0 0 4.93 8.53901048131456 0 0 0 30 " PBC="1 1 1" Properties=species:S:1:pos:R:3:force:R:3 Energy="-246.97494635"
C     9.589380369399999e+00   9.774077585608335e-01   3.819653400000000e+00  2.22592069e+00  -3.08242497e+00   2.08807708e+00
C     1.132464088200000e+00   1.496196023394072e+00   4.149721800000000e+00 -7.00206677e+00   4.39834974e+00   2.78455240e-01
C     2.225568880500000e+00   7.094847770866856e-01   3.987507000000000e+00  2.70387717e+00   8.82670214e+00   2.37410840e+00
C     3.410965885700000e+00   1.569581218750345e+00   4.236857100000000e+00  5.35993100e-02   8.38218130e-01  -3.90828680e-01
C     4.617654427000000e+00   8.537575926239359e-01   3.972883800000000e+00 -1.96932460e-01   2.94016351e+00   3.05605200e+00
C     5.820813236199999e+00   1.593482165254179e+00   4.290195000000001e+00  2.49015764e+00  -1.69824370e+00  -7.40723800e-01
C     7.096215230099999e+00   7.377502680171624e-01   4.314697500000000e+00 -2.42037372e+00   1.68710875e+00   1.92187480e-01
C     8.234621052900000e+00   1.464826516764010e+00   4.176568200000000e+00  6.66108512e+00   3.59699245e+00   9.69205620e-01
C     1.091434917490000e+01   2.941060553798567e+00   4.596541200000000e+00 -1.79519440e-01  -7.71740600e-02  -1.80266632e+00
C     2.203291936000000e+00   3.796267985011903e+00   4.659256800000001e+00  6.66662690e-01  -2.10316557e+00  -2.34681200e-02
C     3.413528844800000e+00   3.039293244970382e+00   4.602675000000000e+00  2.28616108e+00  -7.26587890e-01  -3.39072305e+00
C     4.694552961399999e+00   3.771949907846120e+00   4.157181000000000e+00 -3.18078100e-01  -3.16828999e+00   2.51815321e+00
C     5.932204367700000e+00   3.082833744798007e+00   4.274512799999999e+00 -2.25471433e+00  -5.26746497e+00  -9.59473090e-01
C     7.155789399400000e+00   3.691099482577707e+00   4.203440100000000e+00  2.29783248e+00  -2.39847026e+00   2.22071214e+00
C     8.457450446699999e+00   2.869970046728584e+00   4.548364800000000e+00 -4.71980506e+00   3.06554051e+00  -3.52795911e+00
C     9.646561861799999e+00   3.704806985321041e+00   4.461433200000000e+00  1.47370018e+00  -9.89189528e+00   1.63264018e+00
C     1.208077958270000e+01   5.203735919019238e+00   4.522099200000000e+00  2.20508307e+00   4.39929550e-01  -1.08744947e+00
C     3.638717588700000e+00   5.809200946751603e+00   4.212921600000000e+00 -4.44335883e+00   3.04513836e+00  -2.77125770e-01
C     4.831578613900000e+00   5.122014514681865e+00   4.005954300000000e+00 -2.01035114e+00   1.66889704e+00  -1.88387880e+00
C     6.031133198699999e+00   5.801093668641471e+00   3.479389800000000e+00 -2.46475066e+00  -8.49757730e-01   4.12006565e+00
C     7.116257454900000e+00   5.039614942132170e+00   3.959033700000000e+00  3.58040240e+00   1.58155674e+00  -1.82431686e+00
C     8.372634381599999e+00   5.665696471377342e+00   3.974077500000000e+00  3.08133820e+00   2.01799344e+00   1.37726908e+00
C     9.711915470099999e+00   4.980393659629388e+00   4.349278200000000e+00 -4.53219648e+00   8.78703762e+00  -2.25374192e+00
C     1.079901394480000e+01   5.904856052219924e+00   4.303670400000000e+00  2.88171799e+00  -3.03408738e+00   1.28941515e+00
C     1.339215179330000e+01   7.266803033699008e+00   3.984987000000000e+00  1.68746167e+00  -7.36585800e-01   1.57546745e+00
C     4.816832934599999e+00   8.106594818512590e+00   3.724766400000000e+00 -3.20758982e+00  -4.57580699e+00   2.26151320e-01
C     6.043947649100000e+00   7.196421093718657e+00   3.662307900000000e+00 -1.94767127e+00   4.13464340e+00  -1.05142542e+00
C     7.218901533899999e+00   7.987617113720244e+00   3.807767700000000e+00  3.65990930e-01  -1.04214974e+01  -1.67020183e+00
C     8.435791526999999e+00   7.119100268432152e+00   3.877035300000000e+00 -2.48225089e+00   1.72303065e+00   2.13037580e-01
C     9.474078663299998e+00   8.001605037567742e+00   4.063605900000000e+00  6.62721148e+00  -2.88017919e+00  -3.68365220e-01
C     1.084002301590000e+01   7.292740107251800e+00   4.229099100000000e+00 -2.23883009e+00  -4.67175000e-01   4.85484840e-01
C     1.213660330380000e+01   7.848976971056021e+00   4.416434400000000e+00 -8.69713040e-01   2.62750413e+00  -3.36413496e+00
