32
Lattice="9.86 0 0 4.93 8.53901048131456 0 0 0 30 " PBC="1 1 1" Properties=species:S:1:pos:R:3:force:R:3 Energy="-247.70934708"
C     4.900593733199999e+00   8.279157290379976e+00  -1.265438400000001e+00  4.43768422e+00   9.72237200e-01   6.47830530e-01
C     1.305634627300000e+00   5.340279222269991e-01  -1.394612400000000e+00 -1.07296276e+00  -1.63282271e+00   3.37398714e+00
C     7.487917534099999e+00   8.312561130866792e+00  -1.211852400000001e+00 -2.91844199e+00   6.06909000e-02  -3.56653170e-01
C     3.724349075799999e+00   4.666499207434064e-01  -7.654964999999976e-01  1.87656140e+00  -2.61719675e+00  -2.87522434e+00
C     9.947848409500001e+00   8.327342328787882e+00  -9.581274000000022e-01 -1.44100240e-01  -1.37686457e+00   1.82243550e+00
C     6.223723106400000e+00   5.149525413256224e-01  -1.016484300000002e+00  1.25850670e-01   5.62455550e-01   5.00940890e-01
C     1.249035224930000e+01   8.309544469244418e+00  -7.891200000000005e-01 -4.99798387e+00   2.70253542e+00  -9.38274160e-01
C     8.711825677999999e+00   5.226209142970816e-01  -1.083907500000002e+00 -5.88244070e-01  -1.24681691e+00  -5.01269020e-01
C     1.179111945400000e+00   1.850559664127575e+00  -8.031758999999994e-01  4.59950995e+00   1.28175203e+00  -1.82707444e+00
C     2.532969811400000e+00   2.644065486464001e+00  -6.415928999999991e-01 -3.18826100e+00  -1.78721751e+00   2.52151031e+00
C     3.739982500200000e+00   1.813108076502923e+00  -6.117704999999987e-01 -6.43628590e-01   7.44178500e+00  -5.70403560e-01
C     4.943031715499999e+00   2.786189033063436e+00  -7.692281999999970e-01  1.98229351e+00  -8.51776967e+00  -1.99460303e+00
C     6.139753078600000e+00   2.014941593174910e+00  -1.201371900000002e+00  1.41406859e+00  -2.27492713e+00   2.21077026e+00
C     7.466720506100000e+00   2.578558723736996e+00  -1.204727699999999e+00 -2.12448177e+00   4.93717033e+00   8.18560400e-02
C     8.704658049599999e+00   1.962684386059197e+00  -1.184085899999999e+00 -2.70041656e+00  -2.56023013e+00   2.75904900e-01
C     9.836773093800000e+00   2.607426641856837e+00  -8.256087000000001e-01  3.93164190e+00   1.57083804e+00   3.25197610e-01
C     2.521634903299999e+00   4.108228522113716e+00  -1.180323000000030e-01  4.03043050e-01  -4.06365925e+00  -1.65236646e+00
C     3.783096089700000e+00   4.627458766129399e+00  -1.656222000000014e-01  2.53431284e+00   7.58642318e+00  -3.31811023e+00
C     5.045466663899999e+00   4.117600427675935e+00  -7.812792000000002e-01 -7.37756142e+00  -1.94025353e+00   3.79105826e+00
C     6.187147880099999e+00   4.731309528466320e+00  -9.405906000000002e-01  5.53924552e+00   3.33439726e+00  -1.78736301e+00
C     7.467346714700000e+00   4.111786557000523e+00  -1.103541000000000e+00  2.45981320e-01  -3.51993939e+00   3.02168480e-01
C     8.720093879600000e+00   4.799012353908573e+00  -9.480068999999993e-01  1.21303212e+00  -2.07646901e+00   1.41247600e-01
C     9.999517767499999e+00   4.000171784774766e+00  -6.396932999999976e-01 -2.05364411e+00   4.27794679e+00   1.06097666e+00
C     1.121353228880000e+01   4.893422727819225e+00  -8.389080000000249e-02 -3.62938360e+00  -3.71106024e+00  -2.05336397e+00
C     3.733977957400000e+00   6.192298272360200e+00  -5.032823999999998e-01  6.71936500e-02  -6.50729830e-01   2.06026181e+00
C     4.983907380800000e+00   6.906186702541526e+00  -8.891313000000025e-01 -2.00203815e+00  -1.56186833e+00  -9.52357860e-01
C     6.200596427100001e+00   6.125588021496143e+00  -1.102751100000003e+00 -3.50856820e-01   2.69314497e+00   1.28532870e-01
C     7.392326165199999e+00   6.854490508414348e+00  -1.368008100000001e+00  3.74439435e+00   9.06515300e-01   1.88935508e+00
C     8.763534081600000e+00   6.190884724565341e+00  -1.103517600000000e+00 -3.07574727e+00  -8.51960260e-01   5.43162170e-01
C     9.947414372299999e+00   6.804704405541442e+00  -7.293546000000006e-01 -1.83071920e+00   5.85328111e+00  -9.53455770e-01
C     1.106186690270000e+01   6.321013523143519e+00  -1.158456000000001e-01  2.59545647e+00  -2.85870119e+00  -1.68978664e+00
C     1.231505549980000e+01   6.980539453175289e+00  -3.797765999999996e-01  3.98820185e+00  -9.32686680e-01  -2.06890460e-01
