32
Lattice="9.86 0 0 4.93 8.53901048131456 0 0 0 30 " PBC="1 1 1" Properties=species:S:1:pos:R:3:force:R:3 Energy="-254.74076987"
C     1.152965690400000e+00   1.023439173135579e+00   3.382550700000000e+00 -1.01300695e+00   1.26927230e+00  -6.34395740e-01
C     2.383864820800000e+00   1.667166652927776e+00   3.250527000000000e+00  2.13939184e+00   2.80765380e+00   1.73165870e-01
C     3.654133895900000e+00   9.707539054245032e-01   3.539647500000000e+00 -1.77166821e+00  -3.58893010e-01  -1.22345166e+00
C     4.879533808500000e+00   1.619455871161929e+00   3.413994900000000e+00 -1.14048366e+00   5.12260846e+00   3.41392140e-01
C     6.105249635500000e+00   1.026938886580807e+00   3.633756000000000e+00  7.82435940e-01  -1.43142718e+00  -1.18765704e+00
C     7.365179711800000e+00   1.695295178130154e+00   3.570233100000000e+00 -1.23584442e+00  -6.38153600e-02   1.77163600e-01
C     8.552613053500000e+00   1.002201544000457e+00   3.543051000000000e+00  2.45752549e+00  -2.28063850e-01  -1.05041434e+00
C     9.747588900800000e+00   1.740550567432477e+00   3.319340400000000e+00  1.61065123e+00   1.36416312e+00   2.00085720e-01
C     2.417694086400000e+00   3.157107680365038e+00   2.976129300000000e+00  3.51295950e-01  -2.75036690e+00   1.01365653e+00
C     3.650707693799999e+00   3.849352622243128e+00   3.086044800000000e+00  1.34394470e-01  -1.52080025e+00  -4.55261500e-02
C     4.858515443700000e+00   3.149945414544729e+00   3.261408000000000e+00  1.87966529e+00  -3.27619475e+00   7.26231600e-01
C     6.155106577600000e+00   3.759524452136253e+00   3.462983100000000e+00 -1.29909120e+00   2.11282094e+00  -1.03140900e-01
C     7.409380514200000e+00   3.078474494557862e+00   3.520387200000000e+00 -1.59469546e+00   1.24159658e+00   3.39939780e-01
C     8.590477524100001e+00   3.858368194898017e+00   3.492575400000000e+00 -1.89552100e-02   6.05708850e-01  -8.38835440e-01
C     9.787277224899999e+00   3.218965723913940e+00   3.195459900000000e+00  1.71429281e+00  -3.21875744e+00   4.65362310e-01
C     1.108434144160000e+01   3.892771441171413e+00   2.984838600000000e+00 -3.09294491e+00  -1.87843615e+00   4.65262130e-01
C     3.634829001900000e+00   5.222441987717355e+00   3.174540000000000e+00 -2.73589040e-01   3.81745132e+00   4.20411000e-03
C     4.820135689500000e+00   5.965120887193468e+00   3.439612200000000e+00  3.26348735e+00  -1.64083565e+00   1.52678090e-01
C     6.141194659900000e+00   5.199384951619258e+00   3.581445900000000e+00 -1.22058642e+00   2.24597392e+00   1.43049240e-01
C     7.346724946999999e+00   6.015209612597785e+00   3.801842699999999e+00 -8.31354680e-01  -1.18778472e+00  -1.68862665e+00
C     8.587258184800000e+00   5.275450200804784e+00   3.569167200000000e+00 -1.52366845e+00   1.32723260e+00   1.05066973e+00
C     9.794253421400001e+00   5.999801480527255e+00   3.465286800000000e+00  8.12164570e-01  -1.96844031e+00  -1.28306193e+00
C     1.098830859120000e+01   5.259814247934647e+00   3.064914300000000e+00  1.93450675e+00   3.76469269e+00   1.13022894e+00
C     1.227031535540000e+01   6.013663027019648e+00   3.111497100000000e+00 -9.74782900e-01  -1.52956483e+00   8.13523830e-01
C     4.896630851299999e+00   7.388817637568566e+00   3.504203100000000e+00  9.57528330e-01   7.66390350e-01  -3.50240890e-01
C     6.123326959500000e+00   8.196237265141525e+00   3.546129600000000e+00 -1.16874344e+00  -3.21944140e+00   7.75968490e-01
C     7.326162409999999e+00   7.498064286017905e+00   3.748902300000000e+00 -9.32844250e-01  -3.85657569e+00  -5.32087400e-02
C     8.559347679999998e+00   8.071425025268404e+00   3.708737400000000e+00  9.00793800e-01   3.05985519e+00  -2.86927220e-01
C     9.773236831399998e+00   7.389797830581566e+00   3.580931700000000e+00  1.94637092e+00   1.12604206e+00   6.76591700e-02
C     1.101128584220000e+01   8.166303849293991e+00   3.509440200000000e+00  1.28419399e+00  -2.99202153e+00   7.21252390e-01
C     1.228317491530000e+01   7.389101474276922e+00   3.426888600000000e+00  2.07813430e-01   2.01435960e+00  -9.17217490e-01
C     1.359468590540000e+01   8.136585018779817e+00   3.440083800000000e+00 -4.28425298e+00  -1.52440278e+00   9.01210540e-01
