32
Lattice="9.86 0 0 4.93 8.53901048131456 0 0 0 30 " PBC="1 1 1" Properties=species:S:1:pos:R:3:force:R:3 Energy="-256.95930087"
C     9.860329964900000e+00   3.188219735829128e-01  -1.115907000000007e-01  1.20998787e+00  -9.04849100e-01  -1.37277000e-03
C     1.244109164000000e+00   1.031957689990427e+00  -2.191431000000001e-01  6.88006600e-02  -1.23705336e+00   3.90270950e-01
C     2.462705775200000e+00   3.069702539871968e-01  -7.719360000000108e-02  1.50420962e+00   5.70679790e-01  -3.48898180e-01
C     3.744100775700000e+00   1.036863095340873e+00  -1.869815999999993e-01 -1.24934231e+00  -1.32002941e+00   7.99158470e-01
C     4.975962044899999e+00   2.839600970566360e-01  -6.253260000000083e-02 -9.75537530e-01   1.45568506e+00  -2.60962630e-01
C     6.192804167699999e+00   1.006185333949796e+00  -6.313439999999915e-02 -1.86164000e-02   9.45928900e-01  -4.96975850e-01
C     7.431178459900000e+00   3.318262034231144e-01  -1.142813999999994e-01 -6.31579150e-01  -1.39690659e+00   3.62580030e-01
C     8.653336207299999e+00   1.005160140351567e+00  -1.064979000000008e-01 -3.31355410e-01   1.50088095e+00  -1.30868500e-01
C     1.110117857480000e+01   2.421095357150870e+00  -4.045466999999974e-01  5.85859570e-01   1.11087298e+00   1.73203740e-01
C     2.484116173600000e+00   3.165718930873699e+00  -4.696392000000031e-01  3.97037380e-01  -6.14802100e-02   5.53044400e-02
C     3.724969467000000e+00   2.453985063816686e+00  -3.159582000000007e-01  1.79354510e-01  -3.63370330e-01  -4.44090900e-02
C     4.984896388099999e+00   3.135587922323657e+00  -2.229248999999989e-01 -1.46448255e+00   1.23190059e+00  -4.91977180e-01
C     6.182688103500000e+00   2.447408744895514e+00  -1.153893000000004e-01  1.32810910e+00  -9.29427180e-01   6.15920870e-01
C     7.443816514900000e+00   3.166254412220900e+00  -3.380879999999920e-02 -1.50189519e+00  -1.32203599e+00  -4.02345260e-01
C     8.651838719799999e+00   2.442551499564176e+00  -1.239996000000012e-01 -1.24492650e-01  -8.98710740e-01  -1.21855750e-01
C     9.856946407299999e+00   3.106824094741568e+00  -3.204533999999981e-01  1.16970828e+00   2.12472291e+00   4.16868280e-01
C     1.238409255760000e+01   4.610423184051485e+00  -5.476574999999997e-01 -1.19334072e+00  -9.75515010e-01   5.32121450e-01
C     3.766663906700000e+00   5.310193641255704e+00  -4.135376999999991e-01 -1.06275054e+00  -3.06309530e-01   3.95363610e-01
C     4.976334457100000e+00   4.576167150318764e+00  -2.627400000000009e-01 -9.89365140e-01  -4.95699920e-01   2.37410490e-01
C     6.144911041799999e+00   5.277575218952837e+00  -2.653979999999834e-02  2.86447271e+00   2.18805180e-01  -2.17833180e-01
C     7.411767768100001e+00   4.550755055130284e+00   1.666560000000000e-02 -6.97147000e-03   1.43383316e+00  -1.45577100e-01
C     8.659222232899999e+00   5.256420247439161e+00  -3.322319999999834e-02 -1.16190580e-01   1.09368480e+00  -3.86192000e-02
C     9.885285131900000e+00   4.569769211326520e+00  -2.543937000000014e-01 -2.05913170e-01  -1.14502360e+00  -5.84698270e-01
C     1.109924271170000e+01   5.280220348229226e+00  -4.596336000000001e-01  1.20673269e+00   1.21916466e+00   6.33539730e-01
C     1.360023333860000e+01   6.725858171422791e+00  -2.211476999999995e-01 -1.02118513e+00  -3.81852060e-01  -3.41125640e-01
C     4.935518395500000e+00   7.418676849415031e+00  -6.234959999999745e-02  1.96697107e+00   6.87075020e-01  -3.39989920e-01
C     6.211602602799999e+00   6.699780716537709e+00  -1.205429999999907e-02 -2.28006408e+00   2.79524480e-01   4.88515840e-01
C     7.408339692600000e+00   7.422077681118901e+00   9.795329999999999e-02  1.26997973e+00   2.57627900e-02  -9.46504190e-01
C     8.671908552600000e+00   6.698641100199048e+00   2.622030000000000e-02 -1.06239412e+00  -1.74677310e-01   1.01006510e-01
C     9.885777047300000e+00   7.413575644554279e+00  -6.337770000000020e-02  5.31575520e-01  -4.24464910e-01  -6.19982600e-01
C     1.112052744440000e+01   6.731161580051709e+00  -3.153824999999983e-01 -3.15015650e-01  -9.60755470e-01   7.73607070e-01
C     1.235086534360000e+01   7.447213795488667e+00  -2.096876999999999e-01  2.67693070e-01  -6.00360540e-01  -4.40876160e-01
