32
Lattice="9.86 0 0 4.93 8.53901048131456 0 0 0 30 " PBC="1 1 1" Properties=species:S:1:pos:R:3:force:R:3 Energy="-251.62466889"
C     4.962948570399999e+00   8.325872508913960e+00  -4.700409000000008e-01  2.55231399e+00   3.41644756e+00   3.59920250e-01
C     1.356384195200000e+00   5.166596603007840e-01  -4.502430000000004e-01 -2.36590770e+00   2.08183215e+00   8.36455520e-01
C     7.548023256000000e+00   8.354742732566631e+00  -4.395225000000025e-01 -6.82242899e+00  -2.03821702e+00   3.56384540e-01
C     3.733648978500000e+00   5.048526851199833e-01  -4.442850000000007e-01  5.53086802e+00   1.89404829e+00  -1.40241613e+00
C     9.932013003000000e+00   8.396249667048442e+00  -5.765213999999972e-01 -6.08688450e-01  -3.30230212e+00   1.20074163e+00
C     6.230500032299999e+00   5.475047009071640e-01  -5.129178000000003e-01 -1.20407139e+00  -1.68144219e+00   1.43439613e+00
C     1.237653935390000e+01   8.189752740583014e+00  -3.641970000000008e-01 -1.56358390e-01   9.09391316e+00  -1.70576674e+00
C     8.649570377500000e+00   4.878019889935192e-01  -4.362932999999991e-01  7.84770360e-01  -4.72882400e-01   8.92421600e-02
C     1.291796856800000e+00   2.053149566347880e+00  -3.730377000000011e-01  9.65793900e-01  -4.40708131e+00  -2.82579526e+00
C     2.577859384100000e+00   2.657080048506884e+00  -6.909003000000027e-01 -3.94518744e+00   9.50357930e-01   2.59182236e+00
C     3.780143463400000e+00   1.900208374321857e+00  -5.956737000000025e-01 -2.01231894e+00   3.48652432e+00   2.60385170e-01
C     4.915090841900000e+00   2.749132801624009e+00  -5.245350000000002e-01  2.88337852e+00  -2.31712250e+00   4.36161930e-01
C     6.129715549300000e+00   1.993766298816292e+00  -3.718785000000011e-01  2.66776606e+00  -1.22273052e+00  -1.69158046e+00
C     7.418821464200001e+00   2.599964571378575e+00  -4.905296999999997e-01 -1.40307111e+00   4.31997490e+00   6.45062850e-01
C     8.641280533200000e+00   1.937326257416950e+00  -5.278826999999993e-01  7.77691420e-01  -8.19995470e-01   8.60824780e-01
C     9.877324315800001e+00   2.710644321956771e+00  -5.277476999999990e-01  1.40345256e+00  -1.62476166e+00  -2.98875300e-02
C     2.426302458000000e+00   4.131329534115784e+00  -5.832620999999989e-01  5.66422292e+00  -4.25931873e+00  -9.48532770e-01
C     3.638685445100000e+00   4.747253568834576e+00  -5.264741999999991e-01  6.02152528e+00   4.76410475e+00  -1.76730037e+00
C     4.995758065500000e+00   4.164537148141770e+00  -5.422215000000001e-01 -2.33198259e+00  -1.39359515e+00  -1.19831280e-01
C     6.262323724600000e+00   4.871226082417095e+00  -6.013349999999988e-01 -2.28599338e+00  -2.92795390e-01   1.69264844e+00
C     7.440608761100000e+00   4.143225315005576e+00  -4.791000000000025e-01  1.83848670e+00  -3.48208947e+00  -7.53717800e-01
C     8.749947741100000e+00   4.788164309604676e+00  -4.984341000000008e-01 -3.22065322e+00  -7.50891890e-01  -6.21149160e-01
C     9.967413903299999e+00   4.098980432203457e+00  -6.701024999999987e-01 -1.57998634e+00   7.28798540e-01   9.57651660e-01
C     1.119263219470000e+01   4.864296590022470e+00  -6.713954999999991e-01 -5.28368709e+00  -4.13757825e+00   3.89602730e-01
C     3.815899964600000e+00   6.218176255960469e+00  -7.548819000000009e-01 -2.29073864e+00  -9.34554210e-01   2.29149496e+00
C     5.052021690499999e+00   6.962578071581133e+00  -4.992869999999989e-01 -5.37394274e+00  -1.05290707e+00  -1.27669113e+00
C     6.212324847800000e+00   6.314015206324425e+00  -4.387016999999993e-01  2.49546000e-01  -4.68209516e+00  -7.90158450e-01
C     7.382818463000000e+00   6.912784966719632e+00  -4.077695999999982e-01  5.38205219e+00   2.47805484e+00   3.18449100e-02
C     8.592118819700000e+00   6.161055143085242e+00  -4.575315000000018e-01  2.97928096e+00   2.31030790e+00  -1.11907940e-01
C     9.861312760399999e+00   6.871004442342040e+00  -5.198636999999984e-01  1.54841510e-01   2.59262355e+00   5.55737900e-02
C     1.108833198080000e+01   6.166973616639035e+00  -5.211044999999999e-01  2.11187595e+00   5.36598084e+00  -1.67994091e+00
C     1.240802834850000e+01   6.920647260619092e+00  -7.011009000000001e-01 -1.08284993e+00  -4.61060822e+00   1.23446215e+00
