2
Lattice="2.411 0 0 1.2055 2.08798724852428 0 0 0 30 " PBC="1 1 1" Properties=species:S:1:pos:R:3:force:R:3 Energy="-16.06024463"
C     0.000000000000000e+00   0.000000000000000e+00   3.000000000000000e+00 -0.00000000e+00   0.00000000e+00   0.00000000e+00
C     1.205500000000000e+00   6.959957495080938e-01   3.000000000000000e+00  0.00000000e+00   0.00000000e+00  -0.00000000e+00
