26
Lattice="8.88768389401873 1.33226762955019e-15 0 4.44384194700937 7.69696003302603 0 0 0 30 " PBC="1 1 1" Properties=species:S:1:pos:R:3:force:R:3 Energy="-207.80005483"
C     1.287876291440877e+01   7.051667913785682e+00  -4.140644999999985e-01  5.66285280e-01   3.42366811e+00  -3.87989250e-01
C     9.158033551436262e+00   6.982143352013900e+00  -4.653138000000006e-01 -1.91651041e+00   1.03801030e-01   1.43567543e+00
C     1.048240088133940e+01   6.576217456380546e+00  -3.860192999999974e-01  7.79254530e-01  -7.46484370e-01  -1.54408705e+00
C     1.085995920193209e+01   5.227297502066937e+00  -4.772834999999986e-01 -1.86549341e+00  -2.59749882e+00   3.64695620e-01
C     6.705007867427913e+00   6.343240482320485e+00  -4.267964999999982e-01  1.99412994e+00  -2.12411620e-01   1.04635040e+00
C     8.154801703071401e+00   6.013563982437123e+00  -3.352506000000020e-01 -2.70554413e+00  -2.22548592e+00  -1.33477154e+00
C     8.455958337765516e+00   4.584045080260569e+00  -3.817334999999993e-01  7.74940300e-01   1.03907894e+00   9.61761400e-02
C     9.828239349271044e+00   4.174607831461530e+00  -4.741278000000015e-01 -1.81770300e-01   8.66930230e-01   2.23556800e-01
C     1.012391294960191e+01   2.776784317962113e+00  -4.723019999999991e-01  2.41631048e+00   1.74047276e+00   1.31906007e+00
C     4.351133318215342e+00   5.710001112786744e+00  -3.807084000000032e-01  4.62795100e-01   5.85925840e-01  -7.22702330e-01
C     5.703008385275660e+00   5.319888159717423e+00  -4.024092000000010e-01  1.29739364e+00   4.20702790e-01  -1.95840240e-01
C     6.094904539697685e+00   3.949241149661531e+00  -4.478955000000013e-01 -8.26525060e-01   2.68249900e-02   3.24830320e-01
C     7.445870885540884e+00   3.593326328792702e+00  -3.641790000000000e-01  1.32401709e+00  -1.94029342e+00  -4.15284340e-01
C     7.887210647416595e+00   2.136767544213156e+00  -3.691484999999979e-01 -8.68118742e+00   3.30416717e+00  -3.44355600e-01
C     9.144385665130345e+00   1.805397944031996e+00  -3.239652000000000e-01  2.68956282e+00  -2.45757459e+00  -1.14319129e+00
C     3.306468820697091e+00   4.808275459851339e+00  -4.772055000000002e-01  3.92674670e-01  -2.70205255e+00   9.89833000e-01
C     3.654964459368259e+00   3.398324847037456e+00  -3.519708000000001e-01  2.11651990e-01  -6.24750810e-01  -1.30719813e+00
C     5.070404419328694e+00   2.954580400114299e+00  -4.758564000000014e-01 -2.02353978e+00   2.14703106e+00   1.07586051e+00
C     5.370726411682481e+00   1.607852001230033e+00  -4.415751000000014e-01  7.98289920e-01  -1.18931670e+00  -1.10039410e-01
C     6.759838830045531e+00   1.172982918917468e+00  -4.633277999999983e-01  9.20177210e-01   1.12857807e+00   1.96832630e-01
C     1.151977059012176e+01   7.491684261148708e+00  -5.030399999999986e-01  7.35948540e-01   9.07704540e-01   1.14852034e+00
C     2.604856166527698e+00   2.399855487728179e+00  -3.295647000000024e-01  8.83219510e-01   3.44905410e-01  -5.96417100e-01
C     2.951225871223908e+00   1.007655296257080e+00  -3.057818999999995e-01 -2.24414460e-01   6.92604940e-01  -4.12361580e-01
C     4.302230700735591e+00   6.474903679988860e-01  -3.905079000000029e-01  1.76847934e+00  -1.98628960e-01  -2.47468870e-01
C     5.466857024328525e-01   4.166907869617118e-01  -4.174269000000024e-01  1.22524861e+00  -1.76676685e+00   8.78631270e-01
C     1.925761481597271e+00   2.222989814104420e-02  -3.643628999999997e-01 -8.15394000e-01  -7.11312400e-02  -3.38315810e-01
