32
Lattice="9.788 0 0 4.894 8.47665665224208 0 0 0 30 " PBC="1 1 1" Properties=species:S:1:pos:R:3:force:R:3 Energy="-257.9638865"
C    -3.070003291805040e-04   1.102897907785065e-03   3.000567689175612e+00  7.03631000e-03  -6.22424100e-02  -2.25279700e-02
C     1.223741417310830e+00   7.055463319666697e-01   2.999158218591263e+00 -4.22926300e-02   1.14260350e-01   1.29230000e-02
C     2.445918630598976e+00   8.960330287112665e-04   3.000247428433735e+00  8.21304700e-02  -9.80548500e-02  -8.58107000e-03
C     3.671009153597867e+00   7.052149246110488e-01   3.001149869408240e+00 -2.76136100e-02   5.61674100e-02  -2.57871100e-02
C     4.894813487142039e+00  -7.039061961702583e-04   2.999221425694756e+00 -5.63545200e-02   3.32102800e-02   1.84970300e-02
C     6.116725290835612e+00   7.059090351220291e-01   3.000060578988204e+00  4.88392600e-02   2.51865000e-03  -3.22663000e-03
C     7.340833469460618e+00  -5.108622939353915e-04   3.000273704033386e+00 -1.58563500e-02   3.91034900e-02  -7.12423000e-03
C     8.563617841477017e+00   7.058794323084727e-01   2.999672987430539e+00  1.97592100e-02   7.28126000e-02   6.84114000e-03
C     1.223392503251379e+00   2.119861988638050e+00   2.999265101744942e+00  2.01466100e-02  -6.58135900e-02  -9.15320000e-04
C     2.447034831670798e+00   2.825778355864033e+00   2.998890164159926e+00  1.39993400e-02  -4.54117700e-02   9.75604000e-03
C     3.670763162252603e+00   2.118357935591184e+00   2.998935681248035e+00  3.17431200e-02   4.07235500e-02   2.15307000e-02
C     4.895098422909659e+00   2.826691618998962e+00   3.000754648310841e+00 -8.16458000e-02  -7.16430300e-02  -2.07966700e-02
C     6.117021889893167e+00   2.118179666723495e+00   3.000450818215875e+00  1.77535400e-02   3.96893000e-02   3.10400000e-05
C     7.340853553152181e+00   2.824627344974693e+00   2.999988197899042e+00 -3.20286900e-02   4.66780700e-02   3.80196000e-03
C     8.563360648711170e+00   2.120165770084408e+00   2.999409734614975e+00  7.06741600e-02  -9.57658700e-02   7.55419000e-03
C     9.788397692029816e+00   2.825091474417219e+00   3.000049106447822e+00 -5.71700700e-02   6.63291100e-02  -1.34368800e-02
C     2.447114300053553e+00   4.237557164973714e+00   3.001149073584140e+00  4.46534700e-02   7.92008000e-02  -1.93719000e-02
C     3.671173250018765e+00   4.945791834384557e+00   3.000966142526496e+00 -6.24994500e-02  -4.03099600e-02  -8.33313000e-03
C     4.894239561248151e+00   4.239360652374144e+00   2.998993041152521e+00 -2.85207100e-02  -4.36684100e-02   2.00609500e-02
C     6.116756070064341e+00   4.943603551650513e+00   2.999572583319378e+00  6.41118300e-02   5.76252000e-02   1.10549000e-02
C     7.340727593327871e+00   4.237768817201793e+00   3.000804420684895e+00 -1.53495000e-02  -1.42559000e-02  -1.25444500e-02
C     8.564149475390419e+00   4.944180327219755e+00   3.000104477315488e+00 -1.69054900e-02   2.63798700e-02   2.13215000e-03
C     9.787121341578514e+00   4.239067802132947e+00   2.998958925425085e+00  9.41101200e-02  -4.60589200e-02   1.03051700e-02
C     1.101269141233386e+01   4.945382563425018e+00   2.999262757272714e+00 -9.52333500e-02  -3.29328400e-02   1.61503100e-02
C     3.669290012620602e+00   6.358264423296992e+00   3.000506179920395e+00  9.53517300e-02  -2.45900000e-05  -8.38514000e-03
C     4.894560380540196e+00   7.064544342073411e+00   2.998957687262793e+00 -5.50520500e-02  -1.94032000e-02   2.64767400e-02
C     6.117153665637748e+00   6.356552520770221e+00   3.000888514083118e+00  2.32864700e-02   3.82569800e-02  -2.95784700e-02
C     7.341301710516348e+00   7.063466751001885e+00   2.998932027283150e+00 -4.96604400e-02   1.73848100e-02   2.77306500e-02
C     8.564037473741239e+00   6.357064712770563e+00   3.000561846318393e+00  3.94054000e-02   3.50185800e-02  -1.38667700e-02
C     9.788336603132407e+00   7.064828053116154e+00   2.999932009921871e+00 -5.25657900e-02  -9.38698000e-02   2.15930000e-03
C     1.101056914711981e+01   6.358014299175898e+00   3.000638141013966e+00  7.92531300e-02  -1.53049000e-03  -1.28881800e-02
C     1.223514994530245e+01   7.064543600224419e+00   2.999984817824304e+00 -6.35056900e-02  -3.43734100e-02   1.03586500e-02
