32
Lattice="9.86 0 0 4.93 8.53901048131456 0 0 0 30 " PBC="1 1 1" Properties=species:S:1:pos:R:3:force:R:3 Energy="-254.30186688"
C     4.999986773000000e+00   8.261531918848208e+00  -9.196191000000020e-01  7.24575230e-01  -1.02948787e+00  -4.39776000e-01
C     1.285152597200000e+00   4.678962747130672e-01  -1.028359500000001e+00 -4.54820870e-01  -1.83001832e+00   3.56334910e-01
C     7.415416806200000e+00   8.313079021852404e+00  -1.028639399999999e+00  2.51763927e+00  -1.52032615e+00   5.36140420e-01
C     3.776577594400000e+00   4.597857517789536e-01  -9.866963999999996e-01 -8.64777040e-01  -1.70163330e-01  -1.21109083e+00
C     9.953025008099999e+00   8.265801680258523e+00  -1.099274400000002e+00 -3.10038142e+00   1.71962054e+00   1.15687846e+00
C     6.219600393900000e+00   3.964024701781144e-01  -1.046904900000001e+00  3.22287910e+00   2.70561156e+00  -1.81126010e-01
C     1.241697491810000e+01   8.354403477680259e+00  -1.090886399999999e+00  3.84312880e-01  -4.84127620e+00   8.67538400e-02
C     8.764222999800001e+00   4.598542346430032e-01  -9.620006999999973e-01 -2.95788922e+00   4.63529950e-01  -8.20615760e-01
C     1.304000825300000e+00   1.852873138236921e+00  -1.034226900000000e+00 -1.11253149e+00   5.64895890e-01   9.48185110e-01
C     2.482334077200000e+00   2.506590320999565e+00  -9.067907999999996e-01  4.29501602e+00   4.75410956e+00  -3.44326190e-01
C     3.765243130000000e+00   1.905378915947707e+00  -9.708305999999993e-01 -1.19444115e+00  -4.17611905e+00   3.85236320e-01
C     5.001549435099999e+00   2.481685699203911e+00  -9.301475999999980e-01  2.83042172e+00   3.54097232e+00   1.84882730e-01
C     6.312708768299999e+00   1.812461758799692e+00  -9.560925000000005e-01 -2.77320424e+00   1.37538598e+00  -9.07645810e-01
C     7.519510305199999e+00   2.602507317919309e+00  -1.079896500000000e+00  8.88686600e-02  -3.07129857e+00   1.18526959e+00
C     8.775800266699999e+00   1.875008473543806e+00  -1.022906400000000e+00 -7.91534530e-01   8.69051660e-01   3.51577330e-01
C     9.987628579499999e+00   2.594234809956389e+00  -9.322307999999992e-01 -2.44599938e+00   1.37786229e+00  -1.30577245e+00
C     2.614370175300000e+00   3.990934624797921e+00  -8.331024000000014e-01 -3.85532383e+00  -1.12402177e+00  -2.07065970e-01
C     3.866934634400000e+00   4.681805042159045e+00  -8.908902000000012e-01 -4.42140724e+00   6.21135900e-02   4.40910880e-01
C     5.037372047600000e+00   3.943171242727517e+00  -9.028643999999986e-01  5.37461960e-01  -1.30201597e+00  -7.64181830e-01
C     6.246301471100000e+00   4.621308287660865e+00  -1.056986999999999e+00  5.64873960e-01   2.31959894e+00   1.97235122e+00
C     7.490133716999999e+00   3.984383752127979e+00  -9.911412000000013e-01 -3.83620600e-02   1.58730980e-01  -1.20830406e+00
C     8.693406754300000e+00   4.722398729470021e+00  -9.902879999999996e-01 -1.55729732e+00   2.08520901e+00   7.35309660e-01
C     9.881887622399999e+00   4.074116456097688e+00  -9.693669000000007e-01  3.62211274e+00  -3.92126704e+00   1.05577902e+00
C     1.111948055890000e+01   4.716958355113004e+00  -8.095083000000010e-01  2.58266597e+00   1.41950752e+00  -1.26604420e-01
C     3.645522960700000e+00   6.106230597078611e+00  -9.407055000000000e-01  5.31760230e+00   4.02420000e-03  -5.15317660e-01
C     4.922315559699999e+00   6.832719703464855e+00  -9.009204000000004e-01  1.94955467e+00  -1.25640838e+00  -5.24755700e-02
C     6.255336090499999e+00   6.050805417074818e+00  -8.798816999999985e-01 -2.94008029e+00   2.22931008e+00  -1.41278177e+00
C     7.436333563700000e+00   6.856138793607303e+00  -9.652805999999998e-01 -3.13198700e-01  -2.58649620e-01   5.22309940e-01
C     8.673340717600000e+00   6.162149246498045e+00  -8.874881999999999e-01 -1.10346150e-01   3.47137670e-01  -8.95885370e-01
C     9.887800861599999e+00   6.918623429745227e+00  -9.250782000000015e-01  3.45356390e-01  -3.69479081e+00   3.49797920e-01
C     1.109932617660000e+01   6.175880829250933e+00  -7.891364999999979e-01  8.81643240e-01  -1.08067386e+00  -2.44218639e+00
C     1.234163825700000e+01   6.801090952476621e+00  -1.141616400000000e+00 -9.33389190e-01   3.27984519e+00   2.56743876e+00
