32
Lattice="9.86 0 0 4.93 8.53901048131456 0 0 0 30 " PBC="1 1 1" Properties=species:S:1:pos:R:3:force:R:3 Energy="-256.7696737"
C     9.834974038200000e+00   1.917451881304960e-02   3.469388700000000e+00 -6.88980400e-02   3.07886020e-01  -3.50512830e-01
C     1.213471974800000e+00   7.109612573887824e-01   3.463946400000000e+00  5.05595630e-01   7.45821270e-01  -4.63644300e-02
C     7.345845977300000e+00   8.498729320472592e+00   3.437916600000000e+00  2.36920591e+00   2.16156192e+00   2.99327000e-03
C     3.721233266500000e+00   7.008699401936233e-01   3.447834300000000e+00 -2.36324515e+00  -2.05875780e-01  -1.04224720e-01
C     4.959480956300000e+00   1.394548496541200e-02   3.452952900000000e+00 -2.12982516e+00  -1.24711640e+00  -5.90187660e-01
C     6.159090559899999e+00   6.842356062181639e-01   3.415569600000000e+00  1.71398196e+00   9.63530080e-01   1.68640900e-01
C     7.393225052099999e+00   3.723606300013600e-03   3.434505900000000e+00  1.11239683e+00   1.80070880e-01   8.86236200e-02
C     8.619503145600000e+00   7.480473753648896e-01   3.495462300000000e+00 -4.86387480e-01   6.31930120e-01  -5.35983870e-01
C     1.264762758100000e+00   2.166723785308482e+00   3.469989300000000e+00 -2.68205970e+00  -1.31188588e+00   2.57076200e-01
C     2.439525605400000e+00   2.882080839902264e+00   3.524654400000000e+00  2.72184375e+00  -3.73105760e+00  -4.90617260e-01
C     3.696221897500000e+00   2.118208714145524e+00   3.423483000000000e+00 -1.70717320e-01  -3.44057790e-01   3.79888900e-01
C     4.959053426700000e+00   2.756792977145407e+00   3.363084300000000e+00 -1.70118765e+00   3.18221307e+00   4.23058880e-01
C     6.183940569999999e+00   2.095630118804622e+00   3.393716100000000e+00  5.45691700e-02   8.60046580e-01   1.97050630e-01
C     7.375046712400000e+00   2.889012467049509e+00   3.459722400000000e+00  7.19313570e-01  -4.56172340e-01  -2.42326920e-01
C     8.617370378300000e+00   2.215657609545380e+00   3.460287600000000e+00  3.80733140e-01  -2.26472016e+00   2.75007760e-01
C     9.870242962399999e+00   2.890051493844715e+00   3.451731000000000e+00 -1.40459750e-01  -6.61232980e-01   2.90491780e-01
C     2.466433791900000e+00   4.223036542698574e+00   3.555816600000000e+00  3.27696200e-02   4.01057995e+00  -7.08832050e-01
C     3.694148240900000e+00   4.969166397870074e+00   3.467137200000000e+00  2.05105310e-01  -6.67824750e-01  -2.75263490e-01
C     4.889440594200000e+00   4.232039819178371e+00   3.383159700000000e+00  2.73098746e+00   5.33216920e-01   3.96095260e-01
C     6.155559496700000e+00   5.036246131717601e+00   3.416331600000000e+00 -9.10713660e-01  -2.78337878e+00  -2.70240130e-01
C     7.416318355300000e+00   4.313735862654618e+00   3.461472000000000e+00 -3.07611808e+00  -6.76914780e-01  -3.91844800e-01
C     8.608896447799999e+00   4.994027129151861e+00   3.420857100000000e+00  1.53683582e+00   5.78319040e-01  -1.02643070e-01
C     9.844786907400000e+00   4.297216207589906e+00   3.452085000000000e+00  1.54479979e+00  -1.72114900e-02  -5.28448500e-02
C     1.112437190770000e+01   4.951244722674651e+00   3.467502900000000e+00 -1.59706600e+00   2.50662677e+00  -7.19381100e-02
C     3.730877726900000e+00   6.397995947444702e+00   3.400755000000000e+00 -1.82310140e+00  -3.11075530e-01   3.03007820e-01
C     4.903183659400000e+00   7.132385431717146e+00   3.385161000000000e+00  1.22585051e+00   3.56383670e-01   3.42051570e-01
C     6.138103106200000e+00   6.428405498516601e+00   3.386718600000000e+00 -1.44232270e-01  -1.20367690e-01   2.86588000e-02
C     7.371668479199999e+00   7.109348718463991e+00   3.384964200000000e+00  3.57088750e-01  -2.68067940e-01   4.81652500e-02
C     8.609418288299999e+00   6.396849158337237e+00   3.352841400000000e+00  5.36127630e-01   1.31216894e+00   5.79266600e-01
C     9.850924510900001e+00   7.131539471948892e+00   3.395831700000000e+00  7.96118580e-01  -8.66588200e-01  -8.66061300e-02
C     1.112173125180000e+01   6.444203180245230e+00   3.388187100000000e+00 -7.82645740e-01  -2.28282505e+00   4.47964430e-01
C     1.235911352940000e+01   7.126959573677944e+00   3.405067200000000e+00 -4.66666010e-01  -1.13982070e-01   9.23886700e-02
