32
Lattice="9.86 0 0 4.93 8.53901048131456 0 0 0 30 " PBC="1 1 1" Properties=species:S:1:pos:R:3:force:R:3 Energy="-252.47675281"
C     4.850887846299999e+00   7.400036701877820e+00  -1.094180400000003e+00 -1.54435810e+00  -1.33715990e-01   1.79938274e+00
C     6.049697557400000e+00   8.205403124380862e+00  -8.986095000000027e-01  1.78834192e+00  -3.16894065e+00  -1.74887018e+00
C     7.275169891699999e+00   7.395947028198529e+00  -1.011393600000002e+00  2.01068167e+00   1.90203870e-01   4.02522426e+00
C     8.591333815799999e+00   8.093846929766999e+00  -5.814135000000000e-01 -3.73013833e+00   3.38288060e-01  -2.91331599e+00
C     9.791036300599998e+00   7.397937215371102e+00  -6.768290999999991e-01 -5.04892560e-01   1.51836823e+00   1.67811667e+00
C     1.094607628850000e+01   8.241447056127885e+00  -6.615839999999977e-01  3.05027039e+00  -4.68775495e+00   1.31481570e-01
C     1.219877755510000e+01   7.392958374530529e+00  -7.517204999999976e-01 -5.42161600e-01   1.10181975e+00   4.43392570e-01
C     1.342589231890000e+01   8.074287216191196e+00  -8.328665999999991e-01  1.75509863e+00   1.02776448e+00  -1.17946873e+00
C     1.258348187200000e+00   1.078410248562046e+00  -6.521141999999998e-01 -4.18136769e+00  -1.67649962e+00   8.73271780e-01
C     2.407654733000000e+00   1.744032775906221e+00  -3.533138999999998e-01  2.30603769e+00   4.04773370e-01  -2.27293800e-02
C     3.685802736900000e+00   9.802197401020023e-01  -4.656458999999984e-01 -3.68167337e+00  -4.29508330e-01   2.20592480e-01
C     4.848108558800000e+00   1.670099461467237e+00  -4.144097999999978e-01 -6.83040810e-01   4.83309447e+00   1.19827908e+00
C     6.060062833100000e+00   1.083947711468222e+00  -4.844666999999987e-01  2.89621414e+00  -9.16711610e-01  -1.51250471e+00
C     7.346383938900000e+00   1.823373760292084e+00  -5.583138000000005e-01 -7.41008360e-01  -6.26970938e+00   1.17808720e-01
C     8.547058471800000e+00   9.722792288665456e-01  -7.057748999999980e-01  7.68473710e-01   2.29107308e+00   1.36658896e+00
C     9.827792556499999e+00   1.710862733526346e+00  -4.387892999999998e-01 -9.13369820e-01  -1.16569365e+00  -1.73193497e+00
C     2.315792564000000e+00   3.176524536295510e+00  -7.184549999999845e-02  3.52006631e+00  -1.09370565e+00  -2.60527400e-02
C     3.576969338700000e+00   3.928718711319803e+00  -1.516058999999998e-01  1.11280540e-01  -2.36569381e+00  -1.03456459e+00
C     4.776707418100000e+00   3.160403311459794e+00  -3.044130000000003e-01  8.47192300e-02  -1.23910868e+00  -1.81593360e-01
C     5.981757030200001e+00   3.837692603432688e+00  -4.630751999999987e-01  3.23950936e+00   1.19773410e-01   4.41765510e-01
C     7.323475214900000e+00   3.140632428154821e+00  -4.023186000000010e-01 -8.71169410e-01   2.95342536e+00   2.26432500e-01
C     8.596531564099999e+00   3.788361288257946e+00  -2.321123999999983e-01 -2.63744595e+00   1.64078078e+00  -7.65781940e-01
C     9.797982917099999e+00   3.104077948971199e+00  -2.166114000000015e-01  1.64643480e-01  -3.51687700e-01   1.26881262e+00
C     1.098664382880000e+01   3.835499785541424e+00   7.409610000000000e-02 -6.03833000e-01   2.36616815e+00  -1.62466836e+00
C     3.634380322600000e+00   5.287501306295208e+00  -5.282939999999989e-01 -6.01310870e-01  -8.68599600e-01  -3.51877630e-01
C     4.808711104700000e+00   5.868433842308638e+00  -1.011431999999999e+00  1.84825967e+00   4.16868433e+00   1.55310397e+00
C     6.040584008700000e+00   5.238031317590271e+00  -7.031208000000007e-01  3.27976340e-01  -3.28712410e-01  -9.23154680e-01
C     7.295300905800000e+00   5.939096801123886e+00  -7.277838000000010e-01  3.16832960e-01   1.34720620e-01  -2.88950900e-02
C     8.551211405200000e+00   5.193357349511531e+00  -3.350664000000023e-01 -7.08387900e-01   3.80182041e+00  -1.09497486e+00
C     9.737417669899999e+00   6.030593579268658e+00  -3.414266999999995e-01  2.67151092e+00  -3.16202804e+00   3.49863240e-01
C     1.103534424220000e+01   5.322277451156266e+00  -7.158060000000077e-02 -1.02770505e+00  -4.91566290e-01  -1.88749390e+00
C     1.228685294180000e+01   5.967499087002253e+00  -5.280294000000012e-01 -3.88805413e+00   1.45887801e+00   1.33376446e+00
