32
Lattice="9.964 0 0 4.982 8.62907712330815 0 0 0 30 " PBC="1 1 1" Properties=species:S:1:pos:R:3:force:R:3 Energy="-257.85770455"
C    -7.408060785104339e-04  -7.296310777841160e-04   2.999134720618561e+00  4.72030700e-02   5.84881100e-02   9.19120000e-03
C     1.246134190693510e+00   7.184107803491275e-01   3.000408728172410e+00 -4.38270400e-02   2.91523200e-02  -1.06305300e-02
C     2.491222241601578e+00  -1.951767730120499e-04   3.000886855475336e+00  2.00582000e-03  -3.35144500e-02  -1.09856100e-02
C     3.736467000971039e+00   7.184678862034837e-01   3.000852965435695e+00  8.32661000e-03   4.44058100e-02  -4.80386000e-03
C     4.982746875141705e+00   6.786512661740611e-04   3.000796303409197e+00 -6.98772900e-02  -7.73611900e-02  -1.36857500e-02
C     6.226397048695363e+00   7.186085891277978e-01   2.999199166510291e+00  8.53076900e-02   7.61764300e-02   1.75592300e-02
C     7.472745732684311e+00   9.698501436509084e-04   2.999470734814349e+00  8.49260000e-04  -3.87357900e-02   2.29420000e-04
C     8.718947427981384e+00   7.199787174384105e-01   2.999442784355316e+00 -2.67123800e-02  -3.74923500e-02   2.80810000e-03
C     1.245545580402430e+00   2.157464719746629e+00   2.999156225308123e+00  1.19040200e-02  -2.78122700e-02   8.62794000e-03
C     2.491593475875747e+00   2.876613021707754e+00   2.998877984988285e+00 -4.01975200e-02   1.98083100e-02   8.99173000e-03
C     3.736116359597599e+00   2.157694521533529e+00   2.999261509185142e+00  1.29330500e-02  -5.18281500e-02   5.25363000e-03
C     4.981099335563322e+00   2.876203922336992e+00   2.999495399293170e+00  6.44286100e-02   3.44553100e-02   3.84514000e-03
C     6.228738736523267e+00   2.158261119674486e+00   3.000657504416272e+00 -1.12716860e-01  -6.14812200e-02  -1.27563500e-02
C     7.472279564278807e+00   2.876519750069610e+00   3.000579013540367e+00  7.21513800e-02  -1.55602500e-02   7.36188000e-03
C     8.719617914417530e+00   2.157246626732779e+00   3.000823498211819e+00 -7.17748700e-02   1.62337700e-02  -1.21731200e-02
C     9.963516430888756e+00   2.875732394964441e+00   2.999943010224505e+00  5.03051400e-02   6.65407200e-02   5.73451000e-03
C     2.491662175645441e+00   4.315254856678290e+00   3.000363810416057e+00 -5.02225900e-02  -1.13991300e-02  -2.35332500e-02
C     3.736000757148220e+00   5.034495295767483e+00   2.998928830998637e+00  4.16648900e-02  -4.27985600e-02   9.64692000e-03
C     4.981572059314379e+00   4.314932424809511e+00   2.999295100531719e+00 -8.45059000e-03  -1.93772500e-02   8.85802000e-03
C     6.226950673028553e+00   5.033963046092448e+00   3.001219396151137e+00 -5.83894000e-03  -3.16433200e-02  -2.20343000e-02
C     7.472030792348909e+00   4.313672827298269e+00   3.000878480444072e+00  1.46555400e-02   5.93301500e-02  -3.69319000e-03
C     8.717421704600195e+00   5.033913818330117e+00   2.999594454919996e+00  3.30283100e-02  -4.25961700e-02   1.84743000e-02
C     9.963776562318351e+00   4.315345136390151e+00   3.000765736961081e+00 -9.19755000e-03  -2.58885300e-02  -1.96125600e-02
C     1.120951131871055e+01   5.034862945101429e+00   2.999296573537148e+00  9.01868000e-03  -7.02786800e-02   2.34898700e-02
C     3.737488326154613e+00   6.471048718383512e+00   2.999267812660467e+00 -8.40553200e-02   8.37418900e-02   5.08582000e-03
C     4.981463102967266e+00   7.191570217638163e+00   2.999522335787144e+00  2.21893500e-02  -5.51009600e-02  -9.19961000e-03
C     6.226933017976909e+00   6.471625358327609e+00   2.999083522850139e+00  1.82564000e-02   2.35477600e-02   1.09392200e-02
C     7.472834204830533e+00   7.189983868231743e+00   2.998930620624775e+00 -3.66714000e-03   3.40200200e-02   1.84825100e-02
C     8.718576346542566e+00   6.471471615806813e+00   3.000420785827701e+00 -2.38499400e-02   6.80018000e-03  -1.80855900e-02
C     9.963746217431698e+00   7.190022462086381e+00   2.999701013517635e+00  3.00298000e-02   5.52218300e-02   1.88737200e-02
C     1.121008418295111e+01   6.471802523988644e+00   3.000924839324242e+00 -4.13468000e-02   2.99767500e-02  -1.85577700e-02
C     1.245452198551228e+01   7.191246419117589e+00   3.000210514585866e+00  6.74772100e-02   4.96891000e-03  -3.70169000e-03
