26
Lattice="8.88768389401873 1.33226762955019e-15 0 4.44384194700937 7.69696003302603 0 0 0 30 " PBC="1 1 1" Properties=species:S:1:pos:R:3:force:R:3 Energy="-207.00463265"
C     1.304048192189215e+01   7.259637849556275e+00  -4.009664999999991e-01 -1.92981027e+00  -1.31979064e+00   8.32605020e-01
C     9.206075082447601e+00   7.095927589106990e+00  -3.331182000000013e-01  2.45749120e-01  -1.83945800e-02  -1.03578716e+00
C     1.054150797875710e+01   6.716987928065218e+00  -2.035259999999894e-02  1.85660488e+00  -2.13698047e+00  -9.20894770e-01
C     1.091227601990543e+01   5.251745818027828e+00  -8.049900000000321e-02  7.68738780e-01   2.56334233e+00  -6.87949800e-01
C     6.861635254047313e+00   6.430133773187164e+00  -7.072071000000015e-01  3.51102330e-01   2.56088497e+00  -9.36964540e-01
C     8.218536350813052e+00   6.081902519637882e+00  -5.225384999999996e-01  1.31069230e-01  -1.00277282e+00   1.67598574e+00
C     8.547363811688676e+00   4.706605468149466e+00  -2.161253999999992e-01 -6.68523970e-01  -6.78303450e-01  -2.14053647e+00
C     9.908313870566499e+00   4.300363150489279e+00  -3.257583000000004e-01 -2.54545100e-02  -1.00473600e-01   8.90589930e-01
C     1.026363062891387e+01   2.958623305339656e+00  -6.228236999999979e-01 -7.05599750e-01  -2.49164292e+00   4.87506380e-01
C     4.478862845090568e+00   5.858417898504420e+00  -3.643839000000000e-01 -5.66551900e-01   7.78355860e-01   3.17291990e-01
C     5.862533290202496e+00   5.474572349078727e+00  -4.880234999999971e-01 -1.43569222e+00  -2.95882500e-02  -4.78648990e-01
C     6.188538333754655e+00   4.116304744687085e+00  -4.101689999999998e-01 -1.12970991e+00  -1.53228015e+00   1.72334313e+00
C     7.517037325675361e+00   3.662966729812935e+00  -2.965932000000002e-01  7.32692780e-01   4.27586828e+00   4.83343200e-02
C     7.834514858759734e+00   2.354839816992724e+00  -2.483564999999999e-01  2.80466312e+00  -4.47412225e+00  -1.75810611e+00
C     9.233846069408543e+00   1.888496633603885e+00  -6.347604000000011e-01 -6.70371760e-01   2.61887109e+00   1.56589188e+00
C     3.418863137798395e+00   4.888435834931776e+00  -1.959540000000004e-01  2.20664710e-01   1.46967900e-01  -7.41957950e-01
C     3.791569982813079e+00   3.521973662044195e+00  -4.113552000000027e-01 -1.96163802e+00  -7.11045720e-01   7.76786280e-01
C     5.128650611267350e+00   3.127623840356760e+00  -2.606330999999997e-01  9.31254320e-01   3.94982240e-01  -1.98949856e+00
C     5.441434469566348e+00   1.748332682369576e+00  -3.520289999999981e-01  1.04546514e+00  -8.96040510e-01   2.01169210e-01
C     6.844402609370410e+00   1.329136150070098e+00  -2.261009999999999e-01 -1.32305411e+00   9.42528130e-01   2.64256690e-01
C     1.163138483526616e+01   7.661316254766673e+00  -1.073484000000029e-01  6.77893100e-01  -4.02666700e-01  -1.07714919e+00
C     2.741556788183299e+00   2.512971474751465e+00  -6.287334000000016e-01  2.74337840e-01   2.07557751e+00  -3.13179260e-01
C     3.071899243669971e+00   1.161007603654793e+00  -8.445771000000022e-01  8.44157020e-01  -7.05051200e-01  -1.43461000e-02
C     4.439374195678008e+00   7.584158001976338e-01  -6.272205000000000e-01  1.86570710e-01   4.77353920e-01   1.35830637e+00
C     6.950853601335277e-01   5.097777445949315e-01  -7.132980000000018e-01  7.55992720e-01   1.30071649e+00  -7.01092500e-01
C     2.088793244379906e+00   1.536725779045608e-01  -1.015540500000000e+00 -1.41054940e+00  -1.63629546e+00   2.65404445e+00
