32
Lattice="9.86 0 0 4.93 8.53901048131456 0 0 0 30 " PBC="1 1 1" Properties=species:S:1:pos:R:3:force:R:3 Energy="-257.5061659"
C     1.235874535700000e+00   6.014481918124679e-01   3.367461000000000e+00  1.44184322e+00  -1.28924515e+00  -4.21205900e-02
C     2.502459372500000e+00   1.272711418699521e+00   3.387964800000000e+00 -8.75345830e-01   1.60831217e+00   1.65298720e-01
C     3.724421398900000e+00   5.833613721543608e-01   3.472736700000000e+00 -2.08883210e-01  -1.37184606e+00  -5.30005320e-01
C     4.965067040700000e+00   1.253724758117031e+00   3.400102800000000e+00 -1.36630730e-01   1.78987920e+00   4.16083240e-01
C     6.201380099900001e+00   5.975108540801400e-01   3.431882400000000e+00  1.05901395e+00  -9.11281550e-01  -6.80829900e-02
C     7.461702752100000e+00   1.298007895686102e+00   3.407784000000000e+00 -9.92660040e-01  -3.02551340e-01   3.72514020e-01
C     8.677779985399999e+00   5.430440072225168e-01   3.424749900000000e+00 -1.37406240e-01   1.99196578e+00  -2.91005420e-01
C     9.880234642700000e+00   1.316782959588897e+00   3.368249100000000e+00  6.46434340e-01  -1.10893409e+00  -1.30102210e-01
C     2.518394512900000e+00   2.730335707074175e+00   3.379029300000000e+00 -6.01963770e-01  -1.30167434e+00   1.97165660e-01
C     3.730476326300000e+00   3.413095174550662e+00   3.410090700000000e+00  8.43816530e-01   7.22053600e-02  -1.28689900e-01
C     4.970182852400000e+00   2.694822047877960e+00   3.393269100000000e+00 -7.52247700e-01  -3.03645740e-01   1.98059210e-01
C     6.168665162200000e+00   3.417136602820741e+00   3.437966700000000e+00  2.01524300e+00  -6.39130830e-01  -2.93736740e-01
C     7.445197703700000e+00   2.727699885319209e+00   3.434958600000000e+00 -2.03322730e-01  -7.51448560e-01  -2.17170960e-01
C     8.688252390000001e+00   3.422232342714786e+00   3.410455200000000e+00 -4.29226000e-01   4.29616730e-01  -3.43760010e-01
C     9.926187616400000e+00   2.717378868742137e+00   3.326707200000000e+00 -2.91401240e-01   1.39351189e+00   8.82278550e-01
C     1.117439725860000e+01   3.474118102874619e+00   3.400539300000000e+00 -1.28711949e+00  -2.12023730e+00  -5.00563800e-01
C     3.723540950199999e+00   4.825414120411684e+00   3.423369900000000e+00  1.39104728e+00   9.69444130e-01  -7.59290000e-02
C     4.994181845900000e+00   5.524919868291023e+00   3.419486400000000e+00 -1.53119304e+00   4.17312050e-01  -2.37191530e-01
C     6.206178271699999e+00   4.825482688665839e+00   3.418537500000000e+00 -2.68977460e-01   1.16185690e-01   3.63913750e-01
C     7.422041838799998e+00   5.544655997823343e+00   3.469712100000000e+00  5.04007310e-01   1.66438150e-01  -4.86798690e-01
C     8.657096071800000e+00   4.848938240383037e+00   3.414594600000000e+00  7.64298190e-01  -1.52834960e-01   5.08106070e-01
C     9.900081886000001e+00   5.554692579961324e+00   3.440362200000000e+00 -1.44804810e-01   8.89892670e-01  -3.94905500e-02
C     1.114956721500000e+01   4.867391725151156e+00   3.441342900000000e+00 -2.13686100e-01   7.01691170e-01  -3.22305250e-01
C     1.238437011660000e+01   5.586166006348928e+00   3.416884500000000e+00 -4.56219810e-01  -1.37240234e+00   4.14840300e-01
C     4.987619818700000e+00   6.948388968646726e+00   3.374871900000000e+00 -2.29917170e-01   4.00507610e-01   3.15540440e-01
C     6.188725628000000e+00   7.689721522340458e+00   3.359000700000000e+00  3.97796460e-01   3.89199310e-01   5.41042020e-01
C     7.425405824299999e+00   6.970658878758775e+00   3.459520800000000e+00 -8.66481880e-01   8.12898800e-02  -1.71741620e-01
C     8.628254832300000e+00   7.682279518536823e+00   3.501578400000000e+00  1.70092121e+00   6.33165610e-01  -3.31780860e-01
C     9.890681312700000e+00   6.995597229645824e+00   3.460184700000000e+00  2.76686200e-01  -3.99978300e-01   2.95825040e-01
C     1.114797827600000e+01   7.712081433622966e+00   3.463342500000000e+00 -5.00343100e-01  -6.36071100e-01  -7.62518500e-02
C     1.238589304290000e+01   6.977762652357296e+00   3.455811900000000e+00 -1.96935030e-01   1.36890870e+00  -1.04120700e-01
C     1.363088334580000e+01   7.682063908522204e+00   3.439317900000000e+00 -7.16342330e-01  -7.58244440e-01  -2.79819010e-01
