2
Lattice="2.515 0 0 1.2575 2.17805389051786 0 0 0 30 " PBC="1 1 1" Properties=species:S:1:pos:R:3:force:R:3 Energy="-16.07790534"
C     0.000000000000000e+00   0.000000000000000e+00   3.000000000000000e+00  0.00000000e+00   0.00000000e+00   0.00000000e+00
C     1.257500000000000e+00   7.260179635059544e-01   3.000000000000000e+00 -0.00000000e+00  -0.00000000e+00  -0.00000000e+00
