32
Lattice="9.86 0 0 4.93 8.53901048131456 0 0 0 30 " PBC="1 1 1" Properties=species:S:1:pos:R:3:force:R:3 Energy="-256.31450743"
C     1.051677854400000e+00   6.425164773259231e-01   3.718902300000000e+00  6.88346760e-01  -3.48268520e-01  -2.67458650e-01
C     2.261881387100000e+00   1.360170184178406e+00   3.568260900000000e+00  1.24683586e+00   9.91727850e-01   5.04478390e-01
C     3.531117577900000e+00   6.553563312143849e-01   3.519705300000000e+00 -1.23764705e+00   2.06960621e+00  -8.70125760e-01
C     4.790214927900000e+00   1.313935711934446e+00   3.343681200000000e+00 -3.38426330e-01   9.82211630e-01   1.26684765e+00
C     6.002850331000000e+00   5.983523735629440e-01   3.454254000000000e+00  1.82405106e+00   1.22953191e+00  -4.55611610e-01
C     7.294202058100000e+00   1.378174004654647e+00   3.613701000000000e+00 -4.12436311e+00   3.28577330e-01  -6.86131510e-01
C     8.467136467000000e+00   6.440792870239728e-01   3.692358300000000e+00  1.01590917e+00   6.45707000e-03   7.07885350e-01
C     9.694529677200000e+00   1.361537535926568e+00   3.834760200000000e+00  2.70494460e-01   2.73339870e-01  -1.60349407e+00
C     2.276842556700000e+00   2.812003657205943e+00   3.524658000000000e+00  8.60561270e-01  -1.09027369e+00  -4.78585900e-02
C     3.534694638000000e+00   3.476871592194000e+00   3.412686000000000e+00  4.83997420e-01   4.73127770e-01  -4.49862210e-01
C     4.799869741300000e+00   2.745075917744961e+00   3.360282900000000e+00 -2.87445469e+00   1.40276270e-01   3.26077370e-01
C     5.947474894800000e+00   3.506320419196795e+00   3.446548500000000e+00  2.34010627e+00  -6.63766860e-01  -8.85733200e-02
C     7.192836623900000e+00   2.851609295614279e+00   3.576889200000000e+00  2.72288886e+00  -2.81014636e+00  -1.79407740e-01
C     8.503504978399999e+00   3.506033850005087e+00   3.547184400000000e+00 -2.36095682e+00  -1.29711880e-01   2.18785010e-01
C     9.714734246899999e+00   2.789728111346977e+00   3.626389200000000e+00  8.55129700e-02   1.89593020e-01   7.49828460e-01
C     1.093657238240000e+01   3.548477172376136e+00   3.554124600000000e+00  1.71089000e-02  -6.95760200e-02  -6.60055820e-01
C     3.555454621499999e+00   4.933182495366725e+00   3.355979400000000e+00  1.56675460e-01  -1.97304729e+00   6.49834650e-01
C     4.789646893300000e+00   5.601322323000404e+00   3.425598900000000e+00 -4.10661920e-01   1.01486603e+00  -2.00951000e-02
C     5.991881278199999e+00   4.899529657334312e+00   3.427887600000000e+00  4.35525180e-01   3.80824090e-01   2.44713700e-02
C     7.242302123999999e+00   5.581049602049521e+00   3.440063100000000e+00 -4.96752110e-01   9.35702830e-01  -1.88207010e-01
C     8.467293093100000e+00   4.912987564801316e+00   3.448967100000000e+00  1.99486087e+00  -3.20965020e-01  -8.79348200e-02
C     9.708735570800000e+00   5.642402392348322e+00   3.377827800000000e+00 -6.21338420e-01   1.17984868e+00  -2.09870990e-01
C     1.099315271060000e+01   4.989909959858824e+00   3.374751300000000e+00 -2.62971882e+00  -1.98415692e+00   6.19566030e-01
C     1.221341038670000e+01   5.661433541175412e+00   3.378746700000000e+00 -7.67510300e-02  -7.76536900e-01  -1.40815750e-01
C     4.790968724899999e+00   7.005690852373813e+00   3.564080700000000e+00 -8.22167160e-01   1.95970359e+00   9.64888200e-02
C     6.011820613899999e+00   7.753607068537730e+00   3.582892800000000e+00 -1.74637420e-01  -1.43351805e+00   3.66191300e-02
C     7.247795869499999e+00   6.992988391163975e+00   3.436687800000000e+00 -1.29349346e+00   2.99090958e+00   1.09129810e+00
C     8.416715385000000e+00   7.835022520129605e+00   3.495367200000000e+00  1.13586595e+00  -4.47262355e+00  -1.06548433e+00
C     9.636809335799999e+00   7.092444380977155e+00   3.329678400000000e+00  1.56300287e+00  -1.27200332e+00   5.28647630e-01
C     1.092008296210000e+01   7.721111864156090e+00   3.333897300000000e+00  2.04576980e-01   1.25127650e+00   1.06211211e+00
C     1.218716696140000e+01   7.045914288190378e+00   3.454023600000000e+00 -8.21028350e-01   9.77139660e-01  -3.32051750e-01
C     1.338929268910000e+01   7.749141166056691e+00   3.629718300000000e+00  1.23607633e+00  -3.01255200e-02  -5.29901060e-01
