32
Lattice="9.86 0 0 4.93 8.53901048131456 0 0 0 30 " PBC="1 1 1" Properties=species:S:1:pos:R:3:force:R:3 Energy="-256.82276686"
C     4.900719004500000e+00   8.343105512914171e+00   1.643976000000000e-01  8.95656330e-01   2.01262432e+00   1.46473490e-01
C     1.215251803400000e+00   5.432815624940703e-01   1.315086000000000e-01 -1.21898120e-01  -6.95725100e-01   1.77257720e-01
C     7.393166779500000e+00   8.398766881947843e+00   2.091936000000000e-01 -1.03621296e+00  -1.82439740e+00   2.71097570e-01
C     3.674987943800000e+00   5.451102769784673e-01   2.014959000000000e-01  1.18514405e+00   4.88527390e-01  -1.44612401e+00
C     9.857554473500000e+00   8.389619893921667e+00   8.780789999999999e-02 -5.14057700e-02   2.43779370e-01   2.85817450e-01
C     6.160409334900001e+00   5.779804293102840e-01   7.251930000000001e-02  1.41369480e-01  -1.23018802e+00   7.44413610e-01
C     1.232457690740000e+01   8.372881298628245e+00   1.264035000000000e-01 -5.46655870e-01   2.99616270e-01  -1.06048567e+00
C     8.614995400100000e+00   5.404608711622121e-01   1.946166000000000e-01  1.86502940e-01   4.63939890e-01  -5.43435890e-01
C     1.199525645700000e+00   1.935833723775151e+00  -3.414479999999998e-02  1.33765509e+00   9.39189450e-01   7.17553900e-02
C     2.459434424400000e+00   2.657646611852232e+00  -2.071268999999987e-01 -7.11628470e-01  -1.02490192e+00   7.73946250e-01
C     3.690566102900000e+00   1.947078746676263e+00  -4.124039999999951e-02  4.11403000e-02   8.62024990e-01   2.00862280e-01
C     4.932524012100000e+00   2.678643782452238e+00  -1.381140000000158e-02 -2.94552320e-01  -2.50926360e-01   4.53687690e-01
C     6.162562561700000e+00   1.984012187144988e+00   1.468431000000000e-01  8.26438900e-02   3.98567500e-02  -5.55617480e-01
C     7.401760804799999e+00   2.693205442413886e+00   1.761030000000000e-01 -6.35072000e-02  -8.99264240e-01   2.28981290e-01
C     8.644722412700000e+00   1.988861320416370e+00   1.502043000000000e-01 -1.80804687e+00  -1.90221314e+00   5.47840420e-01
C     9.844738051100000e+00   2.652821814760717e+00   5.471820000000000e-02  8.55637760e-01   1.48055375e+00  -1.08714302e+00
C     2.450190773000000e+00   4.062257307562854e+00  -3.060209999999977e-01  6.08034370e-01   1.75522633e+00   2.02599120e-01
C     3.702584456899999e+00   4.809894383474180e+00  -2.406062999999996e-01 -3.92478400e-01  -2.39318500e-01   5.74374780e-01
C     4.951078412199999e+00   4.101354020946583e+00  -1.382279999999980e-02 -2.11631820e+00  -3.85170950e-01  -8.27245880e-01
C     6.148409567000000e+00   4.777016546032931e+00   1.514448000000000e-01  1.08811595e+00   1.87326989e+00   8.87193340e-01
C     7.389216715600000e+00   4.083333976350429e+00   2.332794000000000e-01  3.29297440e-01   9.03838460e-01  -8.55377400e-01
C     8.636389973200000e+00   4.796613745864741e+00   9.784560000000000e-02 -1.30593223e+00   2.82122110e-01   3.32486780e-01
C     9.819991275200000e+00   4.081934432532757e+00  -1.042502999999968e-01  2.15494241e+00   4.01691200e-01   5.81058070e-01
C     1.108347662100000e+01   4.819274059535935e+00  -2.397176999999999e-01 -7.92353120e-01  -6.88679360e-01   3.37301060e-01
C     3.657544617800000e+00   6.245298885728302e+00  -1.623801000000000e-01  2.74038727e+00  -5.99896290e-01   8.31039420e-01
C     4.922798601100000e+00   6.967418495061825e+00   1.175151000000000e-01 -8.43624600e-01  -2.78117160e+00  -2.36717300e-01
C     6.147898128800000e+00   6.220671013262306e+00   2.872599000000000e-01 -3.21172530e-01   1.99619820e-01  -1.32313456e+00
C     7.383206256799999e+00   6.940563734052748e+00   2.779767000000000e-01  2.13912730e-01   1.79250300e-01  -7.91578700e-02
C     8.610720498499999e+00   6.213142765452822e+00   1.541712000000000e-01  1.23190654e+00   1.57022637e+00  -3.25451370e-01
C     9.873530631500000e+00   6.982448519748302e+00   9.334500000000001e-03 -1.43775115e+00  -1.57940404e+00   6.18909120e-01
C     1.108952932990000e+01   6.255535536881832e+00  -1.120145999999984e-01 -1.96045500e-02  -6.42822500e-01  -8.54868520e-01
C     1.233019656510000e+01   6.957481648566249e+00  -1.371699000000000e-01 -1.22920422e+00   7.48722750e-01   9.27664110e-01
