32
Lattice="9.86 0 0 4.93 8.53901048131456 0 0 0 30 " PBC="1 1 1" Properties=species:S:1:pos:R:3:force:R:3 Energy="-254.83588595"
C     4.939869810699999e+00   7.428222780010833e+00  -1.008836999999971e-01  2.47588602e+00   1.21519402e+00  -5.64323380e-01
C     6.231954530199999e+00   8.088272834505863e+00  -1.171389000000005e-01 -2.03585681e+00   1.86635907e+00   3.17425080e-01
C     7.457908476200000e+00   7.381962605345328e+00  -2.360430000000022e-01 -1.19316806e+00   2.00381283e+00  -1.37566540e-01
C     8.616221589699999e+00   8.160300839536445e+00  -3.595163999999968e-01  3.01922588e+00  -2.13280172e+00   1.62338363e+00
C     9.906014697300000e+00   7.504693888364473e+00  -2.907297000000000e-01 -1.79133667e+00  -4.37352897e+00  -1.13709557e+00
C     1.110292813320000e+01   8.114925989477507e+00  -3.013565999999983e-01  1.67219356e+00   3.64942510e+00  -8.55025620e-01
C     1.231064576270000e+01   7.411623797538761e+00  -3.626184000000023e-01  1.75430467e+00   8.68501470e-01   1.54201818e+00
C     1.358879963330000e+01   8.126082804400362e+00  -2.150250000000007e-01 -8.66752600e-01   1.09709635e+00  -5.15933130e-01
C     1.248526690500000e+00   1.004466943480801e+00  -6.895049999999969e-02  3.12317670e+00  -4.84535770e-01  -2.38654183e+00
C     2.515946422800000e+00   1.702778766914826e+00  -3.333791999999995e-01 -1.20217157e+00   1.65896547e+00   2.10119471e+00
C     3.738270409800000e+00   9.877274942863328e-01  -2.254131000000008e-01 -1.17263699e+00   2.75834498e+00  -1.91342446e+00
C     4.910878452700000e+00   1.768408662172953e+00  -3.958664999999968e-01  3.02708872e+00  -8.81118120e-01   2.42568840e-01
C     6.213198295900000e+00   1.019443001621044e+00  -3.889800000000001e-01 -1.12512676e+00   1.24257043e+00  -2.58016560e-01
C     7.442905598800000e+00   1.733603228505949e+00  -4.693176000000001e-01  8.66449920e-01   1.22919952e+00   1.06409087e+00
C     8.740687327700000e+00   1.045262578389630e+00  -2.947091999999998e-01 -3.99175683e+00  -1.80575377e+00  -6.33158160e-01
C     9.931341586300000e+00   1.730289494708975e+00  -2.693792999999971e-01 -7.41231660e-01   5.70147200e-01   1.34202796e+00
C     2.507797132800000e+00   3.177068983603715e+00  -3.251093999999988e-01 -1.01223477e+00  -2.53385510e-01   1.00346127e+00
C     3.729687674200000e+00   3.963097023682597e+00  -2.017607999999989e-01 -5.57532500e-02  -9.91117150e-01  -1.24330437e+00
C     4.952946980800000e+00   3.202722562008570e+00  -4.468662000000023e-01 -4.12339300e-01   3.76262130e-01   1.91016400e+00
C     6.221708708400000e+00   3.914283599493467e+00  -3.414596999999979e-01 -1.83379913e+00  -1.20745761e+00  -1.08407469e+00
C     7.431794709900000e+00   3.220981784288268e+00  -4.200000000000017e-01  7.73112240e-01  -1.70683689e+00   4.46190210e-01
C     8.675102206599998e+00   3.928072393616571e+00  -2.849778000000001e-01 -6.18193230e-01  -1.24862823e+00  -2.41402530e-01
C     9.851683484399999e+00   3.156273248260933e+00  -2.124635999999995e-01  9.55791570e-01   2.02552290e-01  -8.43092180e-01
C     1.104724225490000e+01   3.864611748580783e+00  -2.361728999999997e-01  3.95700501e+00  -1.44271875e+00   2.90152800e-02
C     3.741098800100000e+00   5.432331548436593e+00  -7.221750000000071e-02 -1.01202230e-01  -4.13575264e+00  -1.48923623e+00
C     5.009163967999999e+00   6.054955803118622e+00  -1.853835000000004e-01 -2.01127324e+00  -1.08120795e+00   7.27311020e-01
C     6.189160749799999e+00   5.308244099773014e+00  -2.854190999999986e-01  2.54796370e+00   9.31729830e-01   5.12824410e-01
C     7.481856197699999e+00   6.006602033863631e+00  -2.723814000000004e-01 -4.78309260e-01  -1.24441630e+00  -1.17356570e-01
C     8.755695480200000e+00   5.344004450981997e+00  -2.818851000000002e-01 -1.09281436e+00  -8.72337160e-01  -7.38277950e-01
C     1.002538020240000e+01   5.995160528331374e+00  -3.830105999999986e-01 -4.72794642e+00   3.04925703e+00   1.49398665e+00
C     1.115860262320000e+01   5.251670422859660e+00  -2.416982999999995e-01 -2.35704240e-01   7.25903580e-01  -4.26626930e-01
C     1.232208326410000e+01   6.016826474232174e+00  -2.166500999999990e-01  2.52740940e+00   4.16275250e-01   2.28794590e-01
