32
Lattice="9.676 0 0 4.838 8.37966180701823 0 0 0 30 " PBC="1 1 1" Properties=species:S:1:pos:R:3:force:R:3 Energy="-257.26816391"
C     9.676367692330047e-04  -2.256593624266252e-03   3.001996124609716e+00 -1.21424580e-01   2.16771360e-01  -1.11036100e-02
C     1.211710711941099e+00   6.959359622136257e-01   3.000328439677651e+00 -2.94709280e-01   9.35416200e-02   1.68882700e-02
C     2.416003130789849e+00   1.908438182707337e-03   2.998567199325251e+00  1.66604200e-01  -2.22051360e-01  -7.30391000e-03
C     3.625387349789787e+00   6.966019000497066e-01   2.998007096457802e+00  1.13623880e-01   1.83624610e-01   2.94218900e-02
C     4.834516824854352e+00   6.099280594451006e-04   3.002986490530518e+00  2.31434410e-01  -3.97182700e-02  -3.31274100e-02
C     6.049887871242476e+00   6.979156730270178e-01   2.999508062081817e+00 -2.73219710e-01  -1.89184100e-02   3.35523400e-02
C     7.259354570722856e+00   1.729707571195400e-03   2.999209839993530e+00 -1.07822920e-01  -1.09878460e-01   3.02001400e-02
C     8.464753300624865e+00   7.007624061442818e-01   3.001614518651158e+00  2.69720890e-01  -1.04027950e-01  -1.72110900e-02
C     1.206843152128273e+00   2.092197529256468e+00   3.003304611566580e+00  3.04530280e-01  -1.76995900e-02  -5.30018100e-02
C     2.418746284017644e+00   2.790307015421275e+00   2.998458751312671e+00 -5.10576600e-02   1.35143690e-01   2.64956000e-02
C     3.628800280683512e+00   2.095760173051349e+00   2.997933729567497e+00 -2.48303500e-02  -1.26443350e-01   6.54162000e-03
C     4.839516261627743e+00   2.792908323118961e+00   3.000418838642818e+00 -1.36047860e-01   8.31408000e-03  -1.31523700e-02
C     6.044593273732383e+00   2.094450943589868e+00   3.003119666286604e+00  2.46682310e-01  -7.20669500e-02  -3.76820600e-02
C     7.256063714252957e+00   2.790339346737232e+00   3.000898060455335e+00  3.50926300e-02   3.22275420e-01  -1.46065900e-02
C     8.467030832565838e+00   2.096363703000940e+00   2.999036332030889e+00  7.39800000e-03  -5.53936500e-02   2.66829600e-02
C     9.680530945362699e+00   2.790499169420550e+00   3.000027972719427e+00 -2.99960200e-01   2.04260500e-01   1.75137200e-02
C     2.418854982733517e+00   4.189299033321335e+00   2.999970176461485e+00 -1.65021030e-01  -8.10939400e-02  -4.03713300e-02
C     3.624754030038039e+00   4.887211805806797e+00   2.999107140202883e+00  3.28820370e-01  -1.13677560e-01  -7.80511000e-03
C     4.840910309195078e+00   4.187719152167563e+00   2.997003632545612e+00 -2.68641190e-01   1.74876930e-01   4.32340700e-02
C     6.045369011182625e+00   4.891528152209792e+00   3.000225599158556e+00  2.52905170e-01  -2.23821380e-01  -3.94502400e-02
C     7.260621239248260e+00   4.192998317691405e+00   2.998724929967953e+00 -3.58360870e-01  -2.42087640e-01   3.80730500e-02
C     8.465939180283865e+00   4.888385791072481e+00   3.002310071310203e+00  1.98253810e-01  -1.37129500e-02  -2.50514600e-02
C     9.678089506757296e+00   4.189474096787277e+00   3.000521277381308e+00 -1.43715350e-01  -8.73481700e-02  -1.76837000e-02
C     1.088269337118470e+01   4.888381022122310e+00   2.996020989303553e+00  2.11950950e-01   1.53861800e-02   5.83645100e-02
C     3.629038248059067e+00   6.281973428686247e+00   3.000484308900274e+00 -4.37339700e-02   1.70866250e-01   1.78793000e-03
C     4.838016891692667e+00   6.984830684595857e+00   3.000101961491194e+00 -3.71331000e-02  -1.99432230e-01  -5.73929000e-03
C     6.047502164105786e+00   6.285209287964147e+00   2.997642115716607e+00 -8.12073000e-02   9.49079200e-02   2.02394500e-02
C     7.254505201106681e+00   6.983762069348134e+00   2.998077379969836e+00  2.00847440e-01  -3.49553500e-02   1.59314900e-02
C     8.467546061185082e+00   6.284120452159750e+00   3.002304863381621e+00 -1.34360670e-01   1.09230770e-01  -9.19993000e-03
C     9.676759533104363e+00   6.982704321395589e+00   3.003711991838924e+00 -1.05348090e-01   7.75929400e-02  -1.57038400e-02
C     1.088455946449438e+01   6.285612395594415e+00   2.999915119845098e+00  1.25451220e-01  -5.07224000e-03   1.11492700e-02
C     1.209653800772744e+01   6.983423464732904e+00   3.002031196615883e+00 -4.67214300e-02  -3.93928100e-02  -2.78825600e-02
