32
Lattice="9.86 0 0 4.93 8.53901048131456 0 0 0 30 " PBC="1 1 1" Properties=species:S:1:pos:R:3:force:R:3 Energy="-253.67505024"
C     1.133388167400000e+00   9.258078844718703e-01   3.527700900000000e+00  1.69324588e+00   1.41943701e+00  -3.67950870e-01
C     2.430663585300000e+00   1.703272407110674e+00   3.664950900000000e+00 -1.65629075e+00  -1.42575086e+00  -9.94981460e-01
C     3.593975718800000e+00   9.701885375406224e-01   3.216348000000000e+00  1.22912720e-01   1.88565113e+00   1.31528102e+00
C     4.799360225799999e+00   1.759596317967488e+00   3.296877900000000e+00  2.10178935e+00  -3.96731153e+00  -1.54966482e+00
C     6.106446393000001e+00   1.045671170041098e+00   3.092760600000000e+00 -1.50987463e+00  -1.78636271e+00   1.22093819e+00
C     7.368115723999999e+00   1.684899957552011e+00   3.152698500000000e+00 -2.00596578e+00   1.64927381e+00   9.72232400e-02
C     8.580101402399999e+00   1.054483258076248e+00   3.183287700000000e+00  1.97894768e+00  -2.73861387e+00   2.07975911e+00
C     9.791114884800001e+00   1.702566145553873e+00   3.669919500000000e+00 -2.09356890e-01   2.95530310e-01  -2.82816579e+00
C     2.479304641500000e+00   3.139091307543391e+00   3.959703600000000e+00 -2.38095706e+00  -5.04649420e-01  -1.02147992e+00
C     3.702392039000000e+00   3.870815595864818e+00   3.838035600000000e+00 -1.49065206e+00  -2.61772170e-01  -1.12410472e+00
C     4.820483944700000e+00   3.111843325101711e+00   3.421416600000000e+00  1.91113687e+00   2.58800281e+00   4.59812770e-01
C     6.095761505400000e+00   3.801696233974038e+00   3.172125900000000e+00 -8.48546440e-01   9.36929540e-01   9.96855560e-01
C     7.346415096499999e+00   3.094919006330351e+00   3.233419800000000e+00  1.16178510e-01   2.18083322e+00  -1.00249304e+00
C     8.561758104899999e+00   3.880731180224299e+00   3.274526100000000e+00  6.81760570e-01  -2.95806270e-01   1.17667602e+00
C     9.825312372099999e+00   3.175034052016227e+00   3.643731000000000e+00 -1.39619645e+00  -6.15253850e-01  -2.11258000e-01
C     1.102995175890000e+01   3.868319557711409e+00   3.861386400000000e+00  1.50996980e+00   1.34608757e+00   7.44745300e-01
C     3.635692392800000e+00   5.292330799842486e+00   3.690491100000000e+00  1.63231491e+00  -4.82087520e-01   2.70161570e-01
C     4.846683098600000e+00   5.994409436969554e+00   3.352433400000000e+00 -2.45371300e-01  -2.37505572e+00  -5.15153550e-01
C     6.024611991900001e+00   5.242962596142471e+00   3.107814900000000e+00  3.12169208e+00   4.66824580e-01  -5.83073500e-02
C     7.347212819799999e+00   6.048515169073977e+00   2.908282800000000e+00 -2.08918622e+00  -5.65153169e+00   1.05809922e+00
C     8.554805325899999e+00   5.334223099867261e+00   3.148636500000000e+00  1.33352968e+00  -2.00916650e+00  -5.80538000e-02
C     9.847431260800001e+00   5.999194869222755e+00   3.293716800000000e+00 -1.44237928e+00   1.61404880e-01   1.61624900e-01
C     1.103721424050000e+01   5.380998945375653e+00   3.828154800000000e+00 -1.04541527e+00  -3.46263955e+00  -1.77136641e+00
C     1.229534718390000e+01   5.999678262606029e+00   3.741522900000000e+00 -7.60267560e-01   1.49903311e+00  -5.26109460e-01
C     4.879313043100000e+00   7.365931210899862e+00   3.187951800000000e+00 -1.96773546e+00   1.55569418e+00   1.14503380e-01
C     6.067846810099999e+00   8.047810135615650e+00   3.057868200000000e+00  8.85081610e-01   3.30749694e+00   1.71877644e+00
C     7.296360412099999e+00   7.380314149372164e+00   2.912849400000000e+00  6.51735660e-01   3.56926761e+00  -2.75599780e-01
C     8.507857231699999e+00   8.133299634497638e+00   2.907356100000000e+00  1.85250996e+00  -1.21685015e+00   5.80055260e-01
C     9.801868003599999e+00   7.381206219797010e+00   2.977280100000000e+00 -2.28027330e-01   1.82581303e+00   1.85621708e+00
C     1.100693758220000e+01   8.119200618123795e+00   3.249882300000000e+00  1.10640573e+00   6.30326010e-01  -1.53147158e+00
C     1.229119282080000e+01   7.390824390421471e+00   3.415488000000000e+00 -5.77654040e-01   1.98937125e+00  -3.85655600e-01
C     1.352291304270000e+01   8.134315776744758e+00   3.231544800000000e+00 -8.45334520e-01  -5.14125160e-01   3.71087090e-01
