32
Lattice="9.86 0 0 4.93 8.53901048131456 0 0 0 30 " PBC="1 1 1" Properties=species:S:1:pos:R:3:force:R:3 Energy="-252.08322493"
C     4.921309543900001e+00   8.342084076480555e+00  -1.014454799999999e+00  2.23872339e+00   1.25662816e+00   1.19292280e-01
C     1.315336620800000e+00   5.123129624060448e-01  -9.195878999999998e-01 -2.57311631e+00   1.02140390e-01  -1.26521766e+00
C     7.472010346799999e+00   8.351480147442432e+00  -9.418923000000028e-01 -2.48648508e+00  -1.66991988e+00  -6.07247070e-01
C     3.690327737400000e+00   5.420037849658432e-01  -8.587209000000016e-01  2.03514690e+00  -3.00918126e+00   1.00584919e+00
C     9.822010504600000e+00   8.362168768420668e+00  -6.677031000000007e-01  3.83004057e+00  -1.75886722e+00  -9.83279140e-01
C     6.150936192000000e+00   5.075329951195504e-01  -7.762230000000017e-01 -1.11095970e-01   3.33095950e-01   1.43328850e-01
C     1.236159469980000e+01   8.300244718320755e+00  -6.762326999999999e-01 -2.15413665e+00   3.19027677e+00  -8.65239270e-01
C     8.604262395699999e+00   4.901092296252152e-01  -1.017634500000000e+00  1.97417904e+00   1.30368164e+00   1.33347518e+00
C     1.280952927400000e+00   1.922818307831221e+00  -7.936037999999996e-01  2.10444529e+00  -1.47710530e-01   3.23598580e+00
C     2.556160186300000e+00   2.576305620431743e+00  -2.397795000000009e-01 -3.65054541e+00   1.28167538e+00  -3.03029929e+00
C     3.697935812000000e+00   1.846857319963656e+00  -5.531226000000018e-01  2.50753540e+00   6.19121008e+00   2.02823790e-01
C     4.976619854799999e+00   2.694272477163467e+00  -7.272797999999980e-01 -1.56604007e+00  -3.33579193e+00   1.24929695e+00
C     6.134244099400000e+00   1.955664294763379e+00  -9.552551999999999e-01  3.70858210e+00  -9.55779420e-01   4.15942910e-01
C     7.478808126599999e+00   2.668810172593365e+00  -9.942644999999999e-01 -3.01992457e+00   2.13339220e-01   7.74443590e-01
C     8.718960817699999e+00   2.001367384385169e+00  -9.396015000000020e-01 -4.85366216e+00  -5.02850447e+00  -1.42492236e+00
C     9.890644041900000e+00   2.588404373600646e+00  -7.272324000000019e-01  2.89087019e+00   1.60074129e+00   8.27274980e-01
C     2.492309735000000e+00   4.076374512029020e+00  -1.169124000000004e-01  4.77113520e-01  -1.86213965e+00  -2.24837040e-01
C     3.698603038200000e+00   4.772476695721135e+00  -2.827475999999969e-01  3.19763333e+00   2.41457899e+00   9.02209420e-01
C     5.038368992200000e+00   4.052808380126105e+00  -4.788710999999992e-01 -5.11058165e+00   1.63181019e+00  -9.47900680e-01
C     6.152291892699999e+00   4.776850120718676e+00  -8.387615999999980e-01  2.09393036e+00   1.40030923e+00   2.10203730e-01
C     7.385229676699999e+00   4.092308732535223e+00  -8.929194000000003e-01  1.59534181e+00  -9.76222800e-01  -6.35290530e-01
C     8.646025806099999e+00   4.763242524397957e+00  -7.954158000000007e-01  1.49123111e+00  -9.71836240e-01   1.43851583e+00
C     9.822562171599998e+00   3.939958525424522e+00  -3.856454999999990e-01  1.08867176e+00   4.60972765e+00  -1.49910849e+00
C     1.106901569850000e+01   4.752033365340862e+00  -1.381541999999989e-01 -3.03441040e-01  -2.81604490e+00  -7.62924980e-01
C     3.817733185100000e+00   6.360045169267390e+00  -2.605293000000017e-01 -9.74754870e-01  -4.54607972e+00  -2.24892331e+00
C     5.010515626099999e+00   6.952521166598207e+00  -8.629275000000014e-01 -1.56310387e+00  -9.32876190e-01   1.80652386e+00
C     6.221233900100000e+00   6.198378303992275e+00  -9.824862000000003e-01  5.90617910e-01   9.51335040e-01   3.67295160e-01
C     7.494953284999999e+00   6.927824384317637e+00  -1.064191800000000e+00  2.87204470e-01  -1.61471079e+00   8.88883170e-01
C     8.787806887300000e+00   6.173907720099320e+00  -8.602715999999972e-01 -3.40862488e+00   3.66878060e-01  -8.87510900e-02
C     9.977080696600000e+00   6.865758415863547e+00  -5.938583999999985e-01 -2.86252339e+00   2.19527305e+00  -4.08081450e-01
C     1.109879748340000e+01   6.121990280210605e+00  -2.767554000000025e-01  2.88082550e+00   3.49848213e+00   4.41228560e-01
C     1.239354243090000e+01   6.985308234358054e+00  -2.703452999999989e-01 -3.54056760e-01  -2.91551821e+00  -3.70550900e-01
