26
Lattice="8.88768389401873 1.33226762955019e-15 0 4.44384194700937 7.69696003302603 0 0 0 30 " PBC="1 1 1" Properties=species:S:1:pos:R:3:force:R:3 Energy="-206.52243177"
C     1.281690503437198e+01   6.885151495648659e+00  -3.524205000000009e-01 -1.29372774e+00   4.46556000e+00   7.38241310e-01
C     8.975763597032969e+00   6.928903171607988e+00  -3.944150999999998e-01  9.40016440e-01  -7.33027015e+00  -4.43812910e-01
C     1.030701972621382e+01   6.419820693412567e+00  -5.853339000000020e-01  3.55908270e+00   1.73076771e+00   8.34803700e-01
C     1.077752651143724e+01   5.050957761722028e+00  -4.782326999999995e-01 -9.28354460e-01  -7.84976730e-01  -4.22682620e-01
C     6.587723724358948e+00   6.193716488902493e+00  -1.102148999999990e-01  2.39928866e+00  -8.50626320e-01  -7.24302420e-01
C     7.998561819433515e+00   5.871114803769907e+00  -3.240894000000019e-01 -1.88579480e+00   5.94534790e-01   6.52775190e-01
C     8.337441384110010e+00   4.505083891552808e+00  -3.687719999999999e-01  1.38295703e+00  -2.45840070e-01  -8.26731820e-01
C     9.723215499560848e+00   4.122112177999320e+00  -3.720210000000002e-01 -5.04683300e-01  -2.67807913e+00   2.81748610e-01
C     1.001055116364319e+01   2.654192680415495e+00  -2.006799000000008e-01  2.51708196e+00   3.99653750e+00  -5.40543490e-01
C     4.285584649686167e+00   5.538281395730242e+00  -2.822988000000031e-01 -4.05700480e-01  -9.12415400e-01  -1.01383657e+00
C     5.642419088784534e+00   5.131249677849377e+00  -2.218308000000029e-01  1.41577180e-01   3.09793696e+00   8.15423800e-02
C     6.023140669406148e+00   3.808825507834241e+00  -4.011494999999989e-01 -4.82763900e-01   1.15372696e+00  -1.47319620e-01
C     7.362736423564384e+00   3.475946379851997e+00  -5.059809000000008e-01  1.66245245e+00  -6.45589810e-01   1.49636496e+00
C     7.728625259629816e+00   2.099146881765724e+00  -4.124808000000009e-01 -1.13715271e+00  -8.60624400e-02  -2.47237100e-02
C     9.084822362901113e+00   1.668532909866545e+00  -1.950639000000010e-01 -3.30549195e+00  -1.40720370e+00  -2.97317150e-01
C     3.287488505001893e+00   4.543790748999673e+00  -4.832181000000020e-01 -2.27309785e+00   2.24882399e+00   5.16332800e-01
C     3.587198891371013e+00   3.169698194786351e+00  -4.254978000000023e-01 -2.20232700e-02   2.28675416e+00   9.27987480e-01
C     5.001910328000208e+00   2.906403126076921e+00  -3.732851999999980e-01 -3.12683001e+00  -5.41284672e+00   4.70351330e-01
C     5.256443861649494e+00   1.449438095946992e+00  -2.611778999999999e-01  1.28759168e+00   3.37134649e+00  -1.35446033e+00
C     6.640533583318771e+00   1.173102375737134e+00  -4.393746000000007e-01  7.18224890e-01  -4.36081576e+00   1.73295840e-01
C     1.139537852189196e+01   7.388636513601465e+00  -5.491428000000020e-01  1.17882466e+00   2.07447390e-01   9.53830910e-01
C     2.483021218267145e+00   2.295014887281148e+00  -1.833456000000027e-01  1.79089465e+00  -2.56548605e+00  -7.32784000e-02
C     2.815269770840552e+00   8.834252068288757e-01  -4.503060000000048e-02  1.55038815e+00   8.50198200e-01  -6.23722540e-01
C     4.210623476365082e+00   4.894542295141177e-01  -2.191173000000006e-01 -1.24110529e+00   4.85557999e+00   6.02948310e-01
C     5.007757046336200e-01   2.794605320428373e-01  -6.847439999999949e-02 -2.03902257e+00  -1.67380460e+00  -1.27457973e+00
C     6.281045793768312e+00   7.571610956522634e+00  -2.099400000002305e-03 -4.82632130e-01   9.48027500e-02   3.70884800e-02
