26
Lattice="8.88768389401873 1.33226762955019e-15 0 4.44384194700937 7.69696003302603 0 0 0 30 " PBC="1 1 1" Properties=species:S:1:pos:R:3:force:R:3 Energy="-209.0446068"
C     1.052212496551910e+00   1.170838853731512e+00   3.578014200000000e+00 -2.09483520e-01  -2.88529480e-01   6.30592370e-01
C     3.440812647951649e+00   5.718201684911506e-01   3.472660500000000e+00 -6.90903360e-01  -5.00241000e-03   3.80607110e-01
C     4.801038138917744e+00   9.620681262393977e-01   3.477720600000000e+00 -1.29258500e-01  -2.37962700e-01  -3.81547860e-01
C     1.025551773191876e+01   7.656507578987930e+00   3.530285400000000e+00  6.08700130e-01   1.61333640e-01   1.99812390e-01
C     7.192512833914715e+00   3.579542073983776e-01   3.553796100000000e+00 -1.18464010e-01  -5.85387810e-01   1.28249350e-01
C     1.268051992568740e+01   7.069031178038958e+00   3.546184800000000e+00 -8.01564890e-01   2.42261100e-02   7.19289480e-01
C     5.155356726596309e+00   7.484889923621426e+00   3.606444300000000e+00 -9.28736910e-01   7.42763700e-02  -2.60887290e-01
C     6.141026776961992e+00   6.509135447904684e+00   3.684789000000000e+00  1.71722792e+00  -1.50520766e+00  -6.24191000e-01
C     7.533625967562308e+00   6.893166186188698e+00   3.598132200000000e+00 -3.32982470e-01  -6.50195920e-01   3.08642560e-01
C     8.551506450780714e+00   5.867414028417882e+00   3.669701400000000e+00  1.01954610e-01   1.64122007e+00   1.57098060e-01
C     9.929060792303909e+00   6.281881240596529e+00   3.646750200000000e+00 -1.99332280e-01  -7.19276680e-01  -2.13135500e-01
C     1.096667388906063e+01   5.274691841330064e+00   3.677175300000000e+00 -3.60149950e-01   1.54883728e+00  -2.50785100e-01
C     3.434655308309603e+00   5.680334180955913e+00   3.606830100000000e+00  7.14560550e-01   3.99727870e-01  -4.88019590e-01
C     4.473536366500350e+00   4.691401893911008e+00   3.546894300000000e+00 -9.63701940e-01   6.07898500e-01   7.96080220e-01
C     5.813163361341317e+00   5.087977907347920e+00   3.676635600000000e+00  7.64460800e-01   1.03898151e+00   8.80559100e-02
C     6.839520739723484e+00   4.097873450260046e+00   3.770619900000000e+00 -1.11443610e-01   7.95997010e-01  -1.00886199e+00
C     8.207554149880385e+00   4.513681164997516e+00   3.779253300000000e+00  4.23333850e-01  -1.13780289e+00  -2.74362800e-02
C     9.257470645212853e+00   3.526722455473904e+00   3.746454300000000e+00 -7.17632790e-01  -4.63477780e-01   3.27388140e-01
C     1.062655822353878e+01   3.916105890671581e+00   3.677668200000000e+00 -8.44856890e-01  -2.21533630e-01  -5.28033000e-01
C     2.741959045038191e+00   2.947125586446842e+00   3.468191400000000e+00  1.47178870e-01  -2.73765700e-01   1.14505433e+00
C     4.101864401627592e+00   3.332793083281237e+00   3.518322900000000e+00  3.40431580e-01  -4.43894870e-01  -9.16310780e-01
C     5.117617484416368e+00   2.345064754724224e+00   3.445186200000000e+00  6.59125040e-01   4.54924600e-02   7.20461450e-01
C     6.478980998874396e+00   2.747994454726701e+00   3.580740300000000e+00  1.01603814e+00  -1.45179814e+00   8.18101680e-01
C     7.519131484929362e+00   1.719362479360660e+00   3.668947800000000e+00  3.14495780e-01   1.54101458e+00  -3.94897460e-01
C     8.915179141331237e+00   2.124663997596381e+00   3.755907300000000e+00 -9.89602400e-01   9.26856490e-01  -1.06373286e+00
C     2.403236479519734e+00   1.576302777823865e+00   3.495820800000000e+00  5.90606240e-01  -8.22026230e-01  -2.61594320e-01
