32
Lattice="9.86 0 0 4.93 8.53901048131456 0 0 0 30 " PBC="1 1 1" Properties=species:S:1:pos:R:3:force:R:3 Energy="-256.20360806"
C     1.222076402400000e+00   2.571867982075392e-01   3.146969400000000e+00  6.77419370e-01  -1.57030703e+00   8.84974360e-01
C     2.505040671200000e+00   8.851056663376928e-01   3.328954500000000e+00 -7.60540590e-01   1.63789079e+00  -1.08457080e+00
C     3.741799254500000e+00   1.839076573614280e-01   3.231714600000000e+00 -2.11780590e-01   2.02358091e+00   1.01331576e+00
C     4.951841132500000e+00   9.979277692552169e-01   3.401257500000000e+00 -1.16764750e-01  -3.53076266e+00  -1.28680319e+00
C     6.177252581299999e+00   2.778354063997512e-01   3.347304000000000e+00 -4.59734990e-01  -2.79961458e+00   9.23961230e-01
C     7.409279843600000e+00   9.239417691215712e-01   3.255008100000000e+00 -1.16852610e-01   2.74414370e-01   5.34938320e-01
C     8.625489545999999e+00   1.734317431342496e-01   3.214585800000000e+00 -5.94723620e-01   9.55551410e-01   5.55776000e-02
C     9.812849874399999e+00   9.330901233894240e-01   3.182742600000000e+00  2.46908546e+00  -9.28582420e-01   5.60862160e-01
C     2.513322578199999e+00   2.342196608117766e+00   3.452609100000000e+00 -7.24050020e-01  -1.19321680e+00  -8.82719800e-02
C     3.708332146700000e+00   3.082569547813756e+00   3.443720700000000e+00  7.54547790e-01  -4.85049430e-01   8.08345540e-01
C     4.973929208700000e+00   2.364426299490455e+00   3.351131100000000e+00 -2.32298770e+00   1.95060114e+00   3.27423480e-01
C     6.162662098400000e+00   3.077440932729363e+00   3.302023200000000e+00  2.01796163e+00   4.01844370e-01   1.41081280e-01
C     7.384906663100000e+00   2.343210274051847e+00   3.325123800000000e+00  2.13178735e+00   4.49648650e-01  -9.12529290e-01
C     8.681949976600000e+00   3.032574409964299e+00   3.327767700000000e+00 -2.73562775e+00   1.54252265e+00   1.07590663e+00
C     9.903147162800000e+00   2.326216703905494e+00   3.396177600000000e+00 -1.68628508e+00   3.66781340e-01  -8.38293930e-01
C     1.111677329870000e+01   3.023119590610319e+00   3.510183300000000e+00  1.30877028e+00   2.55484500e-02   7.30469300e-02
C     3.693280511600000e+00   4.489790021297381e+00   3.636912300000000e+00  9.32563950e-01  -4.30336560e-01  -1.72742677e+00
C     4.955971831599999e+00   5.159302580255823e+00   3.390880500000000e+00 -8.82147640e-01   2.18413935e+00   5.62403600e-02
C     6.192118749800000e+00   4.512439405035161e+00   3.254567700000000e+00 -7.11685410e-01  -1.17876522e+00   7.43462330e-01
C     7.406100437299999e+00   5.247352330650029e+00   3.271723500000000e+00  1.16271750e-01  -2.67654402e+00   5.10577980e-01
C     8.607703190599999e+00   4.495449335883106e+00   3.437525700000000e+00  1.41883762e+00  -1.81514782e+00  -1.21591261e+00
C     9.867762334300000e+00   5.126360358675556e+00   3.482329200000000e+00  2.46876390e-01   2.16978503e+00   5.28265100e-01
C     1.112975591140000e+01   4.440379549495489e+00   3.589888200000000e+00 -2.18976246e+00  -1.40400480e-01  -1.52004700e-02
C     1.230306258460000e+01   5.176212553489577e+00   3.647552100000000e+00  2.07133609e+00   9.35749150e-01  -6.24745540e-01
C     4.956930322200000e+00   6.609479997590871e+00   3.265081500000000e+00 -4.95383010e-01  -4.37119740e-01   4.85968740e-01
C     6.177611288100000e+00   7.354002725599931e+00   3.189492900000000e+00 -3.45871640e-01  -4.52655900e-01  -2.03938680e-01
C     7.415545282000000e+00   6.612597931877538e+00   3.255422700000000e+00 -2.20638320e-01   2.91856575e+00  -1.10718003e+00
C     8.659519561200000e+00   7.327468348264064e+00   3.166343100000000e+00  7.01836730e-01  -1.57927246e+00   1.94572771e+00
C     9.869868528900000e+00   6.579267697661058e+00   3.456311700000000e+00  8.21580050e-01   7.68056440e-01  -7.08430890e-01
C     1.111730209050000e+01   7.337510309978649e+00   3.537908400000000e+00 -7.50819360e-01   3.64121310e-01  -1.72378175e+00
C     1.235691706650000e+01   6.606071993118197e+00   3.455556900000000e+00 -2.41648188e+00  -3.83407890e-01   1.32424971e+00
C     1.354867081370000e+01   7.292921817394814e+00   3.317128800000000e+00  2.07326297e+00   6.32381900e-01  -4.56839300e-01
