32
Lattice="9.824 0 0 4.912 8.50783356677833 0 0 0 30 " PBC="1 1 1" Properties=species:S:1:pos:R:3:force:R:3 Energy="-257.91268542"
C     9.934832429619875e-03   8.727103636461255e-03   2.989594013338785e+00 -8.25757080e-01  -3.03543980e-01   1.36894070e-01
C     1.240071111258592e+00   7.012131154990987e-01   3.001778054872150e+00 -6.77340860e-01   9.46397110e-01   3.31898000e-03
C     2.457597189731842e+00   8.661307235040635e-03   3.006044969242240e+00  2.59843850e-01  -8.07232500e-01   4.17425300e-02
C     3.689547609312986e+00   7.021495235814216e-01   3.008464391634314e+00 -4.80488740e-01   5.04954380e-01  -3.47778400e-02
C     4.902239957484443e+00   2.317627127223633e-03   3.002870040735805e+00  1.03478518e+00  -5.16863500e-01  -7.18829600e-02
C     6.147765122835212e+00   7.043924515701458e-01   3.000098435475381e+00 -7.08939840e-01   1.68891590e-01   1.15573980e-01
C     7.369452041385764e+00  -1.105065813243634e-02   3.015046806425588e+00 -2.95142180e-01   4.04085930e-01  -2.08840210e-01
C     8.582564000267533e+00   7.153700631875627e-01   3.009544848376987e+00  1.16244293e+00  -6.77601800e-01  -7.14745200e-02
C     1.223881740886142e+00   2.133018747695066e+00   3.011753152341565e+00  7.77546000e-02  -4.08326590e-01  -1.63281250e-01
C     2.448070709554671e+00   2.833208474635937e+00   2.996607339319233e+00  3.69067650e-01   1.81676400e-01   1.55125590e-01
C     3.674476389678496e+00   2.115446197997918e+00   3.003997970750484e+00  8.22077410e-01   7.03661640e-01  -5.73602000e-02
C     4.924918923979171e+00   2.839778004412409e+00   2.995586951824895e+00 -1.54899801e+00  -1.36248320e-01   4.11969100e-02
C     6.134000685385718e+00   2.133930717930921e+00   2.999953381852463e+00  6.20588000e-01  -5.35716920e-01  -4.94476400e-02
C     7.358673675258937e+00   2.845752560533848e+00   2.995713859444711e+00  6.54295350e-01  -6.88043590e-01   1.23162080e-01
C     8.605179288238961e+00   2.113944482941247e+00   3.006426858167779e+00 -9.44929110e-01   1.32975025e+00  -4.73536600e-02
C     9.825669159531657e+00   2.846052616345669e+00   3.001667779711790e+00 -1.09594150e-01  -8.36658820e-01   1.06996540e-01
C     2.452897969247227e+00   4.253984271660095e+00   3.000622796188820e+00  2.43686000e-01   2.77577490e-01  -2.93704500e-02
C     3.693638627129531e+00   4.975046629390412e+00   3.000677496319092e+00 -1.03797068e+00  -8.88628410e-01  -4.84353300e-02
C     4.900522412860614e+00   4.261757958668190e+00   2.995058475119992e+00  8.72853530e-01  -3.18566350e-01  -3.40317300e-02
C     6.130846631324303e+00   4.971168176946197e+00   2.990256916246180e+00  1.17760600e-02  -1.78019200e-02   1.94912470e-01
C     7.356152788551851e+00   4.253254312188892e+00   3.003561217629207e+00  4.55361410e-01   4.45806920e-01  -1.60978980e-01
C     8.603049849758172e+00   4.957943170405338e+00   2.996425735304808e+00 -7.74286330e-01   1.20281250e-01   1.81875740e-01
C     9.822445547027828e+00   4.253364001683762e+00   3.005994027338849e+00  8.96420600e-02   2.13505220e-01  -1.36217620e-01
C     1.104775890689114e+01   4.967464968132143e+00   2.997814226873837e+00  2.83758340e-01  -5.53981610e-01   5.35128300e-02
C     3.688844441723992e+00   6.372881701576457e+00   2.995260017637822e+00 -6.48810690e-01   8.70510380e-01  -5.11947100e-02
C     4.900540088671310e+00   7.093537410091967e+00   2.988930849213743e+00  3.78441110e-01   3.91915900e-01   1.13157760e-01
C     6.124984925636418e+00   6.392911112235433e+00   3.010110474889510e+00  5.42609870e-01  -2.96453610e-01  -1.79156860e-01
C     7.361107802296337e+00   7.095752809883785e+00   3.013732151171077e+00  1.88779280e-01  -1.78102010e-01  -2.16514200e-02
C     8.597933957215499e+00   6.376074260238150e+00   3.011216473855689e+00 -4.79985580e-01   8.08118300e-02  -1.62741990e-01
C     9.819348236896557e+00   7.081920953316811e+00   2.989109176455079e+00  9.63367100e-02   4.47950040e-01   2.15991370e-01
C     1.104813950259286e+01   6.373838122401194e+00   2.995972854611416e+00  1.56163800e-02   5.14110920e-01  -1.00844280e-01
C     1.227406773872015e+01   7.086949184328890e+00   2.991555660764380e+00  3.52527540e-01  -4.38117320e-01   1.45580780e-01
