32
Lattice="9.86 0 0 4.93 8.53901048131456 0 0 0 30 " PBC="1 1 1" Properties=species:S:1:pos:R:3:force:R:3 Energy="-257.09761736"
C     1.201482461300000e+00   3.435377978568536e-01   3.377823900000000e+00 -8.21054530e-01   3.60163830e-01  -1.88595600e-02
C     2.431136963900000e+00   1.031562248415098e+00   3.452902800000000e+00 -3.17770010e-01   2.95351960e-01   2.73716780e-01
C     3.636287049400000e+00   3.207129374537088e-01   3.464091000000000e+00  1.39958112e+00  -4.25589560e-01   5.40403300e-01
C     4.871298440700000e+00   1.065236690144026e+00   3.467868900000000e+00  5.27597380e-01  -1.73971554e+00   3.32676300e-02
C     6.107401827000000e+00   3.422652291250192e-01   3.479962500000000e+00  1.54124010e-01  -9.60129520e-01   7.36079430e-01
C     7.355831149999999e+00   1.038835009031019e+00   3.517473600000000e+00  2.92419660e-01  -1.31021994e+00  -6.83905110e-01
C     8.583995905200000e+00   3.048459189599824e-01   3.385066800000000e+00  7.16667280e-01   9.86212790e-01   1.21129831e+00
C     9.838045822599998e+00   1.084523838505307e+00   3.418657500000000e+00 -9.45580920e-01  -3.00416968e+00  -4.68551940e-01
C     2.433807643500000e+00   2.454023062413322e+00   3.612338100000000e+00  2.40428000e-03  -1.85723760e-01  -1.46005320e-01
C     3.646222034700000e+00   3.164189508706627e+00   3.697651500000000e+00  1.75183399e+00   5.32257160e-01  -1.39959805e+00
C     4.926513356100000e+00   2.465237344876706e+00   3.505338000000000e+00 -2.49221176e+00   1.13809700e-01   7.29087400e-01
C     6.134922812499999e+00   3.141010535538876e+00   3.507441000000000e+00  1.05525397e+00   1.46852939e+00   3.91482550e-01
C     7.392312361199999e+00   2.434639764794037e+00   3.555467100000000e+00 -1.10587680e+00   1.18696110e+00  -6.85867720e-01
C     8.606614400100000e+00   3.159920857367674e+00   3.530234700000000e+00 -1.58487730e-01   5.90988010e-01   2.52722990e-01
C     9.837405514199999e+00   2.463119584887562e+00   3.499242000000000e+00  8.22237700e-02   1.11952332e+00   2.57906750e-01
C     1.107316537810000e+01   3.165666074398828e+00   3.613370700000000e+00 -3.39338980e-01   7.46754010e-01   2.83972630e-01
C     3.676096651500000e+00   4.599075266074089e+00   3.649593900000000e+00 -7.75992680e-01  -7.68652720e-01   9.02386830e-01
C     4.916030401300000e+00   5.271756993382079e+00   3.555562800000000e+00 -1.41481507e+00   1.98941506e+00  -3.55477890e-01
C     6.099240606400000e+00   4.597238610309946e+00   3.512576400000000e+00  2.38762891e+00  -2.29550422e+00  -1.68719050e-01
C     7.340246483300000e+00   5.289703260927685e+00   3.480745800000000e+00  4.09456300e-02   9.76438870e-01   1.97793860e-01
C     8.582637394399999e+00   4.593323303224656e+00   3.557547300000000e+00 -2.56696840e-01  -4.41213030e-01  -1.85409110e-01
C     9.801571365499999e+00   5.302486671956874e+00   3.621630300000000e+00  1.40557728e+00  -4.52065000e-03   2.23745310e-01
C     1.105758406380000e+01   4.595070726329283e+00   3.739680000000000e+00  1.53436720e-01   2.33922700e-02  -6.15161560e-01
C     1.231177019710000e+01   5.324117180964182e+00   3.762702600000000e+00 -8.34974500e-01  -9.85521260e-01  -3.81288290e-01
C     4.919690531900000e+00   6.707124350940614e+00   3.439957200000000e+00 -1.72971336e+00   4.14901660e-01   1.87731950e-01
C     6.094506278100000e+00   7.470684375864310e+00   3.330010800000000e+00  1.78081118e+00  -1.30021332e+00   7.50269240e-01
C     7.345136550299999e+00   6.729838289597623e+00   3.442456200000000e+00  2.25305080e-01  -1.92577720e-01   1.97068580e-01
C     8.603060313800000e+00   7.411982862929445e+00   3.574822200000000e+00 -1.01573726e+00   1.44976318e+00  -1.50313394e+00
C     9.845893445900000e+00   6.731455578182535e+00   3.570558000000000e+00 -1.15274561e+00  -9.77445330e-01   7.71431210e-01
C     1.105743813580000e+01   7.425400380876878e+00   3.616978500000000e+00  4.65713140e-01   1.74060148e+00  -4.78224860e-01
C     1.229773108540000e+01   6.732856744412199e+00   3.695286900000000e+00 -2.66248630e-01   3.71815900e-02  -4.84358630e-01
C     1.351606458250000e+01   7.418563622136066e+00   3.512272800000000e+00  1.18572129e+00   5.58950890e-01  -3.65803720e-01
