26
Lattice="8.88768389401873 1.33226762955019e-15 0 4.44384194700937 7.69696003302603 0 0 0 30 " PBC="1 1 1" Properties=species:S:1:pos:R:3:force:R:3 Energy="-209.1026136"
C     6.656288651609295e-01   7.906369682144203e-01   3.453450000000000e+00  1.26036501e+00  -5.93705230e-01   5.95077900e-02
C     3.111161386519535e+00   1.972527655944208e-01   3.391259100000000e+00 -1.06634331e+00  -2.57036310e-01   1.71414940e-01
C     4.466581306809290e+00   5.920931915141677e-01   3.520245900000000e+00  2.75829280e-01   7.80740540e-01  -2.34146950e-01
C     9.936831161691607e+00   7.325480878376107e+00   3.717010500000000e+00 -2.11757990e-01  -1.87434210e-01  -4.60554090e-01
C     6.858025117118248e+00   8.767915048574200e-03   3.727612200000000e+00 -3.43984970e-01   5.11827080e-01  -3.50820290e-01
C     1.230044172340950e+01   6.708773193534000e+00   3.648717600000000e+00  8.40607410e-01  -2.75947220e-01   3.13028370e-01
C     4.786518600357521e+00   7.089392023375917e+00   3.505654500000000e+00 -6.08980600e-01   9.76671280e-01   1.95465540e-01
C     5.815069325828377e+00   6.129914462973816e+00   3.499405800000000e+00 -1.76329690e-01  -8.14900340e-01  -1.60656190e-01
C     7.183890451385461e+00   6.510332940946151e+00   3.473112300000000e+00  6.47157180e-01   4.62755350e-01   5.29275500e-02
C     8.224427685047027e+00   5.546551009586474e+00   3.572337600000000e+00  1.12763310e-01   3.49683200e-01   5.86382090e-01
C     9.601127964580430e+00   5.951192667438822e+00   3.707714100000000e+00 -8.09408200e-01  -8.71974290e-01  -2.95571330e-01
C     1.060608797735340e+01   4.940305494634745e+00   3.705564300000000e+00  1.38677120e-01  -2.51480270e-01  -4.15741590e-01
C     3.080735203938292e+00   5.315149449305353e+00   3.687251700000000e+00 -2.77371330e-01   1.00274598e+00  -5.16885910e-01
C     4.087783689138158e+00   4.347365637517277e+00   3.537770400000000e+00  7.68636420e-01  -5.33344710e-01   2.71299010e-01
C     5.455068356349022e+00   4.737425558531991e+00   3.537380100000000e+00  7.72673180e-01   8.36128700e-01   2.65510530e-01
C     6.519722631332188e+00   3.800040736443201e+00   3.621322200000000e+00 -1.16690597e+00  -1.34230732e+00  -6.66160340e-01
C     7.870114833271531e+00   4.176011372123000e+00   3.641261400000000e+00  1.04627572e+00   3.99395700e-02  -3.64814610e-01
C     8.902463132739429e+00   3.195142805253524e+00   3.582541200000000e+00  1.17479900e-02  -1.56004979e+00   3.05966970e-01
C     1.028706385220480e+01   3.551243738615879e+00   3.535968600000000e+00 -1.28753396e+00   8.47554940e-01   2.57896670e-01
C     2.399509163297981e+00   2.573883754006479e+00   3.382840500000000e+00  1.82350550e-01  -1.24605834e+00   3.39176260e-01
C     3.766023712698387e+00   2.961804689828856e+00   3.456660600000000e+00  6.68861400e-02  -1.50086300e-02  -4.11839200e-01
C     4.807304845495859e+00   1.989267312495853e+00   3.444148800000000e+00  2.23499730e-01  -9.19447600e-02   6.98060380e-01
C     6.183642863040143e+00   2.403511543742429e+00   3.562111200000000e+00 -7.39902810e-01  -2.46644450e-01   4.02735480e-01
C     7.182443844198557e+00   1.401786909127664e+00   3.663265500000000e+00  6.22684510e-01  -2.22713360e-01  -6.80718400e-02
C     8.558326545670305e+00   1.774696309864332e+00   3.620116500000000e+00 -2.10292170e-01   1.44024646e+00  -6.83777230e-01
C     2.055970717358374e+00   1.159164258697208e+00   3.314138400000000e+00 -7.13425900e-02   1.26225616e+00   7.09667990e-01
