32
Lattice="9.86 0 0 4.93 8.53901048131456 0 0 0 30 " PBC="1 1 1" Properties=species:S:1:pos:R:3:force:R:3 Energy="-254.66329741"
C     9.794573427700000e+00   7.252027044574312e-01   3.659095500000000e+00  2.32356950e-01   3.16084800e-01  -6.76274200e-01
C     1.201841661100000e+00   1.426910236189038e+00   3.442226400000000e+00 -2.91116231e+00   1.47047154e+00   4.74185580e-01
C     2.429618770400000e+00   7.263215710006257e-01   3.595551300000000e+00 -8.76411150e-01   1.14723092e+00  -7.66523340e-01
C     3.645456109900000e+00   1.426107056863289e+00   3.404266800000000e+00  3.40722590e-01  -3.95269550e-01   1.06307769e+00
C     4.862230938200000e+00   6.717596849563601e-01   3.537860400000000e+00  4.57046630e-01   2.53101450e+00  -5.23256560e-01
C     6.097585457500000e+00   1.478561344340881e+00   3.471498000000000e+00 -2.41071760e+00  -1.83935564e+00  -5.30790000e-02
C     7.276919597999999e+00   6.843994698292751e-01   3.422380200000000e+00 -9.05245800e-02   2.21488839e+00   1.09901747e+00
C     8.496319454100000e+00   1.398246998150402e+00   3.550898400000000e+00  3.31075992e+00  -3.63821600e-01  -3.73117680e-01
C     1.095985425810000e+01   2.913987279511308e+00   3.144614700000000e+00  1.12724141e+00  -3.04424417e+00   1.15775868e+00
C     2.338950302300000e+00   3.514961812412450e+00   3.014510100000000e+00  1.21783198e+00   3.11208058e+00   3.25962440e-01
C     3.582042949599999e+00   2.853906033263085e+00   3.265368600000000e+00 -4.13723910e-01   3.29949230e-01  -1.01648489e+00
C     4.718709764200000e+00   3.675132557661365e+00   3.302482800000000e+00  4.38002076e+00  -2.04512109e+00   1.55495777e+00
C     6.015954024500000e+00   2.901026940184974e+00   3.494046900000000e+00  3.63871620e-01   1.04845020e-01  -1.38009834e+00
C     7.310810932299999e+00   3.549311519090137e+00   3.434711100000000e+00 -4.35327800e-01  -1.07110408e+00   1.83882031e+00
C     8.602907385200000e+00   2.792946037446365e+00   3.489449700000000e+00 -3.17971463e+00   3.42275257e+00  -6.69729560e-01
C     9.772524890100000e+00   3.663900941006706e+00   3.319107900000000e+00 -4.07385730e-01  -5.23671267e+00  -1.21461680e-01
C     1.224118383750000e+01   5.009723452826091e+00   2.944098600000000e+00  1.61614412e+00  -1.27093006e+00   1.15361684e+00
C     3.649952910800000e+00   5.763356792676683e+00   3.210101700000000e+00 -2.15363258e+00   9.62855710e-01   1.31443310e-01
C     4.853718011400000e+00   5.107006606032531e+00   3.420321000000000e+00 -1.05402725e+00  -3.20517815e+00  -1.03038234e+00
C     6.103229025699999e+00   5.693633295794444e+00   3.627017100000000e+00 -8.22402200e-01   2.15530625e+00   1.04515112e+00
C     7.279304041799999e+00   4.940092348037246e+00   3.690676200000000e+00  2.04852448e+00   1.08716180e-01  -2.17027745e+00
C     8.509450558399999e+00   5.636229370892121e+00   3.512882100000000e+00  5.09949880e-01   3.53407914e+00   1.34917059e+00
C     9.776146517399999e+00   5.024338566993345e+00   3.301498200000000e+00 -1.27875131e+00   1.98934870e-01  -3.78831980e-01
C     1.101556670910000e+01   5.675821603054002e+00   3.079215600000000e+00 -4.49253590e-01   8.28469980e-01   5.13207620e-01
C     1.350347784880000e+01   7.180453058730953e+00   3.439494300000000e+00 -2.34523690e+00  -1.23652086e+00  -2.15506090e-01
C     4.861311591799999e+00   7.838495848032450e+00   3.734334900000000e+00 -1.08779270e-01   7.29447760e-01  -6.49178970e-01
C     6.089583032200000e+00   7.142102313302757e+00   3.791946900000000e+00  7.52046200e-01  -7.82230880e-01  -5.06158160e-01
C     7.331695348999999e+00   7.873419546994602e+00   3.781645500000000e+00 -8.43921710e-01  -1.33236411e+00  -1.79886950e-01
C     8.515742125799999e+00   7.127120448635387e+00   3.665960700000000e+00  8.99024820e-01  -1.95778253e+00  -4.32815080e-01
C     9.769514484200000e+00   7.798443277815591e+00   3.571239900000000e+00  1.56059850e-01  -7.29479750e-01  -1.00918519e+00
C     1.098207914180000e+01   7.056768907532343e+00   3.274609200000000e+00  2.44002190e-01   2.41981821e+00   9.11623500e-01
C     1.217822704730000e+01   7.830052389079721e+00   3.384045900000000e+00  2.12536911e+00  -1.07683052e+00  -4.65745480e-01
