32
Lattice="9.916 0 0 4.958 8.58750790392649 0 0 0 30 " PBC="1 1 1" Properties=species:S:1:pos:R:3:force:R:3 Energy="-258.02103976"
C    -7.382405145864318e-04   7.053935105900805e-04   3.000893771816068e+00  3.32391300e-02  -4.38361900e-02  -3.40353000e-03
C     1.239071344213481e+00   7.150030837807554e-01   3.000769391652575e+00  1.02178300e-02   2.90752100e-02   3.54075000e-03
C     2.479529104842569e+00   3.999331367646179e-04   3.000521807826176e+00 -5.30764300e-02   3.72740000e-03  -1.54558000e-03
C     3.717540381269547e+00   7.165428192571087e-01   2.999941564559250e+00  5.59022600e-02  -6.58088400e-02  -5.04446000e-03
C     4.956959491513844e+00  -8.706980248935017e-04   2.999563756124953e+00  1.23099200e-02   7.69753500e-02   1.25799000e-03
C     6.196277251556972e+00   7.161633043608649e-01   2.998921825192597e+00  2.91066300e-02  -7.61851100e-02   3.40252000e-03
C     7.436811213584512e+00   7.557965050658850e-04   2.998833620888862e+00 -3.72353000e-03  -4.44056100e-02   2.01414200e-02
C     8.676563879636937e+00   7.163379646443823e-01   3.000773140258722e+00 -3.63848800e-02  -3.93845800e-02  -1.74913900e-02
C     1.239106972954899e+00   2.146628266197911e+00   3.000898220290738e+00 -1.63537200e-02   1.80997000e-03  -6.59364000e-03
C     2.477765794228430e+00   2.861681993099282e+00   2.999711515513233e+00  6.94984000e-02   4.93356700e-02  -7.72290000e-04
C     3.718747779069794e+00   2.145960908527090e+00   2.998846447787803e+00 -3.48124900e-02   9.09950300e-02   1.81613000e-02
C     4.958500528399406e+00   2.862581192196239e+00   3.000615876761519e+00 -3.55936000e-02   8.01014000e-03  -1.18430900e-02
C     6.196637468873775e+00   2.145806401308835e+00   2.999970589203272e+00  4.16729500e-02   8.65147800e-02   1.06252000e-03
C     7.437085380787628e+00   2.862695627707965e+00   3.000406632329515e+00 -1.15816700e-02  -5.25103500e-02  -8.55202000e-03
C     8.676357311455110e+00   2.145978851623250e+00   2.999265255784186e+00 -9.64105000e-03   8.22391200e-02   2.09068700e-02
C     9.915305702904517e+00   2.863203010904618e+00   3.000515286200692e+00  7.60265000e-03  -6.03532600e-02  -6.21376000e-03
C     2.479059477925187e+00   4.294941484191000e+00   2.999422299215484e+00  2.37181500e-02  -1.13149820e-01   4.08032000e-03
C     3.719066117446042e+00   5.009062409667091e+00   2.999959529711643e+00 -3.63827000e-03   4.35672600e-02  -6.88602000e-03
C     4.958683561446449e+00   4.294866348199145e+00   3.000413089602531e+00 -1.23387400e-02  -6.79054500e-02  -7.51018000e-03
C     6.198081066188266e+00   5.009741234344477e+00   2.998807601056849e+00  1.15773800e-02  -2.81200200e-02   1.48675200e-02
C     7.438024088624388e+00   4.293468130932927e+00   3.000157148107885e+00 -6.95415400e-02   2.17434000e-03  -1.14085300e-02
C     8.675403012915734e+00   5.009700743163346e+00   2.998975857390945e+00  7.37882500e-02  -3.48028600e-02   1.02869500e-02
C     9.915168391802936e+00   4.293011143071817e+00   2.999862043505571e+00  4.21114000e-02   4.83154900e-02  -5.57505000e-03
C     1.115657479925032e+01   5.008146729930989e+00   2.999322568257204e+00 -1.04239680e-01   9.37290500e-02   5.41560000e-03
C     3.718718241048403e+00   6.440963248980604e+00   2.999050768587111e+00  1.52238000e-02  -4.03852000e-02   1.62587100e-02
C     4.957494624680669e+00   7.156695979787709e+00   2.999598179911060e+00  4.81821700e-02  -2.06224000e-02  -1.10965000e-03
C     6.197994953095047e+00   6.439524578078984e+00   2.998958980740628e+00 -5.79276000e-03   1.14292680e-01   4.45156000e-03
C     7.438084557076974e+00   7.157390803052890e+00   3.000110099557009e+00 -4.14561800e-02  -8.17511500e-02  -7.46972000e-03
C     8.676462155981532e+00   6.439642517902232e+00   2.999357359965234e+00  6.83228000e-03   8.25533800e-02   3.34699000e-03
C     9.916245630414457e+00   7.156968484134662e+00   3.000034645862472e+00 -4.07859500e-02  -6.39242700e-02  -6.00603000e-03
C     1.115457313225611e+01   6.441342269698923e+00   2.999804088431503e+00  8.44335400e-02  -6.45852100e-02   4.94244000e-03
C     1.239607305076869e+01   7.155326865006714e+00   3.000816384499937e+00 -8.64562400e-02   8.44154600e-02  -2.46985300e-02
