32
Lattice="9.86 0 0 4.93 8.53901048131456 0 0 0 30 " PBC="1 1 1" Properties=species:S:1:pos:R:3:force:R:3 Energy="-252.8940155"
C     8.466857922000001e-01   1.230292603288549e+00   3.478878000000000e+00  1.54882915e+00   6.02800890e-01  -1.05122520e-01
C     2.173901346600000e+00   1.902009080851880e+00   3.603577500000000e+00 -4.34177570e+00   1.02782558e+00   2.76727810e-01
C     3.309761120200000e+00   1.171623794763822e+00   3.705508800000000e+00  3.30780101e+00  -2.05365538e+00   7.31846910e-01
C     4.580229170100000e+00   1.850545916320702e+00   3.973404300000000e+00 -2.73242050e-01  -1.49971840e-01  -1.83268236e+00
C     5.864817676700000e+00   1.111451693444092e+00   3.680208300000000e+00 -2.19278421e+00   1.82357207e+00   1.93198600e+00
C     7.084287538800000e+00   1.845200581150326e+00   3.723584100000000e+00 -8.09302030e-01  -1.76432030e+00  -1.63057438e+00
C     8.250811123600000e+00   1.130421532175936e+00   3.374484600000000e+00  2.52898682e+00   1.35819777e+00   2.16441116e+00
C     9.516018863500001e+00   1.982525886980839e+00   3.450875700000000e+00 -1.23037528e+00  -2.51261921e+00  -4.70196860e-01
C     2.115766688000000e+00   3.319224039151821e+00   3.763787100000000e+00 -8.13318710e-01   1.55406225e+00   5.26810680e-01
C     3.317589960200000e+00   4.037361651728205e+00   3.940978500000000e+00  9.99269860e-01  -6.84807160e-01  -7.23343880e-01
C     4.506132551900000e+00   3.315208398693391e+00   4.058528400000000e+00  4.01615085e+00  -1.43049653e+00  -9.24339810e-01
C     5.845910584400000e+00   4.015699889942541e+00   3.896287500000000e+00 -2.21470279e+00  -1.37740397e+00   8.91877100e-01
C     7.060535439699999e+00   3.232137830700179e+00   3.791937900000000e+00 -2.78266960e-01   3.17544235e+00  -6.91358470e-01
C     8.237333933300000e+00   4.020500948584921e+00   3.593603700000000e+00  8.51700570e-01   1.54443877e+00   1.85879669e+00
C     9.526241070599999e+00   3.392996137072942e+00   3.575468700000000e+00 -1.48118099e+00  -1.85749170e-01   1.82357410e-01
C     1.072765544860000e+01   4.126883442139057e+00   3.818819700000000e+00  1.17531500e-02  -4.61231426e+00  -3.79429740e-01
C     3.428792765700000e+00   5.433239416030826e+00   3.711657900000000e+00 -6.24127832e+00  -2.03797230e-01   2.27233812e+00
C     4.552428702900000e+00   6.143544877414745e+00   3.806950500000000e+00  3.49118665e+00   2.26894642e+00  -1.32295240e+00
C     5.801935576000000e+00   5.427002095825710e+00   3.824973000000000e+00  6.48270830e-01   1.31203259e+00  -1.20698784e+00
C     6.995678775400000e+00   6.223802780745951e+00   3.564075300000000e+00 -9.54711460e-01  -1.09819271e+00   1.70196397e+00
C     8.212717358700001e+00   5.519283267473176e+00   3.750673800000000e+00 -1.23912975e+00  -1.90316766e+00  -1.69877852e+00
C     9.394534296499998e+00   6.233891194677546e+00   3.773804400000000e+00  3.75549069e+00  -2.21248751e+00   8.58877070e-01
C     1.064938356410000e+01   5.455989218531852e+00   4.083015899999999e+00  1.21682884e+00   3.39780673e+00  -2.96834809e+00
C     1.192982022190000e+01   6.131293105178041e+00   3.814109700000000e+00  1.24685731e+00  -1.18231476e+00  -7.68202100e-02
C     4.573906839500000e+00   7.656210431882012e+00   3.583674900000000e+00  3.28643878e+00  -6.37522767e+00   8.24363500e-01
C     5.744892912400000e+00   8.360632771215524e+00   3.480507900000000e+00  2.18966845e+00   1.16278385e+00   4.55186380e-01
C     6.992295612200000e+00   7.676494595106938e+00   3.531925500000000e+00 -2.56549828e+00  -4.54030767e+00  -9.50411200e-02
C     8.207205421499999e+00   8.189296586643172e+00   3.626186100000000e+00  3.32522649e+00   7.33930649e+00  -8.56049420e-01
C     9.489411406999999e+00   7.609669665332134e+00   3.548048400000000e+00 -5.66047010e-01  -1.44028659e+00   1.53924770e+00
C     1.076369596710000e+01   8.249556212820323e+00   3.597572700000000e+00 -1.86607340e-01   2.94682630e-01  -5.14569010e-01
C     1.198192677230000e+01   7.479374185269386e+00   3.564885900000000e+00  1.76736740e-01   2.15820186e+00   9.80450670e-01
C     1.327391703300000e+01   8.202777378658261e+00   3.555226200000000e+00 -7.21297531e+00   4.70701938e+00  -1.70064653e+00
