26
Lattice="8.88768389401873 1.33226762955019e-15 0 4.44384194700937 7.69696003302603 0 0 0 30 " PBC="1 1 1" Properties=species:S:1:pos:R:3:force:R:3 Energy="-208.71209954"
C     1.239679772604004e+01   6.683261311636165e+00   1.253040000000000e-02  1.60843254e+00   1.23933740e+00   1.96403510e-01
C     8.713475646854413e+00   6.519992240935800e+00   4.745940000000000e-02 -5.13633400e-01  -3.08225136e+00   2.68718980e-01
C     1.005014566429918e+01   6.104414511364026e+00   2.358600000000000e-02  2.19057570e-01  -7.45801690e-01  -1.22368490e-01
C     1.039059537164499e+01   4.730521847202684e+00  -3.146970000000238e-02  7.24261810e-01  -4.93828940e-01  -2.02856230e-01
C     6.286869758620633e+00   5.900542052265404e+00   5.839470000000000e-02  6.56719210e-01   2.68149710e-01  -5.35800860e-01
C     7.705663530582310e+00   5.529042734606232e+00   8.406659999999999e-02 -2.43687779e+00  -1.57177975e+00  -8.65650200e-02
C     8.000675576149389e+00   4.110535873144600e+00   7.813650000000001e-02  8.61437720e-01   1.21065647e+00  -5.45777530e-01
C     9.401392865598394e+00   3.735219017249749e+00   1.274850000000000e-02 -2.13963863e+00  -1.02879240e-01   1.75703620e-01
C     9.675563248028956e+00   2.353582980389425e+00  -1.516830000000269e-02  1.32856839e+00  -6.98086190e-01  -2.44606400e-02
C     3.870030146305750e+00   5.339513714462717e+00  -5.503080000000082e-02  2.98952330e-01  -1.55293860e+00  -7.98339890e-01
C     5.228687316056991e+00   4.936013592752417e+00  -1.071168000000000e-01  1.59231442e+00  -3.09182900e-01   5.47629070e-01
C     5.598423097207224e+00   3.543592190650056e+00  -2.081522999999983e-01  2.31208270e-01   2.11313720e-01   5.76736180e-01
C     6.976374939851222e+00   3.124975624288838e+00  -5.490599999999901e-02 -3.59782880e-01   1.08129653e+00  -1.26757260e-01
C     7.322789394051260e+00   1.756545877508788e+00  -4.538339999999863e-02 -1.01397324e+00  -4.30602760e-01   1.07841110e-01
C     8.671695219233996e+00   1.358441247809918e+00   4.889370000000001e-02  1.00459790e-01  -1.83000050e-01  -3.90079700e-01
C     2.873678431757522e+00   4.315060572636164e+00  -1.732862999999973e-01 -8.89676570e-01   1.40556559e+00   8.74448380e-01
C     3.189214672458009e+00   2.960422546716269e+00  -2.017226999999977e-01  5.13505710e-01  -1.80335588e+00  -2.53285470e-01
C     4.584411554794944e+00   2.558205123394969e+00  -2.593209000000023e-01 -9.72184260e-01  -7.76055860e-01   6.69457190e-01
C     4.937423247848062e+00   1.156482176005154e+00  -1.264338000000009e-01 -1.53673571e+00   4.85571730e-01  -2.90746800e-01
C     6.266192736480105e+00   7.834167578886786e-01  -8.613749999999953e-02  1.69200773e+00  -1.02832624e+00   4.28876390e-01
C     1.104467567024045e+01   7.067261339049660e+00   5.415000000000001e-04  7.28447490e-01   1.92113209e+00  -2.12220390e-01
C     2.145828668181227e+00   1.926143696624220e+00  -1.146291000000019e-01  1.77511254e+00   1.93909704e+00   7.94476400e-02
C     2.562910918988553e+00   5.926596108027754e-01  -4.688009999999920e-02 -1.32637012e+00  -2.13371484e+00   3.74669720e-01
C     3.921893422360608e+00   1.152987679181934e-01  -2.183520000000172e-02 -7.24699720e-01   5.35765108e+00  -5.63910110e-01
C     4.588936100232413e+00   7.673217602243460e+00   5.437860000000000e-02 -1.50355602e+00   6.63701700e-02  -1.73036210e-01
C     5.942057842718268e+00   7.292781729141457e+00   4.097610000000000e-02  1.08664284e+00  -2.74337240e-01   2.62728100e-02
