32
Lattice="9.86 0 0 4.93 8.53901048131456 0 0 0 30 " PBC="1 1 1" Properties=species:S:1:pos:R:3:force:R:3 Energy="-254.0466634"
C     1.155497787700000e+00   1.006639609307332e+00   3.832201500000000e+00 -9.77261220e-01   5.02461768e+00  -1.61644376e+00
C     2.373471641300000e+00   1.810662930851975e+00   3.670985100000000e+00  2.45974800e-01  -5.32468020e+00   1.53372832e+00
C     3.561437028599999e+00   1.023635741156829e+00   3.994790700000000e+00  1.59030514e+00   4.15290500e-02   1.91474360e-01
C     4.857608422299999e+00   1.637270808726353e+00   4.096816800000000e+00 -1.19534670e+00   2.81321398e+00  -1.80820719e+00
C     6.117432158500000e+00   9.700012770407960e-01   4.162774200000000e+00 -1.93404098e+00   2.70824158e+00  -4.20561680e-01
C     7.297894923900000e+00   1.776619262309892e+00   4.051349700000000e+00  1.60762913e+00  -3.22180560e+00   3.20839520e-01
C     8.538138080500000e+00   9.668174215932231e-01   4.049272800000000e+00  1.32111239e+00   2.80418805e+00  -2.34378215e+00
C     9.751146733899999e+00   1.701132531084386e+00   3.717926700000000e+00 -3.64815870e-01   1.65873940e+00   1.04745639e+00
C     2.400979660900000e+00   3.156591497181522e+00   3.489485400000000e+00  6.27844970e-01   1.66322860e+00   5.55418900e-02
C     3.634624308300000e+00   3.842110089724307e+00   3.627686100000000e+00  2.91856920e-01  -1.27370820e-01   3.06569650e-01
C     4.838466760599999e+00   3.083973446526773e+00   3.801174000000000e+00  9.46898790e-01   8.61228720e-01   1.37780172e+00
C     6.052039159500000e+00   3.880757309596367e+00   3.966196800000000e+00  1.17228638e+00  -1.33838756e+00  -1.24598340e-01
C     7.335422576899999e+00   3.175078454870722e+00   3.993486300000000e+00 -1.13982868e+00   2.67590850e-01   5.94346130e-01
C     8.591433697599999e+00   3.878691466790941e+00   3.983575800000000e+00 -1.92997536e+00   6.45028450e-01  -8.71480070e-01
C     9.741768641399998e+00   3.232599534996832e+00   3.595077600000000e+00  3.37710441e+00  -3.55194494e+00   7.62762400e-01
C     1.108370458420000e+01   3.892720207108533e+00   3.461636100000000e+00 -4.58283433e+00   1.25100127e+00   8.75000740e-01
C     3.632234540100000e+00   5.275403150857040e+00   3.765881100000000e+00 -3.13258318e+00  -8.65542660e-01  -1.26768103e+00
C     4.795638963199999e+00   5.926044411264577e+00   3.904789200000000e+00  4.22865831e+00   3.86221113e+00   1.63554659e+00
C     6.066191316099999e+00   5.301081321612076e+00   4.062794400000000e+00  3.96881640e-01  -1.53716562e+00   2.28286820e-01
C     7.323545911100000e+00   5.975531307210265e+00   4.334190300000000e+00 -2.34286984e+00   2.54619206e+00  -1.94966325e+00
C     8.556294481700000e+00   5.294874314894163e+00   4.140871800000000e+00 -6.54811490e-01  -2.51996630e-01   2.92599470e-01
C     9.759544101500000e+00   5.985641837179004e+00   4.037481300000000e+00  1.39967567e+00   1.44731882e+00  -4.79814770e-01
C     1.099445142050000e+01   5.327130256202154e+00   3.660013200000000e+00  1.24571765e+00   9.41095100e-02   7.00682250e-01
C     1.225231434780000e+01   6.074547708763935e+00   3.734420100000000e+00 -4.27655860e-01  -1.58292762e+00   3.35939170e-01
C     4.848460955199999e+00   7.380473572697825e+00   4.057771199999999e+00  1.41679867e+00   1.03719100e-02  -1.43074745e+00
C     6.065508757600000e+00   8.225128921710501e+00   4.057819200000000e+00 -1.03343394e+00  -4.98603290e+00   5.95054330e-01
C     7.233945872600000e+00   7.505669299531603e+00   4.206130200000000e+00  3.40633300e+00  -3.99173710e+00   9.65884640e-01
C     8.514893278399999e+00   8.125605046764004e+00   4.212111000000000e+00 -1.57346708e+00   1.81505280e+00  -5.48509700e-01
C     9.748203080200000e+00   7.439825331280742e+00   4.196745300000000e+00  4.74855720e-01  -1.61048174e+00  -6.69380910e-01
C     1.097138469000000e+01   8.137981488553717e+00   4.080239700000000e+00  2.75325260e+00  -1.05307291e+00   3.86849010e-01
C     1.227735781110000e+01   7.485128965992278e+00   3.942548100000000e+00 -1.76743963e+00  -3.00199112e+00  -7.56646590e-01
C     1.355432394610000e+01   8.074952063547169e+00   3.892871400000000e+00 -3.44682204e+00   2.93127357e+00   2.08115349e+00
