32
Lattice="9.756 0 0 4.878 8.44894383932098 0 0 0 30 " PBC="1 1 1" Properties=species:S:1:pos:R:3:force:R:3 Energy="-257.82044803"
C    -2.942171801225973e-04   1.313631537697322e-03   2.998713794655937e+00 -4.49148000e-03  -6.45545100e-02   3.47078100e-02
C     1.218195592089967e+00   7.052453170506411e-01   3.004206063609068e+00  1.05137300e-02   2.80401500e-02  -7.19686200e-02
C     2.438050520776780e+00   2.347120520180818e-03   3.000272302999471e+00 -6.96750600e-02  -2.63283650e-01   2.65408100e-02
C     3.655141794716733e+00   7.028895728567340e-01   3.002301750553952e+00  2.69510500e-01  -1.78603900e-02  -2.44876400e-02
C     4.881145503156310e+00   1.286544208412473e-04   3.003560733237240e+00 -1.24687850e-01   7.40886700e-02  -3.72126700e-02
C     6.101922137122856e+00   7.067099428706353e-01   3.000189822267227e+00 -1.52887440e-01  -2.79394950e-01   1.46826900e-02
C     7.319761187591027e+00  -2.132510313439594e-03   3.001637474697720e+00 -1.12323130e-01   1.23529400e-02  -2.53568000e-03
C     8.536058611734910e+00   7.054677037743199e-01   3.000211544860856e+00  5.49127300e-02  -2.15809390e-01  -2.74727700e-02
C     1.217131929214451e+00   2.114566222683828e+00   2.997878052888901e+00 -4.63306900e-02  -1.09238420e-01   2.51159000e-02
C     2.436861849489510e+00   2.812547697162677e+00   2.996875688121998e+00  8.11668100e-02   3.35158960e-01  -1.18076200e-02
C     3.654876931557759e+00   2.109160850217108e+00   2.997844437754334e+00  1.59782950e-01   1.12599680e-01   1.75682300e-02
C     4.878809096325154e+00   2.814982767693408e+00   2.998244265205013e+00 -2.51922680e-01  -5.90838900e-02   1.75209500e-02
C     6.094647770604239e+00   2.110615446799924e+00   2.998373871120506e+00  2.28378140e-01   1.90425500e-01   1.89602500e-02
C     7.314110080779076e+00   2.819007510516460e+00   3.000744140373554e+00  1.15385910e-01  -2.59659070e-01  -1.50334900e-02
C     8.535654331119984e+00   2.107824427673780e+00   2.996964253789882e+00 -1.52496940e-01   4.23631130e-01   2.66237500e-02
C     9.752919136136880e+00   2.818653228690879e+00   2.996032607506044e+00  8.93804600e-02  -2.64023770e-01   6.15490000e-03
C     2.441662131404209e+00   4.227033056177874e+00   2.995549665235511e+00 -1.47917130e-01  -2.03908230e-01   4.44665100e-02
C     3.660839972090869e+00   4.931157149587606e+00   2.998765077851105e+00  4.81821200e-02  -3.19606880e-01   2.20831200e-02
C     4.880812727061149e+00   4.221666237128860e+00   3.002667363590521e+00 -3.36703300e-02   9.70277400e-02  -5.85496500e-02
C     6.101989050792825e+00   4.925490337641352e+00   3.000265440258218e+00 -2.95607320e-01   1.47722000e-01   6.09246600e-02
C     7.316889609436953e+00   4.226000330964936e+00   3.003052992786758e+00  1.00337620e-01  -1.91052510e-01  -4.09627600e-02
C     8.535448313276683e+00   4.925065651798323e+00   2.999044910505420e+00  2.08731770e-01   1.40028060e-01  -5.46666000e-03
C     9.758272334990098e+00   4.221565846493488e+00   2.997243753133207e+00 -2.62024950e-01   1.43152120e-01   2.15181400e-02
C     1.097309677218602e+01   4.927152555220133e+00   3.002059139520553e+00  2.56146780e-01   2.33245100e-02  -6.27408500e-02
C     3.660091544596175e+00   6.332771911434427e+00   3.002276665794057e+00 -9.53365600e-02   3.01181380e-01  -2.47219800e-02
C     4.876450116751398e+00   7.041766779157885e+00   2.998760755579539e+00  1.41265800e-01  -9.02430200e-02   4.77730400e-02
C     6.098192410973419e+00   6.334258418730865e+00   3.003495973928906e+00 -6.31551800e-02   9.15631300e-02  -6.98077200e-02
C     7.316950071075237e+00   7.038340333060318e+00   2.998100117592011e+00  4.80930700e-02   1.16731010e-01   2.55719800e-02
C     8.538420453876535e+00   6.333622468036380e+00   2.996221525003383e+00 -7.92954700e-02   9.54493000e-02   2.74687600e-02
C     9.757536601704194e+00   7.041921892185887e+00   2.999587293050609e+00 -4.43592400e-02  -6.56739900e-02   1.27104100e-02
C     1.097515736344023e+01   6.335737994142228e+00   3.001841727249356e+00 -4.92737700e-02  -3.13022300e-02   1.10286200e-02
C     1.219326347031707e+01   7.036764682874370e+00   3.003371822500895e+00  1.73666830e-01   1.02218630e-01  -8.65240000e-03
