32
Lattice="9.86 0 0 4.93 8.53901048131456 0 0 0 30 " PBC="1 1 1" Properties=species:S:1:pos:R:3:force:R:3 Energy="-256.82704145"
C     4.954692102200000e+00   8.216146224245961e+00  -2.655492000000024e-01  8.07720200e-02   3.28659200e-02   7.29918550e-01
C     1.273339824200000e+00   3.973285258646704e-01  -2.082528000000003e-01 -4.89042410e-01  -1.17489075e+00  -3.80362950e-01
C     7.415141317800000e+00   8.195630056106292e+00  -2.235662999999981e-01  5.81684160e-01  -1.14188438e+00   7.68394600e-02
C     3.713700522300000e+00   3.366826802435096e-01  -1.308438000000010e-01  5.26500460e-01   1.62626955e+00   2.44948860e-01
C     9.901386906299999e+00   8.231195632486227e+00  -8.199540000000027e-02 -8.45600560e-01  -1.79890866e+00  -1.41076170e-01
C     6.175916009000000e+00   4.137420410291168e-01  -1.055904000000005e-01  6.64694940e-01  -1.78848722e+00   7.74279300e-02
C     1.233354674660000e+01   8.165813539312229e+00  -2.638019999999841e-02  6.75183100e-01   2.19458902e+00  -6.00295950e-01
C     8.635599496999999e+00   3.563978038100480e-01  -2.029211999999987e-01  3.33457160e-01   5.06800750e-01   2.28749830e-01
C     1.298226069800000e+00   1.795933564724499e+00  -6.645989999999813e-02 -1.37930082e+00  -1.70061470e-01   9.03212480e-01
C     2.505939656700000e+00   2.473215171587960e+00   1.817340000000000e-01  9.55068800e-02   5.78532920e-01  -1.02438902e+00
C     3.723561902700000e+00   1.757189597863700e+00   1.199190000000000e-02  1.14058817e+00   1.39750163e+00  -1.50989810e-01
C     4.985625436499999e+00   2.537201563499003e+00  -8.911379999999980e-02 -2.76245008e+00  -8.10218250e-01   5.24982020e-01
C     6.169073169000000e+00   1.818909992563664e+00  -2.347584000000005e-01  1.27716328e+00  -9.20772400e-02   6.89738700e-01
C     7.409768012200000e+00   2.508851109414250e+00  -2.253708000000003e-01  1.25102426e+00  -2.26297780e-01  -1.00922450e-01
C     8.668256556499999e+00   1.804511256921973e+00  -2.083203000000005e-01 -1.02341643e+00  -1.13305856e+00   2.22483320e-01
C     9.897213316199998e+00   2.481494510759264e+00  -4.107899999999987e-02  2.42017440e-01   9.28220420e-01  -3.39840600e-01
C     2.467833813300000e+00   3.899076561119740e+00   2.675961000000000e-01  3.66394860e-01   1.45436426e+00  -1.79160760e-01
C     3.690945072000000e+00   4.639717967305221e+00   1.500555000000000e-01  1.34355896e+00  -6.68722900e-02   5.99522200e-02
C     4.942404225100000e+00   3.963310584334702e+00   5.770200000000000e-03  6.90533810e-01  -1.21381447e+00  -6.21818910e-01
C     6.203776424999999e+00   4.632399181422812e+00  -1.690608000000005e-01 -1.01625040e+00   7.79338570e-01   8.88289100e-02
C     7.440964509900001e+00   3.910405437103766e+00  -2.148506999999995e-01 -6.26239090e-01   1.06387249e+00   1.74923500e-02
C     8.678729108999999e+00   4.634945343567739e+00  -1.567574999999977e-01 -4.89568470e-01  -1.23758612e+00   1.98062410e-01
C     9.870772049999999e+00   3.914403316420397e+00   5.736630000000000e-02  1.22885984e+00   4.56418620e-01  -1.29154630e-01
C     1.110183530010000e+01   4.672843777610808e+00   2.408655000000000e-01 -1.66852110e-01  -1.99939603e+00  -5.91542060e-01
C     3.774788645300000e+00   6.062115848796207e+00   7.582800000000001e-02 -1.74904956e+00   3.83831010e-01   1.04454620e-01
C     4.974224811499999e+00   6.794282714030811e+00  -1.541055000000000e-01 -3.52690370e-01  -4.26454440e-01  -9.18891400e-02
C     6.169791124900000e+00   6.065048144995039e+00  -2.450864999999993e-01  2.75502385e+00  -2.82129700e-01   2.49120430e-01
C     7.467848490100000e+00   6.755002241141554e+00  -2.772300000000030e-01 -2.00853794e+00   2.69481730e-01  -1.14562970e-01
C     8.699392760299999e+00   6.029782885613687e+00  -2.195387999999987e-01 -8.80322890e-01   1.59387568e+00   6.83744230e-01
C     9.891512806499998e+00   6.772894712921136e+00  -2.814569999999961e-02  7.40711620e-01   1.08146191e+00  -2.79208420e-01
C     1.111260582180000e+01   6.089878306619307e+00   1.573521000000000e-01  1.06708810e+00  -6.60858470e-01   1.90126290e-01
C     1.239337688150000e+01   6.774371620173757e+00   1.520625000000000e-01 -1.27144181e+00  -1.24428660e-01  -5.44868770e-01
