26
Lattice="8.88768389401873 1.33226762955019e-15 0 4.44384194700937 7.69696003302603 0 0 0 30 " PBC="1 1 1" Properties=species:S:1:pos:R:3:force:R:3 Energy="-209.13159062"
C     8.982178196258583e-01   1.039999153816745e+00   3.477224100000000e+00  7.22148070e-01  -8.17822670e-01  -3.43708040e-01
C     3.283352129807176e+00   4.276231641403223e-01   3.371446500000000e+00 -4.36933400e-01  -3.90214570e-01   1.62980360e-01
C     4.633314523350308e+00   7.985282764851779e-01   3.363744900000000e+00  9.57703280e-01   1.40687032e+00  -3.07702610e-01
C     1.010632160441118e+01   7.540162640262460e+00   3.405705000000000e+00  4.07695170e-01  -1.54016883e+00   1.01010630e-01
C     7.041943470350621e+00   2.128763629417160e-01   3.425381700000000e+00  4.37598480e-01   4.91587360e-01  -3.48573860e-01
C     1.254336736530621e+01   6.956240464546539e+00   3.397257300000000e+00 -5.50186340e-01  -9.68641210e-01   7.92630310e-01
C     5.032503071995102e+00   7.359757827447306e+00   3.457398300000000e+00 -1.04405399e+00  -1.00910898e+00  -1.39336390e-01
C     6.041078061314915e+00   6.351057207048552e+00   3.492517200000000e+00 -4.83699150e-01  -5.34513010e-01   3.07227060e-01
C     7.395644586192174e+00   6.737616781550422e+00   3.492783600000000e+00 -3.65420500e-02  -7.11629700e-02  -8.54867740e-01
C     8.389958797884262e+00   5.723365036608431e+00   3.439841100000000e+00  1.00935633e+00   5.25082590e-01   1.30888784e+00
C     9.765079024979649e+00   6.134084675918070e+00   3.453592800000000e+00  3.71556900e-02   3.98973560e-01  -1.64617720e-01
C     1.079976451868581e+01   5.162011733153277e+00   3.493494300000000e+00  3.68778810e-01  -1.20338750e-01  -6.25509490e-01
C     3.293445120277415e+00   5.553024306910904e+00   3.449544600000000e+00 -7.43473700e-02   6.87779020e-01  -1.56677950e-01
C     4.311166736172352e+00   4.567397248442082e+00   3.436280700000000e+00  9.63444770e-01  -2.81227570e-01   3.56369040e-01
C     5.705213152774522e+00   4.944690452763837e+00   3.537361500000000e+00 -7.60350420e-01   7.09834790e-01  -7.75553420e-01
C     6.733221151809794e+00   3.956211747573500e+00   3.532975200000000e+00 -1.45429038e+00  -3.13560590e-01   4.43953040e-01
C     8.069787583817519e+00   4.339113341821113e+00   3.607253700000000e+00  9.25661070e-01   7.76868110e-01  -1.15249251e+00
C     9.103086376644935e+00   3.367329573844648e+00   3.550972500000000e+00 -2.40734430e-01   2.94891000e-02   9.43212900e-02
C     1.046273954521289e+01   3.766741917052614e+00   3.446680500000000e+00 -5.35460970e-01   9.08995460e-01   7.65174300e-01
C     2.577321366643446e+00   2.800250347883975e+00   3.411352500000000e+00  2.06078216e+00  -5.34510780e-01  -6.74932350e-01
C     3.978640086152749e+00   3.181485858163495e+00   3.380297100000000e+00 -4.83122720e-01   4.27552700e-02  -2.57026200e-02
C     5.009874581070505e+00   2.192846440447732e+00   3.326257800000000e+00 -3.42202030e-01  -1.21176910e-01   8.48572180e-01
C     6.387491003041989e+00   2.570857386292283e+00   3.467055300000000e+00 -6.85286710e-01   3.66582780e-01  -5.39764550e-01
C     7.411315524840893e+00   1.596345045985182e+00   3.448425000000000e+00 -1.06314339e+00  -5.11322450e-01   6.77541300e-01
C     8.753332506751125e+00   1.984309392662129e+00   3.562236000000000e+00  5.79163090e-01   8.92159050e-01  -7.19474230e-01
C     2.262610656684773e+00   1.420452114170015e+00   3.348043800000000e+00 -2.79133560e-01  -2.32081400e-02   9.70246120e-01
