26
Lattice="8.88768389401873 1.33226762955019e-15 0 4.44384194700937 7.69696003302603 0 0 0 30 " PBC="1 1 1" Properties=species:S:1:pos:R:3:force:R:3 Energy="-208.24137479"
C     2.386814173961749e-01   3.464523321471474e-01   3.866431800000000e+00  2.09141260e+00  -9.65750570e-01   7.57710380e-01
C     7.102718346251512e+00   7.436754290137811e+00   3.648599100000000e+00 -1.48921437e+00   7.39301810e-01   8.14599200e-01
C     3.997465354051568e+00   1.348637475880507e-01   3.627046200000000e+00  1.22139789e+00  -1.71814266e+00  -1.15889120e-01
C     9.484481024667902e+00   6.817578805970886e+00   3.600586200000000e+00  3.49834130e-01   2.72376295e+00   6.39586130e-01
C     1.083631894176286e+01   7.279209756490158e+00   3.809466300000000e+00  6.48745350e-01  -2.72190718e+00  -4.92281620e-01
C     1.187174917889480e+01   6.236645051956214e+00   3.867328800000000e+00  5.03992740e-01   1.97187367e+00   6.59393120e-01
C     4.398064733590485e+00   6.624395807992328e+00   4.025905200000000e+00 -2.82795039e+00   1.82529806e+00  -1.28904914e+00
C     5.392937447375376e+00   5.667340942729270e+00   3.974321400000000e+00  9.83685620e-01  -1.41322880e-01  -2.70143860e-01
C     6.735987355927060e+00   6.085716286363147e+00   3.760638300000000e+00  1.08823673e+00  -1.98572803e+00  -3.33727100e-02
C     7.760002429627318e+00   5.047707258531759e+00   3.655747200000000e+00  4.73132780e-01   1.94239401e+00   4.58973700e-02
C     9.160476330381774e+00   5.486390646356790e+00   3.562708200000000e+00 -7.95085710e-01  -3.47399025e+00   6.64134000e-03
C     1.018933523622505e+01   4.424599474455107e+00   3.585186000000000e+00 -2.95658880e-01   4.02704276e+00   1.15055613e+00
C     1.154162131477843e+01   4.883567353773601e+00   3.807558600000000e+00 -3.12255640e-01  -1.05284325e+00  -7.25436870e-01
C     3.707598834610421e+00   3.920673035844583e+00   3.889881600000000e+00 -8.16052380e-01  -5.84762420e-01   3.03173430e-01
C     5.054006821173710e+00   4.291367790271818e+00   3.989237100000000e+00  6.86937000e-01  -1.96383870e-01   2.24458670e-01
C     6.064098715942683e+00   3.284568088091673e+00   4.006272900000000e+00 -9.09036100e-02   3.02709110e-01  -1.39933497e+00
C     7.426841821127539e+00   3.679804445635363e+00   3.763602300000000e+00 -3.35395990e-01   1.72617280e-01   6.17062860e-01
C     8.454857508026238e+00   2.717281506027792e+00   3.718066500000000e+00 -8.26380600e-02  -1.12844493e+00   8.28072180e-01
C     9.818108499905687e+00   3.110514729723675e+00   3.710290500000000e+00  7.07582600e-02  -1.30953026e+00  -1.43503045e+00
C     1.972013034381671e+00   2.150315964166763e+00   3.616179600000000e+00  7.47992300e-01  -1.14307797e+00   2.35921570e+00
C     3.354449558414504e+00   2.557369002626911e+00   3.831866400000000e+00 -5.07407000e-01  -2.54087052e+00  -1.44299760e+00
C     4.353527301983962e+00   1.455135924548400e+00   3.772848600000000e+00 -7.02082700e-02   4.19356808e+00   5.74445940e-01
C     5.711863626905518e+00   1.911761695899364e+00   3.892893000000000e+00  4.49804200e-02  -7.44847840e-01   2.44439750e-01
C     6.742329203854254e+00   9.273139656463385e-01   3.897754800000000e+00  3.51472160e-01   9.14580850e-01  -1.83583790e-01
C     8.126480162103551e+00   1.325259807059789e+00   3.888662100000000e+00 -7.71804080e-01   5.35822950e-01  -5.95560120e-01
C     1.643945513111596e+00   7.462963978431967e-01   3.780615900000000e+00 -8.68003600e-01   3.58631100e-01  -1.24257193e+00
