32
Lattice="9.86 0 0 4.93 8.53901048131456 0 0 0 30 " PBC="1 1 1" Properties=species:S:1:pos:R:3:force:R:3 Energy="-257.2284922"
C     9.833733551599998e+00   5.658592185438192e-01  -2.627969999999991e-02 -1.43429098e+00   5.59919970e-01  -1.70836130e-01
C     1.163542956100000e+00   1.337076088774826e+00  -5.267399999999967e-02  1.35494837e+00  -2.00856321e+00  -4.08143730e-01
C     2.412297609800000e+00   6.247968351184561e-01  -5.913749999999851e-02  1.28025900e-02  -1.88863216e+00   1.24197320e-01
C     3.652374181700000e+00   1.265925808631484e+00  -1.226165999999971e-01  4.59083720e-01   1.52186565e+00   3.39571120e-01
C     4.897454950099999e+00   5.498952822811448e-01  -3.438779999999753e-02 -8.80185990e-01   1.92757353e+00  -2.31490260e-01
C     6.108815504499999e+00   1.284431381363530e+00   3.582720000000000e-02  8.84189330e-01   1.04164530e-01  -8.08104220e-01
C     7.342175592299999e+00   5.810274898099672e-01  -5.314709999999678e-02  3.26796310e-01  -1.23499960e+00   1.26719100e-01
C     8.565832306199999e+00   1.262615661218912e+00  -2.169990000000155e-02  1.14036063e+00   1.07912942e+00  -1.10691940e-01
C     1.107413279200000e+01   2.720773637748566e+00  -1.865820000000014e-01 -1.68008655e+00   6.90348090e-01   4.74093330e-01
C     2.427326764100000e+00   3.408954779149119e+00  -2.408019000000010e-01  6.60434610e-01   1.23690668e+00  -1.00200500e-01
C     3.652185510600000e+00   2.714320195188201e+00  -1.843262999999986e-01  6.62298190e-01  -1.38555105e+00   3.93515500e-02
C     4.892132719299999e+00   3.395402003275682e+00  -1.258473000000002e-01  2.90635150e-01   1.12699597e+00   7.07917630e-01
C     6.154922590000000e+00   2.716596012261331e+00   4.310700000000000e-03 -1.60984066e+00  -3.17917630e-01  -2.58883230e-01
C     7.360417627599999e+00   3.454479232671667e+00  -2.256299999999101e-03  4.77439620e-01  -8.01093590e-01   3.81263120e-01
C     8.588827601000000e+00   2.697893017606988e+00  -1.977540000000033e-02  4.99286580e-01   8.85848700e-01  -1.79337600e-01
C     9.837267819299999e+00   3.431052030469263e+00  -1.195589999999989e-01 -9.95798570e-01  -5.37180800e-02   7.09918600e-02
C     1.229268705450000e+01   4.844752161275427e+00  -2.666108999999999e-01 -1.82368615e+00   1.94035330e-01   5.83753520e-01
C     3.628192186600000e+00   5.559078386524062e+00  -1.569882000000007e-01  1.15016205e+00  -1.46312327e+00   1.06577000e-03
C     4.863797100599999e+00   4.826100315293857e+00  -5.465399999999931e-02  5.17564660e-01   5.56521420e-01  -5.37455970e-01
C     6.097006281100000e+00   5.564119220580721e+00   1.252230000000000e-02  3.72696950e-01   2.06694260e-01   7.89262400e-02
C     7.339046619900000e+00   4.879907779762216e+00   3.877050000000000e-02  8.48355120e-01  -4.92279150e-01  -5.59892720e-01
C     8.609702798600001e+00   5.574254940630375e+00  -3.590909999999781e-02 -2.10476599e+00   2.93599330e-01   2.26126760e-01
C     9.802137477399999e+00   4.868687263821180e+00  -1.233815999999983e-01  1.20145209e+00  -9.95845470e-01  -8.89755500e-02
C     1.103236829700000e+01   5.590462324081835e+00  -1.872696000000005e-01  7.84920070e-01  -1.36568667e+00  -1.31778830e-01
C     1.349432998730000e+01   6.949313914261919e+00  -1.151939999999989e-01  2.29812459e+00   1.58344634e+00  -2.17427420e-01
C     4.904137663699999e+00   7.687451938744979e+00  -5.743740000000130e-02 -3.16432460e-01  -1.82015850e-01   2.79463560e-01
C     6.146640535100000e+00   7.003318032141631e+00   1.052100000000000e-03 -5.66497820e-01  -7.89495120e-01   2.60560700e-02
C     7.393259759299999e+00   7.705257654178084e+00   1.353480000000000e-02 -1.86800063e+00   1.03135920e+00  -2.97785300e-01
C     8.599309520500000e+00   6.998781938994446e+00  -3.154410000000141e-02  1.41470200e-01  -4.42644680e-01  -2.60384700e-02
C     9.815036230800001e+00   7.704546610775415e+00  -8.152739999999881e-02  4.80593560e-01  -6.71605670e-01   3.35907060e-01
C     1.102852314350000e+01   6.992534969707487e+00  -1.205420999999980e-01  1.94443730e+00   8.72807000e-02  -5.55966450e-01
C     1.232556625980000e+01   7.677675198695902e+00  -1.698845999999996e-01 -3.22846589e+00   1.00748207e+00   8.87604320e-01
