32
Lattice="9.86 0 0 4.93 8.53901048131456 0 0 0 30 " PBC="1 1 1" Properties=species:S:1:pos:R:3:force:R:3 Energy="-255.20155017"
C     9.799531578000000e+00   6.033459868916480e-02  -1.612824000000010e-01  3.67875519e+00  -4.26189181e+00  -3.11948630e-01
C     1.217032568700000e+00   7.042764930345143e-01  -2.387610000000002e-01 -2.01507530e-01   6.14369000e-02   1.70860111e+00
C     7.367125730700000e+00   8.473920420984419e+00  -1.535783999999971e-01  1.33660964e+00   3.13225253e+00  -3.81311210e-01
C     3.732210453800000e+00   7.215779798987760e-01  -6.769260000000088e-02 -2.28027629e+00  -2.76407662e+00  -5.29576960e-01
C     4.956347152499999e+00   5.354104734138160e-02  -6.992069999999728e-02 -1.59889400e-02  -2.95706231e+00   2.29675340e-01
C     6.183896791600000e+00   7.222129407180687e-01  -1.335753000000004e-01 -6.51254130e-01   2.33139164e+00   7.38218050e-01
C     7.406802962300000e+00   4.157106245051760e-02  -2.558639999999812e-02 -1.52285213e+00  -1.38239570e+00  -3.76829250e-01
C     8.611078465799999e+00   7.106125242007791e-01  -1.195860000000017e-01 -2.99326760e-01   6.14162270e-01  -1.26113870e-01
C     1.107979100230000e+01   2.120573507707855e+00  -1.001970000000085e-02  3.68163230e-01  -6.44889510e-01  -2.01398094e+00
C     2.499588288400000e+00   2.766895736614609e+00  -4.304129999999873e-02 -2.21847300e+00   3.59222846e+00   2.11301953e+00
C     3.707797981200000e+00   2.082095957974032e+00  -1.524720000000102e-02  9.69737050e-01   2.42936769e+00  -1.83122860e-01
C     4.966607320600000e+00   2.850830623248608e+00   7.194000000000000e-04 -2.12120299e+00  -8.00165330e-01  -4.57019150e-01
C     6.156279375300000e+00   2.213975766041239e+00  -1.389560999999979e-01  2.08922501e+00  -4.82564984e+00   2.01802400e-01
C     7.427092623799999e+00   2.823703894755744e+00  -1.475864999999992e-01 -2.62954008e+00   1.54775280e-01  -4.64522270e-01
C     8.609514965600001e+00   2.096519542136219e+00  -1.651905000000014e-01  3.76747110e-01   1.45856930e+00   1.21073310e-01
C     9.800009541500000e+00   2.822814044473623e+00  -1.006892999999991e-01  3.43761095e+00  -9.12564390e-01   1.02992647e+00
C     1.232085007390000e+01   4.295143021235466e+00   2.137749000000000e-01  1.62977570e-01  -3.52070059e+00  -1.14316073e+00
C     3.688599131500000e+00   4.948384154163850e+00   1.844532000000000e-01  1.89121634e+00   1.77522826e+00  -1.51704525e+00
C     4.969037761299999e+00   4.221651344418508e+00   2.926800000000000e-03 -1.73252495e+00   3.54536800e+00   4.58640190e-01
C     6.186808844000000e+00   4.995649199582641e+00  -1.480277999999977e-01 -1.41529064e+00  -2.69177306e+00   4.24278360e-01
C     7.358569272000000e+00   4.209332199389117e+00  -1.982418000000017e-01  2.25340624e+00   1.51154099e+00   3.74798600e-01
C     8.608328117399999e+00   4.852607794746712e+00  -1.172685000000016e-01  1.43204285e+00   4.62634748e+00   3.77142950e-01
C     9.869661912600000e+00   4.211321618050747e+00   5.178660000000000e-02 -1.85261183e+00   7.95563280e-01  -8.03275040e-01
C     1.107129533050000e+01   4.964745922924788e+00   1.922256000000000e-01  1.02210447e+00  -7.89420200e-02   1.41185390e-01
C     3.733165444100000e+00   6.419045291398740e+00  -2.480880000000241e-02 -1.66157927e+00  -1.04101546e+00   1.75132068e+00
C     4.959023107199999e+00   7.091177021041713e+00  -1.104744000000011e-01 -7.81418070e-01   2.11929278e+00  -1.52352610e-01
C     6.201248912600001e+00   6.381680203950252e+00  -1.235694000000009e-01 -1.79926211e+00   6.42831910e-01  -6.53729100e-01
C     7.385272814200000e+00   7.089932374874149e+00  -2.014500000000012e-01  2.42629059e+00  -4.99147460e-01   4.94626870e-01
C     8.661487025600000e+00   6.386002992615647e+00  -1.183158000000013e-01 -1.66913224e+00  -1.83861766e+00   1.47846690e-01
C     9.850335030800000e+00   7.113797030583443e+00   2.216610000000000e-02  1.55437605e+00   2.58073250e-01   4.65060200e-02
C     1.111404232520000e+01   6.382644429013653e+00   2.049264000000000e-01 -1.33058662e+00   1.95485249e+00  -1.08777160e+00
C     1.232180363450000e+01   7.176675485884705e+00   8.957970000000000e-02  1.18356528e+00  -2.78439076e+00  -1.56902500e-01
