72
Lattice="7.395 0 0 3.6975 6.40425786098592 0 0 0 13.6 " PBC="1 1 1" Properties=species:S:1:pos:R:3:force:R:3 Energy="-573.98198734"
C     3.721768208475000e+00   6.115656063584067e+00   1.166315600000000e-01 -1.38640693e+00   4.89261561e+00  -6.60139890e-01
C     1.222040943375000e+00   5.288111632069266e-01   1.359124391200000e+01 -1.67446960e-01  -8.34415680e-01   9.67230820e-01
C     1.453356358500000e+00   9.933760924139053e-01   3.297212016000000e+00 -2.38988308e+00   8.33743460e-01   7.85754980e-01
C     2.612988567450000e+00   1.835045947192458e+00   3.102268664000000e+00  2.12616130e-01  -3.57240955e+00   6.82817400e-01
C     6.135836970074999e+00   6.204584307376455e+00   2.084331920000000e-01 -5.54326890e-01  -1.96894670e-01  -2.59911590e-01
C     3.629465334450000e+00   5.615066287318489e-01   2.109327360000000e-01  2.75861131e+00  -1.09470144e+00  -1.11504695e+00
C     3.823621651050000e+00   1.038723489554150e+00   3.264651712000000e+00  9.75900430e-01  -3.13380830e-01   1.38762505e+00
C     5.058944679974999e+00   1.722322363108347e+00   3.565254144000000e+00 -1.59727950e-01  -2.39107690e-01  -1.88859841e+00
C     8.647781033999999e+00   6.245513214891351e+00   3.082811280000000e-01 -2.75244940e+00  -1.87793744e+00  -1.06633687e+00
C     6.156709912199999e+00   5.346471712670089e-01   2.385416880000000e-01  1.21577409e+00  -2.69178952e+00  -2.01745430e-01
C     6.303304731674999e+00   1.009410112605094e+00   3.684955088000000e+00 -2.33291250e-01   2.42889546e+00  -7.69663060e-01
C     7.530882200625000e+00   1.663952419950421e+00   3.424029432000000e+00  2.69161609e+00   2.97440163e+00  -4.92398730e-01
C     1.185593132925000e+00   2.016615175186412e+00   1.353177628000000e+01  1.51208784e+00  -4.16642665e+00  -3.81547950e-01
C     2.385451886400000e+00   2.706686575989396e+00   1.337217932800000e+01  3.03597035e+00  -2.60623790e+00   7.22026480e-01
C     2.599180549500000e+00   3.234634509279373e+00   3.139695320000000e+00  2.73512575e+00  -1.09665185e+00   1.65271406e+00
C     3.885567828225000e+00   3.820991515742802e+00   3.556897760000000e+00 -2.50171725e+00   3.83374277e+00  -1.53561099e+00
C     3.691673442525000e+00   1.941583274354124e+00   1.344883572800000e+01 -9.88604340e-01   4.97363720e-01   2.74668444e+00
C     4.924055849700000e+00   2.635665405684511e+00   2.664468480000000e-01 -8.03025320e-01  -4.43936250e-01  -1.79361824e+00
C     5.094028371750000e+00   3.155318416109059e+00   3.436477376000000e+00 -8.16793860e-01  -2.13935495e+00   1.53396817e+00
C     6.275446139774999e+00   3.856585228162267e+00   3.484058472000000e+00  3.95286774e+00  -5.57916640e-01  -4.53414130e-01
C     6.169562939850000e+00   1.918240202752474e+00   3.438177920000000e-01 -1.17156654e+00   2.19479560e-01  -8.42942530e-01
C     7.386482549925000e+00   2.615679317967916e+00   1.952708400000000e-01 -1.59664213e+00   1.19321210e-01   1.33541786e+00
C     7.574625215549999e+00   3.199135707961393e+00   3.294639984000000e+00 -2.80632151e+00  -3.59452813e+00   6.57482250e-01
C     8.778536022299999e+00   3.899485878587099e+00   3.181936920000000e+00  1.06501550e-01   4.26684240e-01   1.80159924e+00
C     2.474315567775000e+00   4.062503892837991e+00   1.352980876800000e+01 -2.69177967e+00   1.79597245e+00  -2.81499200e-02
C     3.690545187375000e+00   4.750484879832893e+00   1.357988342400000e+01  7.74840970e-01  -1.49415410e-01   9.99509650e-01
C     3.930707684700000e+00   5.321228689889113e+00   3.747914928000000e+00 -1.91028458e+00  -1.50714498e+00  -1.10475390e+00
C     5.187108977925000e+00   5.958805797950406e+00   3.590697704000000e+00 -3.05837113e+00   3.12632197e+00  -6.38735400e-01
C     4.907671635600000e+00   4.066593459779651e+00   2.366359200000000e-01 -6.32025060e-01  -1.34134838e+00  -4.94545560e-01
C     6.080384490299999e+00   4.751304560796394e+00   4.171519840000000e-01  3.31392245e+00   8.02634610e-01   3.13213300e-02
C     6.336728098049999e+00   5.247114263037847e+00   3.496890072000000e+00  6.60443790e-01  -4.80300050e-01  -6.09080650e-01
C     7.522302558600000e+00   5.955058858804255e+00   3.359373400000000e+00  2.41736516e+00   2.00094200e+00   9.96874050e-01
C     7.362326375700000e+00   3.933200453665283e+00   5.285956880000000e-01  7.54659410e-01   6.47823251e+00  -3.55678100e+00
C     8.611931553000000e+00   4.752054755562114e+00   1.345082160000000e-01 -6.92072950e-01   8.24370130e-01   2.29327921e+00
C     8.796874069350000e+00   5.253238014403579e+00   3.539126912000000e+00 -2.55134090e-01   3.39955754e+00  -9.75113940e-01
C     1.002876873930000e+01   6.069212193455612e+00   3.750432424000000e+00  3.27430240e-01  -5.75343444e+00  -9.05350080e-01
C     7.371114963449999e+00   1.604502270619248e-01   6.707176464000000e+00  2.51346077e+00  -9.96968000e-01   2.31871660e-01
C     1.202246562000000e+00   8.967057412945633e-01   6.602045879999999e+00  3.49244870e-01   1.97275300e-02   2.47643910e-01
C     1.092293265000000e+00   4.284051444352681e-01   1.019163572800000e+01  1.19135726e+00   1.24337922e+00   3.70338000e-03
C     2.272412914725000e+00   1.124237943694266e+00   9.825937304000000e+00  2.45920929e+00   5.67332380e-01   1.42480550e+00
C     2.445051371249999e+00   2.208285454847472e-01   6.722108720000000e+00  6.96110720e-01  -2.19436163e+00   3.60712360e-01
C     3.731584405425000e+00   8.740667538020419e-01   6.733359999999999e+00 -7.69994630e-01  -8.48327550e-01  -2.59074450e-01
C     3.585625518975000e+00   3.908630646470551e-01   9.927626816000000e+00 -1.17729802e+00   1.81842659e+00  -1.03143670e-01
C     4.861990539074999e+00   1.129182158847343e+00   1.001348565600000e+01 -3.21422057e+00  -6.00175020e-01   8.45651970e-01
C     4.981869774824999e+00   1.272196217502210e-01   6.846382119999999e+00 -5.36422800e-02   2.61570181e+00  -2.87791320e-01
C     6.246570920250000e+00   8.866816688069340e-01   6.814249672000000e+00 -4.59227184e+00   1.30307635e+00  -9.43141780e-01
C     6.011982552075000e+00   4.771562125003674e-01   1.033429061600000e+01  2.27899181e+00  -2.16849917e+00  -2.13248120e-01
C     7.302947298825000e+00   1.121347061696262e+00   1.043023086400000e+01 -2.17922030e+00   1.86566462e+00  -1.68524830e+00
C     8.582586344250000e+00   2.313108810478066e+00   6.501034872000000e+00  4.57290740e-01   1.24740754e+00  -2.09848310e-01
C     2.467190411325000e+00   2.996670155081203e+00   6.438221503999999e+00 -1.44438411e+00  -4.62161890e-01   1.87350989e+00
C     2.313111851850000e+00   2.619987654358074e+00   9.802701431999999e+00  1.11753036e+00  -3.72404207e+00   5.84608620e-01
C     3.563689989300000e+00   3.242958507475487e+00   9.870952352000000e+00  1.17273300e+00   2.02984535e+00   1.77499588e+00
C     3.682104793200000e+00   2.272121432088908e+00   6.592960671999999e+00  1.20263083e+00   1.16842129e+00  -4.43126400e-02
C     4.921535448825000e+00   3.032603421252405e+00   6.664306000000000e+00 -1.12301068e+00  -1.93901089e+00   7.97420600e-02
C     4.806485185050000e+00   2.502152127607533e+00   1.012217060000000e+01 -1.54085535e+00   2.63373126e+00  -1.14977719e+00
C     5.971654991850000e+00   3.239364309879298e+00   1.031990236000000e+01  2.92853449e+00   1.25529259e+00  -8.45903390e-01
C     6.168133079625000e+00   2.337937285647764e+00   6.632558704000000e+00  2.17502360e-01   1.73240400e-01   8.22666920e-01
C     7.355664774825000e+00   3.128370003502544e+00   6.540423192000000e+00  9.95506630e-01  -3.21760971e+00   6.64626250e-01
C     7.270749062099999e+00   2.526062936668472e+00   1.026756670400000e+01  7.18059190e-01   2.14390990e+00   4.38478740e-01
C     8.579187343425000e+00   3.317240149499476e+00   1.008936536000000e+01 -4.71845136e+00  -8.88173380e-01  -7.93556600e-02
C     9.808560022575000e+00   4.412105668987216e+00   6.687925935999999e+00  2.52111987e+00  -1.15150185e+00  -1.15552676e+00
C     3.628544804850000e+00   5.127150217144957e+00   6.700636768000000e+00  6.10709670e-01   6.69552800e-01   6.65635390e-01
C     3.527997060450000e+00   4.679754526877431e+00   1.015525436800000e+01  1.02254913e+00   9.94754050e-01   3.62412800e-01
C     4.790338091624999e+00   5.465853675566084e+00   1.031422300000000e+01 -2.19377950e-01  -4.37738363e+00  -1.27098861e+00
C     4.832132154300000e+00   4.411694579675183e+00   6.756729288000000e+00  3.50918165e+00   1.59069239e+00  -2.37500150e-01
C     6.146546187224999e+00   5.143242259912356e+00   6.841556976000000e+00 -2.42195801e+00   2.46872008e+00  -1.07846002e+00
C     6.012805134900000e+00   4.713249692081331e+00   1.023826428000000e+01 -3.26203000e-03  -6.12659430e-01   2.63400570e-01
C     7.284342772950000e+00   5.410163081769046e+00   1.012028958400000e+01 -1.67420375e+00  -5.80809380e-01   2.20721600e-02
C     7.377704019374999e+00   4.525292857297813e+00   6.706045624000001e+00  1.62459980e-01  -1.77578819e+00  -5.95410000e-04
C     8.663361596474999e+00   5.136855933974365e+00   6.764300000000000e+00 -2.76180413e+00   1.41818884e+00   1.22957950e-01
C     8.524746943349999e+00   4.728492722384231e+00   1.011563199200000e+01 -1.42683062e+00  -6.69294920e-01   4.44768340e-01
C     9.676068577350000e+00   5.454478752968045e+00   1.023296123200000e+01  3.23107253e+00  -8.31985940e-01  -4.63519790e-01
