72
Lattice="7.395 0 0 3.6975 6.40425786098592 0 0 0 13.6 " PBC="1 1 1" Properties=species:S:1:pos:R:3:force:R:3 Energy="-577.97387017"
C     3.704232999600000e+00   6.290841911598645e+00   1.321870428000000e+01  1.71072080e-01   2.01573233e+00   1.14436702e+00
C     1.306048513125000e+00   6.314775647902723e-01   1.328992299200000e+01 -2.91949035e+00   3.94658000e-02   1.13680500e-02
C     1.312309415925000e+00   8.749103226473611e-01   3.717770664000000e+00 -4.15788180e-01  -9.37087690e-01  -5.34176980e-01
C     2.516085300900000e+00   1.622276904054207e+00   3.682258480000000e+00  2.97424500e-02  -1.30852498e+00  -6.35300500e-02
C     6.227771721000000e+00   6.317407541712869e+00   1.330485198400000e+01 -3.08683679e+00   1.56913548e+00  -1.98590380e-01
C     3.708189472500000e+00   6.485950573262160e-01   1.325465207200000e+01 -7.60176630e-01  -7.71083630e-01   1.16516403e+00
C     3.731757448425000e+00   8.548430929836799e-01   3.613853064000000e+00  6.45463130e-01   5.04960360e-01  -6.35413700e-02
C     5.003893046174999e+00   1.509394110119696e+00   3.530367696000000e+00 -1.66173311e+00   8.80277180e-01   1.63886418e+00
C     8.573360009475000e+00   6.334431275913742e+00   1.333224007200000e+01  1.04540385e+00  -2.00375950e+00   4.34403200e-02
C     6.096708435149999e+00   5.382435463108705e-01   1.327890413600000e+01  3.91719140e+00   3.08257699e+00  -4.61598660e-01
C     6.222080233200000e+00   7.785478242033492e-01   3.633984192000000e+00 -7.20496650e-01   4.45441591e+00  -1.80545140e-01
C     7.420256476275000e+00   1.491780479727338e+00   3.696773624000000e+00  3.22327365e+00   3.31477727e+00  -3.70955050e-01
C     1.232353270875000e+00   2.058530658624640e+00   1.331483288800000e+01 -1.08626588e+00   5.84162090e-01  -6.57919290e-01
C     2.431476036975000e+00   2.810860732000722e+00   1.335713310400000e+01  1.51026157e+00  -1.93599934e+00   3.88763250e-01
C     2.486783796600000e+00   3.019287240011843e+00   3.667247752000000e+00  3.00635252e+00  -3.53848600e-02  -5.66311700e-01
C     3.750867422550000e+00   3.695715330082777e+00   3.557878048000000e+00  1.91352600e-01   1.40630117e+00   1.45687021e+00
C     3.689358511725000e+00   2.008647509897629e+00   1.337501710400000e+01 -6.18731500e-02   4.04389515e+00  -1.47788900e+00
C     4.941338963025000e+00   2.731398237495728e+00   1.317498041600000e+01 -1.24041399e+00   3.06920470e-01   1.28526959e+00
C     4.961471591700000e+00   2.950520752729150e+00   3.703377512000000e+00  2.11507520e-01  -1.14438558e+00  -2.03438817e+00
C     6.185371083450000e+00   3.616748653221304e+00   3.667721984000000e+00  3.20918614e+00   2.63682911e+00  -2.01144870e-01
C     6.162116063925000e+00   1.988475122319886e+00   1.316207918400000e+01 -1.35293206e+00   5.21112050e-01   2.46938110e-01
C     7.335562835399999e+00   2.763475435966846e+00   1.312389351200000e+01  2.56833934e+00  -5.75688000e-01   8.58521850e-01
C     7.527732448275000e+00   2.999957972981370e+00   3.651445912000000e+00 -5.21941872e+00  -3.15262432e+00   5.04854790e-01
C     8.698565050275000e+00   3.724108030921879e+00   3.678854808000000e+00 -5.85222540e-01   3.11083000e-03  -4.34751250e-01
C     2.460798321225000e+00   4.214142885765813e+00   1.336506000000000e+01 -2.03638319e+00   3.42047820e-01   1.76151000e-01
C     3.681238986600000e+00   4.915734009437051e+00   1.328363856800000e+01  2.85619750e-01  -1.61119822e+00   4.65978500e-02
C     3.825099504824999e+00   5.176061647826870e+00   3.618301080000000e+00 -1.30629156e+00  -2.19916466e+00  -4.27526200e-02
C     5.074452068925000e+00   5.849306181315598e+00   3.614466832000000e+00 -2.05012768e+00  -9.38029000e-02   3.72679640e-01
C     4.890033821099999e+00   4.184154628123470e+00   1.320613312000000e+01  1.34501720e+00  -8.92203300e-02   3.28062690e-01
C     6.105505933875000e+00   4.956891036616920e+00   1.322660819200000e+01  1.79235625e+00  -3.73655120e+00  -8.20437540e-01
C     6.241776630824999e+00   5.076023297498954e+00   3.619832848000000e+00 -3.61062540e-01  -3.04072860e-01   4.50983000e-01
C     7.422071763899999e+00   5.843945881529356e+00   3.677656240000000e+00  2.02369706e+00  -1.64123037e+00  -8.97141740e-01
C     7.373511608999999e+00   4.210217395910526e+00   1.310734326400000e+01 -1.69379984e+00  -7.37826440e-01   2.03669314e+00
C     8.561435387100000e+00   4.916650714907131e+00   1.339509002400000e+01  1.57766364e+00  -1.05451799e+00  -1.60547117e+00
C     8.693025566699999e+00   5.110798609806490e+00   3.640156960000000e+00 -6.54362700e-02   2.66087951e+00   7.15457430e-01
C     9.945249239549998e+00   5.860500760012298e+00   3.700789160000000e+00 -1.67641910e-01  -5.02003191e+00  -1.02805867e+00
C     5.111557110000000e-02   7.250119429633081e-02   6.670531808000000e+00  9.29132700e-02   4.51710930e-01   1.01070815e+00
C     1.273628759175000e+00   7.928726760568615e-01   6.855164047999999e+00 -1.82480680e+00   8.65314770e-01  -4.41585500e-01
C     1.153485189150000e+00   5.446922497204189e-01   1.027867096800000e+01 -2.78753870e-01   2.41398152e+00  -1.09496069e+00
C     2.331830334675000e+00   1.256613825575308e+00   1.015516365600000e+01  3.50279172e+00   1.47842100e+00   1.18405970e-01
C     2.471796054300000e+00   1.475442385372956e-01   6.970466751999999e+00  2.07665926e+00  -3.72047155e+00  -1.70968120e-01
C     3.769149119700000e+00   7.513317776608645e-01   7.007869744000000e+00 -1.52127460e-01  -5.14671390e-01   6.20831900e-02
C     3.634407486900000e+00   5.497129317123445e-01   9.986423832000000e+00 -2.39618650e+00   1.43827150e+00   2.03740463e+00
C     4.840061369100001e+00   1.302589160198727e+00   1.020018890400000e+01  1.15519559e+00  -7.13755390e-01  -1.27950085e+00
C     5.041193500125000e+00   6.365377610531940e-02   6.965493503999999e+00 -7.47058160e-01   5.33888870e-01  -1.35112873e+00
C     6.269461440225000e+00   8.601354435940266e-01   6.754683032000000e+00 -2.46812863e+00  -2.80439475e+00   1.05042528e+00
C     6.114956263200000e+00   6.299075609758933e-01   1.014246084800000e+01 -1.21995005e+00  -1.53327559e+00   4.34598290e-01
C     7.345112627475000e+00   1.327716714210487e+00   1.025089228800000e+01 -7.69869620e-01  -6.62849850e-01   9.65535000e-02
C     8.614840561124998e+00   2.204239052603788e+00   6.881400623999999e+00  1.60228272e+00   1.12830361e+00   6.76988710e-01
C     2.517389926800000e+00   2.867978322534125e+00   7.051336704000001e+00 -2.03264098e+00   5.63706600e-02  -2.03089365e+00
C     2.389655019525000e+00   2.736726836205562e+00   1.025769868000000e+01  7.06247720e-01  -2.66701429e+00  -4.44611630e-01
C     3.607776649874999e+00   3.415382070989889e+00   1.031923623200000e+01  1.30056130e+00   8.82388600e-01  -8.09777070e-01
C     3.721321661400000e+00   2.125483011783331e+00   7.025484056000000e+00  1.58456360e+00   3.65109716e+00   1.56737800e-01
C     4.949571890474999e+00   2.951511043122041e+00   6.996571135999999e+00 -6.27191890e-01  -3.19192520e+00  -3.46946020e-01
C     4.863419474924999e+00   2.725071983496463e+00   1.027826568800000e+01 -2.17369918e+00  -1.34875907e+00  -5.56168300e-02
C     6.048250664025000e+00   3.414819136723995e+00   1.022426743200000e+01  2.69762970e+00  -1.79077340e-01   3.30197740e-01
C     6.192855599925000e+00   2.253250709921211e+00   6.867893920000000e+00  5.13342780e-01   7.54173200e-01  -1.90301150e-01
C     7.418683818600000e+00   2.973860942414762e+00   6.814886287999999e+00 -5.47671410e-01   3.10795340e-01   5.83027350e-01
C     7.344388361174999e+00   2.741177795418262e+00   1.027867654400000e+01  1.16129930e-01   1.25248200e-01  -1.15111023e+00
C     8.628034868024999e+00   3.456321801700568e+00   1.018495092000000e+01 -4.39941701e+00   3.21635960e-01   5.61994280e-01
C     9.857580849000000e+00   4.271591832600893e+00   6.789608376000000e+00  1.42163994e+00   1.54025140e+00   1.29983456e+00
C     3.698497215750000e+00   5.058375148156731e+00   6.748608728000000e+00 -3.31912580e-01  -1.39575037e+00   6.22755980e-01
C     3.613340721825000e+00   4.841544204470774e+00   1.025659912000000e+01 -3.36298300e-02   3.66166300e-01  -4.79388340e-01
C     4.870462472925000e+00   5.583605178453503e+00   1.021608526400000e+01 -2.13411067e+00  -3.17250000e+00   3.43530610e-01
C     4.923107551874999e+00   4.320742654441614e+00   6.943259680000001e+00  2.65648370e-01   2.87205948e+00  -6.33468820e-01
C     6.159262888050000e+00   5.088136374857937e+00   6.943913975999999e+00 -1.11510492e+00   1.02955494e+00   1.06862900e-02
C     6.038639234625000e+00   4.807555783326497e+00   1.019470620000000e+01  1.22598521e+00   2.21359068e+00  -7.21788670e-01
C     7.262309592299999e+00   5.545141910214707e+00   1.004657037600000e+01  1.43175226e+00  -5.56591380e-01   3.33449540e-01
C     7.375888731750000e+00   4.434973800825969e+00   6.893740312000000e+00  1.40111346e+00  -2.86516617e+00   2.15063400e-02
C     8.650333714049999e+00   5.036135722312094e+00   6.877977368000001e+00  8.30479000e-01   1.27060459e+00  -1.13338900e-01
C     8.525258196675001e+00   4.872753305788969e+00   1.010953837600000e+01  1.01035395e+00  -4.81545050e-01  -1.01385670e-01
C     9.775543898850000e+00   5.548472508557379e+00   1.011689284800000e+01  3.18257890e-01   2.08585443e+00   4.09414940e-01
