32
Lattice="9.86 0 0 4.93 8.53901048131456 0 0 0 30 " PBC="1 1 1" Properties=species:S:1:pos:R:3:force:R:3 Energy="-253.42651324"
C     5.047251619700000e+00   8.014362660785281e+00  -4.799591999999997e-01  1.11149785e+00   3.58184910e+00  -2.87420260e-01
C     1.403082091900000e+00   2.960325500732600e-01  -6.314162999999979e-01 -2.95689517e+00   6.90051780e-01   2.86738472e+00
C     7.541952355399999e+00   8.176312081917178e+00  -5.449361999999986e-01 -1.28026952e+00  -1.91274385e+00  -3.01377130e-01
C     3.790550101800000e+00   3.474157894663456e-01  -3.785267999999995e-01  2.58137982e+00  -2.77552676e+00  -5.79131820e-01
C     1.000822404890000e+01   8.114511249738493e+00  -4.258836000000024e-01 -2.42207127e+00  -2.72348600e-01   1.26904555e+00
C     6.284073652100000e+00   2.090364281821816e-01  -3.874242000000017e-01  2.74186864e+00   4.44409384e+00  -7.88742420e-01
C     1.252355767270000e+01   8.138070891993443e+00  -3.594215999999975e-01 -2.42704867e+00  -1.27793577e+00   1.07353618e+00
C     8.819078025200001e+00   2.995035724432752e-01  -4.612064999999994e-01 -1.03415373e+00  -3.44407920e-01  -4.16023370e-01
C     1.344927713300000e+00   1.723080862061759e+00  -2.143230000000003e-01  5.11414320e-01  -2.41037330e-01  -2.36988475e+00
C     2.603275308900000e+00   2.448922369893199e+00  -1.193745000000028e-01 -1.24244537e+00  -4.49503690e-01   1.35483335e+00
C     3.826041122500000e+00   1.707407337545510e+00  -1.872818999999986e-01 -2.57633381e+00  -4.24615460e-01  -6.92733870e-01
C     5.023605811400000e+00   2.321104398331118e+00  -2.893482000000027e-01  3.58205749e+00   3.69995306e+00   1.78192270e-01
C     6.286518439099999e+00   1.697831349632818e+00  -4.608620999999999e-01  1.06949448e+00  -1.85569370e+00   1.01355590e-01
C     7.576029895800000e+00   2.441722361646568e+00  -5.392743000000024e-01 -4.38966834e+00  -1.85806360e-01   4.68066900e-01
C     8.776043217100000e+00   1.743127726185446e+00  -5.596034999999979e-01  1.30328757e+00  -6.02932350e-01   7.30701560e-01
C     9.973533315099997e+00   2.475680896254165e+00  -3.406808999999988e-01  1.15509442e+00  -8.75692370e-01  -4.84988160e-01
C     2.606751156100000e+00   3.841013680778675e+00   1.919085000000000e-01 -1.25892670e-01   4.03517940e-01  -9.15340250e-01
C     3.892624765800000e+00   4.551038806448535e+00   1.406346000000000e-01 -3.13979612e+00  -2.50533760e+00  -1.26993230e+00
C     5.047029473900000e+00   3.748916354026844e+00  -1.980314999999990e-01  8.04379580e-01   3.51969776e+00   1.51949316e+00
C     6.278940536100000e+00   4.598489489955161e+00  -2.131007999999994e-01 -5.95226840e-01  -2.89101084e+00  -2.14919467e+00
C     7.463493328100000e+00   3.867912076131303e+00  -4.268675999999978e-01  3.71532439e+00  -3.79326310e-01   4.66329950e-01
C     8.799534913599999e+00   4.549512372935129e+00  -3.378671999999980e-01 -5.33647858e+00   2.67590840e+00  -8.36012030e-01
C     9.989546349499999e+00   3.904462115029476e+00  -3.233469000000007e-01  2.06148873e+00  -1.85469655e+00   2.36782568e+00
C     1.119490758690000e+01   4.585132769762345e+00   1.371855000000000e-01  7.36510990e-01  -3.66673820e+00  -1.20465492e+00
C     3.732119248799999e+00   5.933306498117398e+00  -7.514880000000090e-02  2.81300974e+00   1.82519172e+00   9.13542350e-01
C     4.972997734500000e+00   6.633152781734680e+00  -2.631425999999983e-01  1.29745082e+00   6.35552130e-01  -1.61349270e+00
C     6.263465167500000e+00   6.003490930785348e+00  -4.431419999999981e-01 -3.12355753e+00  -1.26423489e+00   1.70721734e+00
C     7.419817324200000e+00   6.720424628274157e+00  -5.493383999999999e-01  3.94172922e+00   5.59030060e-01   6.57434580e-01
C     8.652656508200000e+00   5.997777735043495e+00  -3.402537000000017e-01  2.97696698e+00   3.92546810e-01  -1.66329890e-01
C     9.964129783799999e+00   6.724318929393665e+00  -2.223284999999997e-01 -1.68906417e+00  -2.77219296e+00   2.52924990e-01
C     1.116355554770000e+01   5.921583888360139e+00   1.245726000000000e-01  3.59509890e-01   7.02409501e+00  -1.80562178e+00
C     1.243023844220000e+01   6.749966018150555e+00  -2.855489999999961e-02 -4.23563140e-01  -2.89970612e+00  -4.70038400e-02
