32
Lattice="9.86 0 0 4.93 8.53901048131456 0 0 0 30 " PBC="1 1 1" Properties=species:S:1:pos:R:3:force:R:3 Energy="-250.30758462"
C     9.810354406999999e-01   1.148640450326169e+00   3.493364400000000e+00 -4.55124952e+00   1.88896040e+00  -9.42201840e-01
C     2.070654772300000e+00   1.932038816737630e+00   3.587400300000000e+00  3.64727963e+00   1.21360050e+00   1.31595476e+00
C     3.381226646700000e+00   1.137354098614334e+00   3.729342000000000e+00 -2.69819061e+00   5.75195514e+00   1.02550710e-01
C     4.607280868900000e+00   1.745295268605689e+00   3.974585700000000e+00  1.95318433e+00   4.43995675e+00  -8.92878750e-01
C     5.848211020999999e+00   1.124336633307888e+00   3.777054000000000e+00  1.52190536e+00  -9.72718080e-01  -1.44333301e+00
C     7.105633896500000e+00   1.825636768849493e+00   3.645784500000000e+00 -9.13075200e-01   4.58439802e+00  -3.07871340e-01
C     8.377305014299999e+00   1.278948995074951e+00   3.404620500000000e+00 -3.77136348e+00  -2.60970777e+00   2.96462590e-01
C     9.580804042799999e+00   1.942006147500619e+00   3.434262000000000e+00  8.37145610e-01   1.27331243e+00   1.29663260e-01
C     1.998643692000000e+00   3.446305691840212e+00   3.773636400000000e+00  4.67662398e+00  -5.82914550e+00   3.17285760e-01
C     3.383536548900000e+00   3.939325870138059e+00   3.951561300000000e+00 -1.21667220e+00   2.23844478e+00  -2.12079260e-01
C     4.685827946000000e+00   3.258453950928176e+00   3.988783200000000e+00 -5.87423623e+00  -3.10723332e+00   6.81593190e-01
C     5.815596310200000e+00   3.965444910004178e+00   3.953575200000000e+00  4.22472414e+00   2.33563460e+00  -2.58426951e+00
C     7.073075239800000e+00   3.283026661386472e+00   3.635328300000000e+00 -1.19002631e+00   5.72145650e-01   1.92046400e+00
C     8.238016639700000e+00   4.140320172860071e+00   3.626535000000000e+00  1.12507537e+00  -3.68098528e+00  -2.06622440e-01
C     9.490149625199999e+00   3.412667455515718e+00   3.556917900000000e+00 -5.96783380e-01  -2.27662262e+00   6.79188180e-01
C     1.065638046660000e+01   4.083096591859085e+00   3.853430700000000e+00 -1.29385440e-01   2.77573568e+00   6.58796600e-01
C     3.318747425599999e+00   5.372857425833497e+00   3.884133300000000e+00  3.66434945e+00   1.77028850e-01  -7.52810390e-01
C     4.618515007800000e+00   6.234838427110093e+00   3.676046700000000e+00 -1.62371965e+00  -5.69866939e+00   1.13381811e+00
C     5.897090639900000e+00   5.409287491634426e+00   3.667895100000000e+00 -4.86376211e+00   5.85981870e-01   5.83935080e-01
C     7.044631604799999e+00   6.137904946382810e+00   3.467454000000000e+00  2.72040000e-04   1.23746461e+00   6.38765780e-01
C     8.250142122600000e+00   5.520478131209642e+00   3.689391900000000e+00  2.96792935e+00   8.70517420e-01   6.23096250e-01
C     9.516568164099999e+00   6.319805423940808e+00   3.916022700000000e+00 -2.61152477e+00  -2.10670655e+00  -2.64581599e+00
C     1.066566222690000e+01   5.549529638054802e+00   4.103916900000000e+00  4.01761110e-01  -2.81932359e+00  -2.01588874e+00
C     1.194861525530000e+01   6.000804728868550e+00   3.803664000000000e+00  6.21156190e-01   5.28017433e+00   3.22283400e-01
C     4.510697337500000e+00   7.581948536319758e+00   3.620469000000000e+00  2.99949880e-01   4.11038136e+00  -2.32920308e+00
C     5.785165540100000e+00   8.283150387850739e+00   3.412809900000000e+00  5.02482950e-01  -1.43073531e+00   1.10288353e+00
C     6.994094371999999e+00   7.538677015322253e+00   3.395236800000000e+00  1.37071363e+00   3.21385457e+00   6.04971450e-01
C     8.288541005199999e+00   8.387118903142179e+00   3.550587900000000e+00 -2.03087595e+00  -7.04102040e+00  -2.12636451e+00
C     9.518540213400000e+00   7.665581739713498e+00   3.417600300000000e+00 -4.32702040e-01  -1.24144083e+00   2.84221235e+00
C     1.077692019910000e+01   8.267540222792251e+00   3.437496600000000e+00 -4.94287800e-01  -4.85928910e-01   1.37926475e+00
C     1.196439761500000e+01   7.454621728640486e+00   3.529925100000000e+00  9.85417000e-02   3.99028488e+00  -3.91179040e-01
C     1.306902933890000e+01   8.431216317233309e+00   3.421992300000000e+00  5.08475999e+00  -7.23959428e+00   1.51732814e+00
