64
Lattice="7.10842262195238 0 0 0 7.10842262195238 0 0 0 7.10842262195238 " PBC="1 1 1" Properties=species:S:1:pos:R:3:force:R:3 Energy="-512.58646786"
C     3.737821866274600e-03   5.589359814528620e-02   1.659432826948520e-02 -1.31263090e-01  -1.00747802e+00   3.89097780e-01
C     1.779862656713167e+00   1.764527798763494e+00   7.097832207643819e+00  9.97603590e-01  -2.09774480e-01   1.30404316e+00
C     1.345773678841020e-02   1.841159082555010e+00   1.752624958338982e+00 -6.35333830e-01  -1.42354032e+00   2.78344432e+00
C     1.751371174757266e+00   1.222335920044720e-02   1.803480533036570e+00  3.42768300e-01   4.07321480e-01  -6.09875710e-01
C     8.832669333555417e-01   9.348683237544195e-01   9.639075807574174e-01  3.51463550e-01  -1.08953565e+00  -2.97362828e+00
C     2.706346524903070e+00   2.636990142989314e+00   8.803946330274783e-01 -4.99643500e-01   1.01456746e+00  -6.82523930e-01
C     9.336910268000951e-01   2.694660633536921e+00   2.674536689099702e+00 -1.30549906e+00   1.26178080e-01  -5.86073200e-01
C     2.626317912688777e+00   8.884855107377886e-01   2.692786853334289e+00  1.47166075e+00  -2.39583860e-01   6.86424600e-02
C     3.544114080005194e+00   7.085273401979934e+00   7.107155614752211e+00  5.93629140e-01   6.59515170e-01   6.71144000e-03
C     5.315366375482983e+00   1.756197153958211e+00   2.253540572682880e-02  1.02023915e+00  -1.39901137e+00   4.23588440e-01
C     3.573284487405532e+00   1.735324052861069e+00   1.802610035602524e+00 -1.24551828e+00   1.14637609e+00  -5.51389750e-01
C     5.274713804108785e+00   7.088494370437508e+00   1.861385175025280e+00  2.75304432e+00   8.14765140e-01  -1.67391587e+00
C     4.437916406525838e+00   7.997815663053683e-01   9.522384652686516e-01 -6.60234870e-01   2.74633243e+00  -1.20029682e+00
C     6.233655369739645e+00   2.650624950585188e+00   8.661065613928259e-01 -1.04410259e+00   1.19976072e+00  -2.47810300e-02
C     4.426265701851658e+00   2.711868845183870e+00   2.631565847856444e+00  7.29244260e-01  -2.38639521e+00   1.08333609e+00
C     6.208120494004080e+00   9.245793796015529e-01   2.712124961650868e+00 -3.61939400e-01  -9.65763590e-01  -1.08999238e+00
C     3.610851221436159e-02   3.501836878641197e+00   7.106681696216135e+00 -3.17157300e-01   1.96756120e+00  -1.37072101e+00
C     1.750437270193451e+00   5.315853018095547e+00   2.079789398582220e-02  4.37309470e-01   6.90569080e-01  -1.78046972e+00
C     7.106684895006315e+00   5.325697685834664e+00   1.766345920017011e+00 -4.34773000e-01   9.09371200e-01  -2.08500310e-01
C     1.785511151495471e+00   3.581076384860444e+00   1.753201806834595e+00  9.85072010e-01  -1.67524681e+00   3.99661160e-01
C     9.022985975729725e-01   4.429503232933937e+00   8.741235115078881e-01 -7.78892350e-01   8.58797000e-03   6.25090270e-01
C     2.650962600659638e+00   6.237453328861284e+00   8.432168007983902e-01 -6.46361570e-01  -8.59279530e-01   2.03871271e+00
C     8.694339429370218e-01   6.255111716912757e+00   2.681635017759581e+00  3.90557710e-01  -1.50743133e+00  -8.29643220e-01
C     2.666111857694704e+00   4.420534536114284e+00   2.624773892211487e+00  9.69105400e-02   1.60499838e+00   1.09159329e+00
C     3.613060661354909e+00   3.566305011571858e+00   7.047553268189166e+00 -1.96459180e+00  -2.70376310e-01   1.59105596e+00
C     5.352864797572233e+00   5.379895143258592e+00   7.100237200268843e+00  3.26453390e-01  -1.08507310e+00  -3.82348220e-01
C     3.531427820323733e+00   5.351230429043442e+00   1.749687687028172e+00  7.00726340e-01  -3.62144600e-01   8.02819290e-01
C     5.303850801922808e+00   3.588538664758468e+00   1.705703113635076e+00  1.15968798e+00  -1.20643857e+00   1.92297583e+00
C     4.450623849306708e+00   4.479699359265068e+00   8.690475290833986e-01 -5.06266400e-02   6.88600000e-04  -1.25841047e+00
C     6.205718131495425e+00   6.286727492778600e+00   8.766888701472200e-01  4.22097350e-01  -1.91835885e+00   1.46615299e+00
C     4.426233358528738e+00   6.235268128663670e+00   2.732028544986869e+00 -9.89946650e-01  -1.01359302e+00  -1.48280975e+00
C     6.197274107349354e+00   4.428988440967797e+00   2.625306241981499e+00  3.20256510e-01   1.17145493e+00   3.51775310e-01
C     7.091760406294494e+00   3.293687620977000e-03   3.556601019516392e+00  1.43065010e-01   8.94303110e-01  -3.15880100e-02
C     1.795289142230412e+00   1.801050945269280e+00   3.578367080663058e+00 -8.48815880e-01  -9.07406770e-01  -3.23236060e-01
C     1.295893877316480e-02   1.810660324219674e+00   5.311329075771726e+00 -8.89336670e-01  -9.47206740e-01   9.73520900e-01
C     1.761668506848825e+00   7.095908241977489e+00   5.326190939280266e+00  2.25425190e-01  -6.72979300e-02   5.65555160e-01
C     8.491520493491854e-01   9.071208803941544e-01   4.468898679767787e+00  1.51775737e+00  -7.68838150e-01  -9.61620280e-01
C     2.707507045980011e+00   2.636394457173758e+00   4.456263387476511e+00 -6.85937300e-01   1.57358887e+00  -1.43803390e-01
C     9.281527125684007e-01   2.615589810186446e+00   6.216158982639682e+00 -6.35222170e-01   1.94467778e+00  -3.30666780e-01
C     2.674754846589909e+00   8.836146773901122e-01   6.231800924446539e+00 -4.57812230e-01  -5.72798770e-01  -2.58915790e-01
C     3.516182173077941e+00   7.093843813880190e+00   3.578882725639912e+00  8.47295800e-02   3.95051090e-01   6.32326660e-01
C     5.298517565683700e+00   1.734001104327261e+00   3.608479425144770e+00  1.18372183e+00   2.89208459e+00  -1.63891104e+00
C     3.556744822905994e+00   1.778675336882948e+00   5.366859504605356e+00  4.06771910e-01  -9.52658680e-01  -2.51075860e-01
C     5.352077042177484e+00   7.064459158622086e+00   5.332243405720064e+00 -4.12515090e-01   1.55207364e+00   4.46746940e-01
C     4.427117717386891e+00   8.884120096478978e-01   4.500376765487481e+00 -9.46777600e-02  -1.24764963e+00  -1.11703101e+00
C     6.227289350778078e+00   2.701063545211886e+00   4.417007265726014e+00 -3.77132630e-01  -1.87853110e+00   1.00302364e+00
C     4.488970945972559e+00   2.606404306476882e+00   6.228035592984725e+00 -1.41129357e+00   1.98824288e+00   2.79765600e-01
C     6.217266048378520e+00   8.894441526123218e-01   6.242999533442087e+00  3.24754760e-01   3.48229590e-01  -1.17804931e+00
C     7.103559179411848e+00   3.559812107266524e+00   3.523762452791456e+00 -1.10079370e-01   3.15396220e-01   3.43437090e-01
C     1.778570558733529e+00   5.341574703177565e+00   3.525137150641938e+00 -7.53520530e-01  -1.54369472e+00   2.59296640e-01
C     2.169007210885840e-02   5.346211456168364e+00   5.269482573734275e+00 -2.99358230e-01  -5.23037750e-01   1.59287461e+00
C     1.805371089116584e+00   3.560107959815968e+00   5.312997493644867e+00 -1.12946790e+00  -7.89008460e-01   1.13306710e-01
C     8.774576460535729e-01   4.434212207498557e+00   4.444022968061776e+00  9.08671250e-01   1.22269250e-01  -1.76014846e+00
C     2.634976469029520e+00   6.143435412015057e+00   4.432665201483766e+00  8.09783300e-01   3.41216875e+00   1.81291410e-01
C     8.777542094452794e-01   6.209734034854594e+00   6.230495107211245e+00 -9.68444800e-02   1.10828710e+00  -1.73599370e-01
C     2.615400441807850e+00   4.474486610789369e+00   6.167937505028162e+00  2.56062154e+00  -1.17073497e+00   1.83399310e+00
C     3.577234922192371e+00   3.551688957317519e+00   3.568623352525145e+00 -8.61718340e-01  -2.29893070e-01  -1.54314202e+00
C     5.304604365804754e+00   5.344687694695542e+00   3.570658138500120e+00  8.37865510e-01  -1.82948120e+00  -8.03647800e-01
C     3.539315752568243e+00   5.347736568241485e+00   5.324848513668478e+00  4.62582030e-01  -1.40961689e+00  -4.12842000e-03
C     5.335659287125879e+00   3.498623587280052e+00   5.359744542236546e+00  1.26673572e+00   2.21283865e+00  -1.77463968e+00
C     4.454670816472726e+00   4.400912943903619e+00   4.433219089774316e+00 -5.10640900e-01   1.28068890e+00   1.46620420e+00
C     6.227617333397764e+00   6.194629987387392e+00   4.400643037096738e+00 -3.74532240e-01   9.81150990e-01   1.20710018e+00
C     4.461659888676937e+00   6.221817500297880e+00   6.229325913858707e+00 -9.24591520e-01  -3.42117520e-01  -9.06624400e-01
C     6.280058868266099e+00   4.473666583155926e+00   6.148979981658656e+00 -1.87256524e+00  -1.69511069e+00   2.66290204e+00
