64
Lattice="7.10842262195238 0 0 0 7.10842262195238 0 0 0 7.10842262195238 " PBC="1 1 1" Properties=species:S:1:pos:R:3:force:R:3 Energy="-512.37293219"
C     7.106180978926782e+00   9.688566778381400e-03   1.076954460620480e-02 -4.50491800e-01   1.31954134e+00   7.20934400e-02
C     1.801651038306860e+00   1.791407588058761e+00   6.315698437840220e-02 -7.57758600e-01  -5.51033380e-01  -2.84607851e+00
C     1.127680164436800e-02   1.825296708562706e+00   1.832790407688710e+00 -9.99006010e-01  -9.47631680e-01  -2.93953743e+00
C     1.741349862716043e+00   2.560908766771680e-02   1.780528289407304e+00  1.39119176e+00  -5.58480340e-01   3.11352110e-01
C     8.464167283250094e-01   9.398301449116319e-01   9.024982020801422e-01  1.64410237e+00  -8.85914610e-01   6.30611350e-01
C     2.755004459663458e+00   2.664174030604265e+00   8.503385872529158e-01 -2.87372804e+00  -1.14133000e-01   1.81916741e+00
C     9.289576703458896e-01   2.686441733135225e+00   2.622552012553153e+00  4.56381140e-01  -3.08840910e-01   2.02810928e+00
C     2.685521192405935e+00   8.691112205500738e-01   2.718520693818987e+00 -1.40918951e+00   1.48466199e+00  -2.12145214e+00
C     3.533611954257954e+00   7.063714338099962e+00   4.179752500560000e-03  1.40324950e-01   8.56376260e-01   8.79820140e-01
C     5.308040577299263e+00   1.679182228597892e+00   5.438718122365580e-02  1.09295837e+00   2.84790669e+00  -1.03020661e+00
C     3.552621084775680e+00   1.774434665200535e+00   1.759699544867311e+00  6.09570160e-01  -1.15155880e+00   1.38657939e+00
C     5.339393270443940e+00   7.078104486683437e+00   1.848110053613977e+00 -1.15445342e+00   1.04323670e-01  -7.24701450e-01
C     4.415087636197482e+00   7.932044982762133e-01   9.675945063177328e-01  8.34114370e-01   2.03257192e+00  -1.89664023e+00
C     6.224013505297877e+00   2.692069400239253e+00   8.293506140462348e-01 -7.82882150e-01  -1.95006190e+00   3.15216600e+00
C     4.408906720560940e+00   2.671989741274955e+00   2.653184622486424e+00  6.47864570e-01   3.32359970e-01  -5.14315890e-01
C     6.214607356150188e+00   8.978868261580957e-01   2.683645990518779e+00 -5.36885620e-01   9.44955370e-01  -4.22034610e-01
C     2.681225928037800e-02   3.541171406293193e+00   7.092542688203824e+00 -5.49250790e-01   3.95131370e-01   5.12949890e-01
C     1.773901960009392e+00   5.368157715828448e+00   7.097608576668194e+00 -3.44650750e-01  -1.62613071e+00   1.13253646e+00
C     2.075645188194760e-02   5.365773693050152e+00   1.752437224897588e+00 -8.89538630e-01  -1.59571425e+00   4.96827430e-01
C     1.857317664517889e+00   3.553759285405594e+00   1.774089764535012e+00 -1.93897055e+00   1.22745780e-01  -9.23415550e-01
C     8.812769304430728e-01   4.427191005224103e+00   9.283306363865794e-01  1.47377860e+00   8.30116680e-01  -2.36445580e+00
C     2.656765987970832e+00   6.201897567589853e+00   9.152799278773903e-01 -6.51233870e-01   1.02736232e+00  -1.32093050e+00
C     8.733280790167102e-01   6.230170323381737e+00   2.630654476992334e+00  8.45580970e-01  -9.77605200e-02   8.74845510e-01
C     2.694919237951837e+00   4.461350032534930e+00   2.624481167367995e+00 -3.46892080e-01  -1.12237095e+00   1.18180692e+00
C     3.554227801540478e+00   3.554082363213673e+00   7.094049034041229e+00  1.57853825e+00   3.20318330e-01  -2.14372610e-01
C     5.369010513290169e+00   5.382573739070260e+00   7.098104033724808e+00 -1.03264919e+00  -1.84929052e+00   7.62299450e-01
C     3.565590828351227e+00   5.322377910302672e+00   1.741546979275295e+00 -5.71738540e-01   5.30009870e-01   8.89893540e-01
C     5.290770522375520e+00   3.567056442927019e+00   1.768909288298009e+00  1.56166297e+00   7.42430500e-02  -1.98379781e+00
C     4.445431217667024e+00   4.466833967333582e+00   8.256102331478169e-01  1.73048520e-01  -1.48599960e-01   1.97397561e+00
C     6.217179183454103e+00   6.241321021608826e+00   9.250016199051810e-01  4.37241420e-01  -1.84536630e-01  -1.17591910e+00
C     4.377606345406747e+00   6.172719838514219e+00   2.719329063639333e+00  2.42591116e+00   9.90985690e-01  -1.24002563e+00
C     6.237675111647028e+00   4.442312326158273e+00   2.594967138818207e+00 -1.40976578e+00   9.64062000e-03   1.79971118e+00
C     3.637237686201600e-03   1.708751063086080e-02   3.501516075528357e+00 -1.17808130e-01  -3.09364050e-01   1.98630560e+00
C     1.827049219075441e+00   1.800743292738286e+00   3.563314995765208e+00 -1.13523707e+00  -5.18359100e-01   4.09981000e-02
C     7.098786442296328e+00   1.787209922333199e+00   5.303908380146030e+00  2.90947990e-01  -5.48050800e-02   2.95192990e-01
C     1.741717865755080e+00   7.081695875043740e+00   5.347053519911929e+00  4.71116150e-01   1.82078182e+00  -1.06093982e+00
C     9.019406884940555e-01   9.183075472397008e-01   4.427430345813719e+00 -5.38910220e-01  -1.04340656e+00   1.22702630e-01
C     2.714888289860167e+00   2.669455944032056e+00   4.438161647106228e+00 -1.44730288e+00   5.15352290e-01   6.79248220e-01
C     9.324065348326612e-01   2.660276980071303e+00   6.213891893413485e+00 -1.22035480e+00   4.61162110e-01   1.41083570e-01
C     2.627975241422630e+00   8.624230478753682e-01   6.216993440371043e+00  1.27369284e+00   4.55838300e-01   1.19386313e+00
C     3.527647419005965e+00   6.606994488385200e-03   3.593228446582013e+00  8.69469560e-01  -1.18266294e+00  -6.45754600e-02
C     5.264865155653002e+00   1.815223931541714e+00   3.531346642137413e+00  1.79629313e+00  -2.28081305e+00   9.61075040e-01
C     3.563855591305459e+00   1.765129739990955e+00   5.370766791266893e+00  5.80300100e-02   9.46257000e-02  -6.88937320e-01
C     5.351808059465543e+00   7.089717303465053e+00   5.381053673977200e+00 -3.46448570e-01   5.03543470e-01  -2.93815730e+00
C     4.458847583435785e+00   8.681340967767286e-01   4.464010359700465e+00 -8.72556980e-01   7.45048220e-01   3.38038040e-01
C     6.190093605323987e+00   2.644127710142056e+00   4.377320373564744e+00  5.03690050e-01   1.84905117e+00   1.47150585e+00
C     4.471054166758850e+00   2.644836633129949e+00   6.282454548857492e+00 -8.80209220e-01  -2.89861220e-01  -2.09083216e+00
C     6.220482396361391e+00   9.008211830156319e-01   6.209835969634965e+00  4.92697500e-02  -1.09701220e+00   7.99817300e-01
C     7.091597125826912e+00   3.535316696170683e+00   3.492642418319132e+00  8.80965390e-01   7.43011000e-01   9.11650450e-01
C     1.793717612157583e+00   5.295162674543966e+00   3.526778556509122e+00 -1.15866247e+00   1.65628549e+00   2.00184950e-01
C     9.939636265319799e-03   5.329801520381642e+00   5.294841089504636e+00 -7.64430870e-01   2.66052360e-01   1.03474850e+00
C     1.767703202232074e+00   3.579393607973612e+00   5.338010895497027e+00  1.02000999e+00  -1.15583857e+00  -4.40555280e-01
C     8.640436260642758e-01   4.432247084065258e+00   4.440107009124644e+00  9.98457350e-01  -2.16216540e-01  -9.17563180e-01
C     2.635849952001066e+00   6.222171641912808e+00   4.441268951886109e+00 -2.81173600e-02  -8.87761210e-01   7.04545670e-01
C     8.672264933766071e-01   6.266215073045197e+00   6.227046455977153e+00  1.69156900e-01  -2.10375667e+00  -2.73368150e-01
C     2.678266904953772e+00   4.441128205118233e+00   6.240989698030509e+00 -1.45269019e+00   5.02857350e-01  -1.02451317e+00
C     3.548111288212873e+00   3.561884354628706e+00   3.529648582141947e+00  5.33547630e-01   2.05440610e-01   1.10498998e+00
C     5.319043775756986e+00   5.294732188470099e+00   3.540162650039189e+00 -2.29320570e-01   5.90759870e-01   4.70512820e-01
C     3.520584419206507e+00   5.314607124862940e+00   5.335986487819078e+00  1.27511320e+00   1.15876553e+00   3.07556290e-01
C     5.334146970213474e+00   3.595396017891530e+00   5.313304079912467e+00  1.66287680e-01  -2.34788594e+00   1.68489321e+00
C     4.421055583492329e+00   4.451278535030010e+00   4.485339181771776e+00  6.03419830e-01  -5.77431690e-01  -1.92615343e+00
C     6.216587904860572e+00   6.193047297091050e+00   4.377449889024880e+00  2.94852050e-01   7.83820040e-01   2.12449145e+00
C     4.453701227627358e+00   6.234486202175470e+00   6.241771055844898e+00 -4.30384630e-01  -8.48977320e-01  -8.16476190e-01
C     6.227259068897716e+00   4.429963716551261e+00   6.257640822596727e+00  7.55726170e-01   1.45117882e+00  -2.52752189e+00
