64
Lattice="7.10842262195238 0 0 0 7.10842262195238 0 0 0 7.10842262195238 " PBC="1 1 1" Properties=species:S:1:pos:R:3:force:R:3 Energy="-512.78993005"
C     1.546366256754800e-02   2.506756803252520e-02   5.718228408206599e-03 -1.04082455e+00  -5.02513850e-01   3.07722170e-01
C     1.769038590505467e+00   1.755482970737579e+00   1.037054884454420e-02  1.03147134e+00   6.14672940e-01  -3.42098890e-01
C     1.272905238563400e-02   1.824810421371272e+00   1.755001375105074e+00 -1.33995985e+00  -1.49889314e+00   7.08409480e-01
C     1.754511178281199e+00   7.094898419460093e+00   1.801247564238949e+00  6.48456550e-01   1.27615524e+00   7.08338720e-01
C     8.923682733412850e-01   9.118868645081858e-01   9.277883348248995e-01  1.25778300e-01  -9.27152060e-01  -1.12220671e+00
C     2.688464079370615e+00   2.655555921188230e+00   8.501374899769960e-01 -1.04906790e-01  -4.92387000e-01   1.18523390e+00
C     8.507119216089182e-01   2.673943420147836e+00   2.642863832600220e+00  2.32940204e+00   7.82100530e-01   4.01557300e-02
C     2.684014704400079e+00   8.840810609982104e-01   2.726660548561149e+00 -4.00749250e-01   3.21302660e-01  -2.00264880e+00
C     3.548277838554859e+00   7.102960721311470e+00   4.234494463156620e-02 -8.05451710e-01  -5.45275490e-01  -2.30852440e+00
C     5.318683023309021e+00   1.774049957368341e+00   7.098841319318955e+00  6.87075430e-01  -1.44334220e-01  -1.62223980e-01
C     3.584499161436201e+00   1.744575309479868e+00   1.784449082071817e+00 -1.04177013e+00   1.00307762e+00  -1.65640170e-01
C     5.301933660342194e+00   4.282696676942840e-02   1.769722776182642e+00  8.73500240e-01  -1.06062908e+00   9.91025390e-01
C     4.413065147793640e+00   8.670960538215300e-01   8.334274365872572e-01  1.28986979e+00   1.33750738e+00   2.87286742e+00
C     6.237160532933567e+00   2.678322563902887e+00   8.290406868200028e-01 -7.36552360e-01  -8.33521870e-01   2.29795122e+00
C     4.474928754676333e+00   2.653965411627005e+00   2.682375075638549e+00 -5.88101700e-01  -5.34893100e-02  -7.87804600e-02
C     6.197234442351133e+00   9.512474800711974e-01   2.684542931284970e+00  6.67749780e-01  -1.65973859e+00  -7.77509540e-01
C     1.621495175425580e-02   3.543414397966708e+00   4.027987677623000e-03 -1.07871860e+00   6.46937440e-01  -1.37314401e+00
C     1.742534552429892e+00   5.389606812410488e+00   7.060708825932000e+00  6.33536030e-01  -2.26084802e+00   1.03060430e+00
C     7.103312872568066e+00   5.341643157287396e+00   1.814351230496657e+00  1.73992200e-02  -1.76739400e-02  -1.78453741e+00
C     1.777919995895347e+00   3.528314331216173e+00   1.712676618393749e+00  7.38796270e-01   1.50833229e+00   1.47591694e+00
C     8.630437553385466e-01   4.418313011877081e+00   8.495167825138176e-01  1.10196016e+00   2.07964099e+00   1.15426850e+00
C     2.627858663291662e+00   6.247508690246858e+00   9.212780148841464e-01  6.03170590e-01  -4.72542060e-01  -1.51597251e+00
C     8.779710874194157e-01   6.224568033346463e+00   2.671560108211803e+00  2.48022100e-01  -1.37758901e+00   5.68456870e-01
C     2.722213092864720e+00   4.475201433768036e+00   2.650330946225625e+00 -2.13272098e+00  -1.68240989e+00   5.03873000e-01
C     3.590470165352774e+00   3.539591275028994e+00   7.083929625767849e+00 -1.05282112e+00   4.12566340e-01  -9.77688500e-02
C     5.385375808182838e+00   5.335707126810112e+00   7.077495294864904e+00 -1.37435933e+00  -3.62355500e-01   1.58429118e+00
C     3.551586738200244e+00   5.389261556323834e+00   1.758393656547791e+00  3.19066100e-01  -2.22762796e+00   5.06766510e-01
C     5.368035308790931e+00   3.514307966369951e+00   1.779055850745797e+00 -9.89271600e-01   1.82468367e+00  -8.26559460e-01
C     4.459899061309736e+00   4.436794839604855e+00   8.590394387082482e-01  9.98437900e-02   3.63417830e-01   5.21627870e-01
C     6.221652798145775e+00   6.241270267471319e+00   9.483511532746783e-01  4.52561870e-01  -8.33502800e-02  -2.30554936e+00
C     4.433359267868382e+00   6.208900430133946e+00   2.687292824575517e+00 -1.21984300e-02   1.19230401e+00  -5.01967010e-01
C     6.216827600871318e+00   4.471388546958894e+00   2.629878166158004e+00  3.81351300e-02  -1.56733555e+00   2.18152985e+00
C     2.690495311134280e-02   7.094088983376354e+00   3.547749896006872e+00 -1.72875252e+00   1.68252391e+00  -9.28690000e-03
C     1.795519312954848e+00   1.840843966180266e+00   3.546625272464162e+00 -7.32548700e-01  -2.46226000e+00   1.15597530e-01
C     1.279046915707080e-02   1.783781245766668e+00   5.332283994813225e+00 -8.60317680e-01   4.85608750e-01   4.80660490e-01
C     1.720249789684644e+00   4.760510628614000e-04   5.329618123078045e+00  2.18059477e+00   8.49344590e-01  -1.05893020e+00
C     8.984846445004377e-01   9.119352017820018e-01   4.409265838071702e+00 -5.55432550e-01  -1.17978700e-02   1.00510939e+00
C     2.656477812517818e+00   2.634995875023273e+00   4.482804105012804e+00  1.45646217e+00   1.60716248e+00  -1.17160994e+00
C     8.787909728844063e-01   2.671964008785071e+00   6.262198387759541e+00  1.21484747e+00  -1.07352511e+00  -1.82759159e+00
C     2.667847023656245e+00   8.643685520622361e-01   6.207562056323053e+00 -8.42692470e-01  -1.56956000e-03   1.23471193e+00
C     3.555211465062634e+00   7.089813693675780e+00   3.595302399965624e+00 -9.58084830e-01   5.94717700e-02  -4.60317740e-01
C     5.305739012223359e+00   1.771938471513296e+00   3.604430325451967e+00  1.27686532e+00   7.29267930e-01  -8.20346470e-01
C     3.571930332896422e+00   1.745446233419270e+00   5.363683034873384e+00 -8.14757080e-01   5.56519700e-02  -1.09445440e+00
C     5.348955449468138e+00   7.094209968729345e+00   5.347727469460532e+00 -8.98362870e-01   7.36009440e-01  -1.23227550e-01
C     4.432127591481015e+00   8.717379959608423e-01   4.447230288347919e+00  5.23340600e-01  -3.09268370e-01   1.06069268e+00
C     6.215712076109562e+00   2.711122745145675e+00   4.488489919013865e+00  7.76191600e-01  -2.20727783e+00  -2.52055468e+00
C     4.483650007304585e+00   2.624326203754879e+00   6.203218170344197e+00 -1.31122308e+00   1.74446867e+00  -3.30987200e-02
C     6.193905496953962e+00   9.067739182860722e-01   6.237507068536291e+00  1.63177051e+00  -8.98820810e-01  -6.82875240e-01
C     6.073365202301800e-03   3.551943509931542e+00   3.535134649467384e+00 -8.87079340e-01   1.26396810e-01   4.42343620e-01
C     1.741198168977332e+00   5.273550368578570e+00   3.578957577330101e+00  1.54946070e+00   1.88178609e+00  -1.13853983e+00
C     7.098082353035816e+00   5.302384121083623e+00   5.284159262833563e+00  2.84979650e-01   2.67253960e-01   1.27032971e+00
C     1.792953030220576e+00   3.545228325250880e+00   5.307717925996540e+00 -9.49040650e-01  -6.83838500e-01   2.18734426e+00
C     8.882484448434116e-01   4.377140743725136e+00   4.461080125728049e+00 -2.74895820e-01   1.53686416e+00  -1.84917290e+00
C     2.604568200914136e+00   6.224431125126801e+00   4.468431300980522e+00  1.41016761e+00  -1.03726094e+00  -7.39157860e-01
C     8.739884514781082e-01   6.226378050998193e+00   6.144203263826469e+00 -1.13004856e+00   1.27325640e-01   2.61713476e+00
C     2.638536722498747e+00   4.446270793462672e+00   6.189009286537532e+00  1.19375060e+00  -4.70419800e-02   9.35232500e-01
C     3.597622020434983e+00   3.560212098207352e+00   3.590366737803654e+00 -1.02813222e+00  -3.21720390e-01  -1.48049135e+00
C     5.310749739328197e+00   5.309544577357202e+00   3.576858175793510e+00  7.95074460e-01   1.43090376e+00  -1.35825334e+00
C     3.519477922141477e+00   5.314418182989701e+00   5.323882336865968e+00  9.85686570e-01   1.14455192e+00   7.51227900e-01
C     5.355978144511339e+00   3.557563357770687e+00   5.302600217131271e+00 -9.83200830e-01   2.63596500e-01   2.13588679e+00
C     4.457234326922177e+00   4.456437970336058e+00   4.462157265007658e+00 -7.13036480e-01  -7.38859980e-01  -2.56397760e-01
C     6.212521531700801e+00   6.232985614160388e+00   4.448155733888817e+00  4.97821710e-01  -1.07528822e+00  -7.03366030e-01
C     4.456563647247980e+00   6.218513007874520e+00   6.235811283236064e+00 -6.46328230e-01  -6.10305010e-01  -2.74102550e-01
C     6.233226163181850e+00   4.416558511006013e+00   6.202883363638795e+00  3.23235330e-01   1.17400716e+00   1.19687080e-01
