64
Lattice="7.10842262195238 0 0 0 7.10842262195238 0 0 0 7.10842262195238 " PBC="1 1 1" Properties=species:S:1:pos:R:3:force:R:3 Energy="-506.12192201"
C     1.462003497100640e-02   2.701029993457120e-02   9.385349903102680e-02 -1.21714185e+00   1.01289054e+00  -2.20145486e+00
C     1.799912602470913e+00   1.677076074059812e+00   3.852992529563840e-02  5.70741400e-02   2.67253598e+00  -5.70938430e-01
C     3.270819825408459e-02   1.805942890632137e+00   1.863930487912823e+00 -1.15627717e+00   3.48084600e-01  -2.70876398e+00
C     1.773494789561719e+00   4.208648238510300e-02   1.825892891967846e+00  5.68354450e-01  -1.77056313e+00   8.50154530e-01
C     9.152189376113107e-01   9.217668611077238e-01   1.008342046218133e+00 -7.70567590e-01  -1.24230364e+00  -2.18103979e+00
C     2.749328597454067e+00   2.656443763173467e+00   8.161524057676808e-01 -1.79373827e+00  -2.70463960e-01   2.51914507e+00
C     9.833289997871026e-01   2.722024719665290e+00   2.587203106379965e+00 -2.25850892e+00   2.66364290e-01   2.16926786e+00
C     2.637589667353085e+00   8.574431002404748e-01   2.774620507304479e+00  1.31615258e+00   2.63284083e+00  -3.81133052e+00
C     3.502756424191320e+00   6.997297288939576e+00   7.099452999085405e+00  1.66132470e+00   2.69268719e+00   8.77969380e-01
C     5.285948452807016e+00   1.669948956288322e+00   1.132608433839246e-01  2.40312483e+00   3.74381508e+00  -5.34954077e+00
C     3.588207270095924e+00   1.808740054933107e+00   1.806828955511720e+00 -1.50895266e+00  -2.67672793e+00  -8.08973130e-01
C     5.350899887391611e+00   4.572599476654299e-02   1.789761703885327e+00 -2.34487128e+00  -2.01899004e+00   1.86742321e+00
C     4.420305502737467e+00   8.442392052238248e-01   9.457428597627219e-01 -6.71130660e-01  -3.23408940e-01  -3.26771370e-01
C     6.230964831777974e+00   2.652848749517629e+00   8.291293288500742e-01 -1.15964417e+00  -1.26076930e-01   3.47359022e+00
C     4.425576184857518e+00   2.688152019617597e+00   2.646697404919186e+00  1.82419110e-01  -1.03077528e+00   1.55788503e+00
C     6.132792966005297e+00   9.178367564095782e-01   2.733591331699875e+00  2.54616373e+00   3.14870620e-01  -1.94789942e+00
C     5.182224908968119e-02   3.578729396963999e+00   1.263884650258620e-02 -1.55088706e+00  -8.75254530e-01  -4.32333600e-01
C     1.671199967585216e+00   5.406976029829780e+00   7.093692546646836e+00  2.31203541e+00  -3.34417530e+00  -2.96035030e-01
C     7.656482004001999e-02   5.363077894855744e+00   1.727874852460666e+00 -4.32370272e+00   1.35414670e-01   2.33511880e+00
C     1.911877722579664e+00   3.551458573340405e+00   1.780634773578152e+00 -3.32515543e+00  -1.13315350e-01  -4.44116189e+00
C     9.079648634118270e-01   4.485009706383338e+00   9.113937532310363e-01  9.14350510e-01  -1.44407434e+00  -1.53795545e+00
C     2.593614690330526e+00   6.162282257244367e+00   8.712482256423244e-01  9.85904490e-01   3.02676358e+00   7.82834420e-01
C     8.834427246469343e-01   6.254136796750425e+00   2.699562317438769e+00  3.99015140e-01  -2.26386220e+00  -1.95515590e+00
C     2.746636922144778e+00   4.412423328315280e+00   2.556454273736857e+00 -1.62780486e+00   5.27479500e-01   3.47686540e+00
C     3.563021986584812e+00   3.612347828734574e+00   7.078022668739082e+00  1.60509164e+00  -2.06381870e+00   1.28563080e+00
C     5.379814818082985e+00   5.396665476072148e+00   3.492936707015600e-03 -7.38707390e-01  -1.77490214e+00   8.48270860e-01
C     3.549235414166000e+00   5.352407299492409e+00   1.727453749504657e+00 -3.30450400e-01  -7.96595890e-01   5.69972940e-01
C     5.185407918448903e+00   3.529841717984533e+00   1.723339252323749e+00  5.65984646e+00   2.37873343e+00  -6.19175470e-01
C     4.438897084510494e+00   4.519851853107947e+00   8.406684312891202e-01 -2.49252700e-02  -1.99304312e+00   4.37088270e-01
C     6.205065578298909e+00   6.267971279937695e+00   9.345381375237205e-01  1.79028653e+00  -1.12796930e-01  -1.02359678e+00
C     4.354120685744076e+00   6.165325728389121e+00   2.715596786342703e+00  3.51319763e+00   1.65201617e+00  -1.96354890e+00
C     6.147463684029584e+00   4.457141704175438e+00   2.549071608172178e+00  1.65076717e+00  -6.39781700e-01   2.86352652e+00
C     7.064169987989905e+00   5.230519532248400e-03   3.497731906746600e+00  1.52743645e+00   2.23251896e+00   1.40064883e+00
C     1.812902605050927e+00   1.934416966854707e+00   3.522764430255608e+00 -3.57479820e-01  -5.04203586e+00   2.07231760e+00
C     3.351351145270440e-02   1.758476469671314e+00   5.311241571089274e+00 -1.66754176e+00   2.06650661e+00   9.31940740e-01
C     1.688041526793424e+00   7.089631789140935e+00   5.324957912292600e+00  2.25192942e+00   2.04037908e+00  -1.32226533e+00
C     8.983630193894097e-01   1.022287562966727e+00   4.385538705292631e+00 -2.70993030e-01  -3.80714707e+00   8.63723620e-01
C     2.710898972001597e+00   2.684816747724293e+00   4.464044622297494e+00 -2.80360740e-01  -3.74054070e-01  -9.70150470e-01
C     8.886386261610234e-01   2.629243668354943e+00   6.236781156418337e+00  1.57231062e+00  -6.36389000e-02   2.50278970e-01
C     2.657290305223284e+00   7.734069015214776e-01   6.227392138569162e+00 -1.08761460e+00   2.51461140e+00  -4.71582500e-02
C     3.529383580146674e+00   7.041639131653552e+00   3.543804294947415e+00 -1.05059892e+00   2.29338340e+00   2.39242149e+00
C     5.279708395094276e+00   1.811577879411464e+00   3.609098853091877e+00  3.48767300e-01  -2.31001486e+00  -1.13415211e+00
C     3.561114725711639e+00   1.774852924787496e+00   5.353408947323793e+00 -6.32211360e-01  -2.39925096e+00   3.37310590e-01
C     5.377044879040650e+00   6.988729009566106e+00   5.324748427077989e+00 -7.42235260e-01   4.54645479e+00   1.84896510e-01
C     4.382685100116058e+00   8.073939760891263e-01   4.485165451922943e+00  2.50875298e+00   1.87295019e+00  -6.02106780e-01
C     6.239769324035107e+00   2.623720779400334e+00   4.413756299724983e+00 -1.28154317e+00   2.50054545e+00   4.03690710e-01
C     4.430213364353675e+00   2.646974349064461e+00   6.262899704735229e+00  1.00292143e+00  -1.70117490e-01  -1.20984464e+00
C     6.275418703232442e+00   9.059550990844744e-01   6.229022597465512e+00 -2.27722395e+00  -2.17130375e+00   8.31107010e-01
C     7.076930743940423e+00   3.556981533379240e+00   3.438215145591899e+00  1.02336863e+00   2.10347800e-02   2.27584398e+00
C     1.765268354232045e+00   5.168856098546685e+00   3.494807786017636e+00  1.95761523e+00   5.66833708e+00   9.10180040e-01
C     5.572441768693019e-02   5.404866249996163e+00   5.237545568250233e+00 -2.01066088e+00  -3.18824718e+00   1.93505340e+00
C     1.843677454520824e+00   3.458739152054173e+00   5.394515391482276e+00 -1.41059994e+00   3.29395365e+00  -1.37548491e+00
C     9.352360424565521e-01   4.412618667768878e+00   4.422141608300214e+00 -1.51499967e+00  -9.72128520e-01   3.58619900e-01
C     2.645333227534182e+00   6.248940042225620e+00   4.447860165676278e+00 -1.19243853e+00  -3.34248192e+00   5.06496010e-01
C     7.557613797149468e-01   6.270955964427380e+00   6.195766481995878e+00  4.15479194e+00  -2.55574340e-01   8.35355410e-01
C     2.718043149987375e+00   4.405813774794751e+00   6.263122482700140e+00 -3.86859532e+00   3.08970591e+00  -2.63289634e+00
C     3.559312456240564e+00   3.553980499517528e+00   3.493908072966623e+00  3.23453420e-01   1.37585483e+00   2.48184815e+00
C     5.348872280923483e+00   5.328676185996670e+00   3.599355977964680e+00 -2.04665993e+00  -8.57429020e-01  -3.25099773e+00
C     3.556417124623212e+00   5.381226337562639e+00   5.365595058389712e+00 -1.05682073e+00  -2.29241468e+00  -6.93305880e-01
C     5.293749164705978e+00   3.544086001735846e+00   5.291944194034309e+00  1.63462478e+00   1.10491260e-01   2.53690939e+00
C     4.363418218194131e+00   4.465187869907468e+00   4.466085805852827e+00  3.40005354e+00  -6.83097610e-01  -1.00057739e+00
C     6.269698413381676e+00   6.229858547965624e+00   4.345111257662809e+00 -1.55066962e+00  -1.20933330e+00   3.08659320e+00
C     4.469600209996155e+00   6.199232762118069e+00   6.240119058428011e+00  1.41025710e-01  -1.83055150e-01  -5.86937130e-01
C     6.256674787962669e+00   4.490920146539190e+00   6.273976759703975e+00 -2.98996010e-01  -7.97148600e-01  -3.52870165e+00
