64
Lattice="7.10842262195238 0 0 0 7.10842262195238 0 0 0 7.10842262195238 " PBC="1 1 1" Properties=species:S:1:pos:R:3:force:R:3 Energy="-513.13168504"
C     7.051596752228101e+00   2.892395838810140e-02   7.059884177823854e+00  1.56119598e+00  -1.50864305e+00   1.53626367e+00
C     1.771394108509056e+00   1.772324387777335e+00   2.276927283102680e-02 -1.23254170e-01   2.05084040e-01  -1.17769324e+00
C     1.966481142019420e-02   1.781781504315210e+00   1.753876325057007e+00 -7.06511680e-01  -1.90834240e-01   1.48665317e+00
C     1.783837046884235e+00   7.104441192490538e+00   1.745708747466627e+00 -8.90143710e-01   7.20138500e-02   1.07061567e+00
C     8.418057078240940e-01   9.041601512886981e-01   8.696200414412134e-01  1.57763247e+00  -1.29935317e+00  -3.71872150e-01
C     2.641492120287238e+00   2.663348316232726e+00   9.000312240098711e-01  5.42007850e-01   9.41624900e-02  -4.86354180e-01
C     9.202983320786580e-01   2.610671634744121e+00   2.669844774749370e+00 -1.10259817e+00   2.13213636e+00   3.79040200e-02
C     2.612228876887484e+00   8.943298425632740e-01   2.672863437499180e+00  2.57587072e+00  -5.07823250e-01   3.63210320e-01
C     3.554787518737577e+00   2.250036120331220e-02   2.273479698131980e-02  1.00093630e+00  -3.15370650e-01  -1.20120858e+00
C     5.370107698321566e+00   1.781370424235095e+00   1.072120733238880e-02 -1.47965681e+00   1.04734618e+00  -6.12280040e-01
C     3.542107016878438e+00   1.813736209771574e+00   1.782803055729930e+00 -1.38119540e-01  -9.91490120e-01   8.87399600e-02
C     5.324075614877006e+00   1.786950820328700e-02   1.778513549184117e+00  3.32692920e-01  -3.15695680e-01  -1.79479830e-01
C     4.462625425721411e+00   9.329756351476184e-01   8.896628787763391e-01 -8.60637530e-01  -7.47688200e-01   5.22060340e-01
C     6.230065616316545e+00   2.685514581572898e+00   9.069507758408577e-01  4.50069270e-01  -1.54804870e-01  -5.23396270e-01
C     4.420222476361266e+00   2.674027299534752e+00   2.668055798028595e+00  8.85075020e-01  -6.99461870e-01   6.05597790e-01
C     6.251226892866701e+00   8.863785031889944e-01   2.692434488825016e+00 -1.06064108e+00   1.57736500e-01  -1.32332313e+00
C     5.323995289701400e-03   3.565724893201840e+00   7.069360984692386e+00 -6.87466000e-03  -5.00864690e-01   1.33502898e+00
C     1.812117550856774e+00   5.338114323046149e+00   7.078069584328373e+00 -1.28137766e+00  -1.69949120e-01   1.01007500e-02
C     3.082567469163000e-02   5.354735450068912e+00   1.773697024185257e+00 -1.34456809e+00   7.05581750e-01  -8.11367210e-01
C     1.762034306276850e+00   3.553459381055256e+00   1.792132576081775e+00  3.83691600e-01  -2.21386400e-02  -1.33448120e+00
C     8.676837782037515e-01   4.494604015477779e+00   8.275266638861690e-01  1.32637486e+00  -1.56523271e+00   2.10110439e+00
C     2.710245494710140e+00   6.213648856444107e+00   8.623460636583935e-01 -1.80618753e+00   1.85977410e-01   6.49778310e-01
C     8.739184335153012e-01   6.240632144372722e+00   2.673346454816209e+00  9.48165730e-01  -6.59667420e-01  -1.87258930e-01
C     2.667562260246088e+00   4.437714811660335e+00   2.641326778377097e+00 -1.57309620e+00   7.81862000e-02   1.33224830e+00
C     3.550852722480502e+00   3.512983880488524e+00   7.090321235050848e+00  1.61777590e-01   5.95963860e-01   9.15743520e-01
C     5.309283627162822e+00   5.287293935040530e+00   2.912192795806840e-02  6.88799930e-01   1.13790193e+00  -7.02348020e-01
C     3.530866752526337e+00   5.295918797458055e+00   1.766337389909867e+00  1.09836118e+00   1.25911798e+00   1.06125670e-01
C     5.362221116677355e+00   3.554205267840773e+00   1.811649390143021e+00 -5.81296180e-01   5.23169480e-01  -1.81612800e-01
C     4.442985991369969e+00   4.410064042847702e+00   9.189762365555642e-01 -1.19273370e-01  -3.88897300e-02  -8.88355940e-01
C     6.191049474913698e+00   6.230388267619266e+00   8.583719578242301e-01  5.30416750e-01  -1.24900680e-01   1.15961116e+00
C     4.429191457517825e+00   6.223478809748400e+00   2.637214840228332e+00 -1.48267160e-01   6.25173000e-03   1.15426515e+00
C     6.280965831908185e+00   4.503187862296786e+00   2.690944989949221e+00 -1.47302851e+00  -1.85722594e+00  -7.41516200e-01
C     7.094189780809105e+00   2.788065520016400e-03   3.580030735893043e+00  3.98501750e-01  -1.24501040e-01  -5.51139350e-01
C     1.755826449718578e+00   1.739016238654123e+00   3.595994547076134e+00  8.54184000e-03   4.39645910e-01  -1.08990556e+00
C     1.702097579513760e-02   1.727519218076987e+00   5.339080073343302e+00 -1.33274307e+00   2.29892615e+00  -7.59232500e-02
C     1.753211900794715e+00   7.108036063977924e+00   5.341716729461512e+00  1.53378970e+00  -2.64641600e-01   3.03296840e-01
C     8.790470893514050e-01   8.614691686439904e-01   4.484959023330058e+00  6.05442500e-02   1.20038180e-01  -1.26198600e+00
C     2.611530190028164e+00   2.656311688681188e+00   4.450016008088472e+00  2.80221510e+00  -2.86329770e-01  -1.17725705e+00
C     8.723520215067579e-01   2.644303785770353e+00   6.219552543598470e+00  1.17408973e+00   3.37942900e-01  -3.40931990e-01
C     2.681931154645930e+00   8.898795434977967e-01   6.205163176941482e+00 -5.47130590e-01   4.57798280e-01   9.65535850e-01
C     3.588882783497502e+00   3.180308280188000e-03   3.605530709273542e+00 -1.39030836e+00  -7.27252800e-02  -1.79657033e+00
C     5.341959055588628e+00   1.733950634526658e+00   3.565412620196144e+00  3.39015810e-01   2.16419525e+00  -8.44257720e-01
C     3.597911972993653e+00   1.806236397402117e+00   5.294273481958429e+00 -1.40340970e+00  -1.32317016e+00   1.00148775e+00
C     5.332589088312075e+00   4.424779828271400e-03   5.357543490256490e+00 -4.25413750e-01   9.16664900e-02  -2.66223900e-02
C     4.505264303628314e+00   8.880116632859394e-01   4.453084216543942e+00 -2.18156832e+00  -3.22859200e-02  -1.11268990e-01
C     6.215607511212822e+00   2.674432266371413e+00   4.415668820830894e+00  9.89151560e-01  -7.29238440e-01   5.31555130e-01
C     4.456518864185473e+00   2.669904201162473e+00   6.182313507850623e+00  2.24341000e-01   1.54354880e-01   9.89152280e-01
C     6.195642013515801e+00   9.030722782909333e-01   6.216207319913497e+00  7.71637010e-01  -3.38455240e-01  -6.67981000e-02
C     4.470053371938180e-02   3.551550343076429e+00   3.545358622637504e+00 -1.17940513e+00   1.13911430e-01   6.55455150e-01
C     1.736135479303142e+00   5.312813030077878e+00   3.571497927548447e+00  2.01423621e+00   1.63286205e+00  -3.56517650e-01
C     7.099893010445584e+00   5.352452295807593e+00   5.351711384917911e+00 -6.61954780e-01  -1.08318585e+00  -9.38554760e-01
C     1.815506704593538e+00   3.541885091924241e+00   5.296485765246226e+00 -2.70005645e+00   1.79798000e-01   2.31177080e+00
C     8.861225999746744e-01   4.457890149993098e+00   4.479662182214765e+00  2.88495770e-01  -9.09263150e-01  -1.28148329e+00
C     2.698533870854107e+00   6.243787288836835e+00   4.509289519021116e+00 -1.22752054e+00  -1.39527663e+00  -2.13620451e+00
C     8.669822479753837e-01   6.208477336819604e+00   6.182876992511710e+00  8.20332460e-01   1.28566402e+00   1.65823239e+00
C     2.660972610308896e+00   4.389735944512836e+00   6.222114490194944e+00  1.12837056e+00   1.28908059e+00  -6.99741940e-01
C     3.518118223062724e+00   3.549422294596680e+00   3.548849568986186e+00  7.54767290e-01  -2.56161770e-01  -5.74516770e-01
C     5.296445602658423e+00   5.357385256768969e+00   3.559469694548919e+00  1.66012917e+00  -2.68134960e-01  -9.58864190e-01
C     3.565648904164032e+00   5.293511885558923e+00   5.325183249289654e+00 -4.49074500e-02   9.50761780e-01   7.99037070e-01
C     5.337772550086579e+00   3.573022897453115e+00   5.294695437925153e+00  3.78942850e-01  -7.96118410e-01   4.27223320e-01
C     4.449978333448586e+00   4.421682688535866e+00   4.384132730382621e+00 -8.62812490e-01   9.01161300e-01   1.88140428e+00
C     6.177432154037469e+00   6.257914283614918e+00   4.451414732407409e+00  9.49360240e-01  -1.47512553e+00   3.82365190e-01
C     4.445796590589692e+00   6.220640914185817e+00   6.240344395425065e+00 -1.35604590e-01  -9.61166060e-01  -1.81747050e-01
C     6.236912164647223e+00   4.417462133689467e+00   6.232671492964810e+00 -1.53122476e+00   1.35228871e+00  -1.18013623e+00
