64
Lattice="7.10842262195238 0 0 0 7.10842262195238 0 0 0 7.10842262195238 " PBC="1 1 1" Properties=species:S:1:pos:R:3:force:R:3 Energy="-508.29372832"
C     7.095108828769645e+00   7.766946891516800e-03   7.087021363102192e+00  1.93092400e-02   1.15157435e+00   1.79651850e-01
C     1.754543663772572e+00   1.769883639786532e+00   3.389153736763600e-03  1.06687190e+00   2.51999030e-01  -2.76791505e+00
C     4.279241983549520e-02   1.767934368135676e+00   1.759706226784574e+00 -1.92145794e+00   2.66673050e-01   7.59714200e-02
C     1.795171142414920e+00   7.107310933786458e+00   1.652664044761304e+00  7.66737690e-01  -4.07519570e-01   3.87422004e+00
C     8.628296496492323e-01   8.843897797925970e-01   8.332658621411045e-01  1.77892808e+00   1.04194260e-01   8.50370510e-01
C     2.672382339456258e+00   2.665184350711246e+00   8.567057435621022e-01 -2.67193350e-01  -4.25571530e-01   1.19778715e+00
C     8.578066960574878e-01   2.670037768423504e+00   2.685713972827389e+00  2.57607409e+00  -1.68729010e+00   2.34957310e-01
C     2.674679284057459e+00   8.932492201565816e-01   2.678031473996598e+00 -1.40328600e-01  -1.56459850e-01  -1.93102227e+00
C     3.644917483831795e+00   3.632908656826020e-02   7.054692470279110e+00 -2.35300678e+00  -1.45720824e+00  -5.07201600e-02
C     5.273742935747346e+00   1.781049905459159e+00   3.780756738899400e-02  2.60198425e+00   3.48348970e-01  -1.36177484e+00
C     3.570182798279521e+00   1.781489703566659e+00   1.741735636811630e+00 -1.42759368e+00  -1.57537209e+00   4.90663770e-01
C     5.359399001812989e+00   6.984236984059850e+00   1.790256165762774e+00  5.94416550e-01   3.31406160e+00   8.58247900e-02
C     4.464619267182094e+00   8.280366932091540e-01   8.924067299076592e-01  3.72601580e-01   1.05908681e+00   7.08813550e-01
C     6.145874027479074e+00   2.757778877012044e+00   8.832316044951204e-01  1.82568840e+00  -4.08154128e+00   8.31180280e-01
C     4.365176770866093e+00   2.678417958934447e+00   2.610689619053350e+00  1.46241310e+00  -1.28040700e-01   1.70329207e+00
C     6.336047079516458e+00   8.174124447613019e-01   2.619260812880093e+00 -4.16642140e+00   1.74091397e+00  -3.02391200e-02
C     5.194437179029280e-02   3.552168846928596e+00   3.405659494087240e-02 -4.27787052e+00  -1.05636187e+00  -1.36091262e+00
C     1.687980038937761e+00   5.337840648775279e+00   4.137101964840000e-04  3.18940470e+00  -1.49827242e+00   2.76680881e+00
C     4.595673416478820e-02   5.312266321294174e+00   1.799586681293786e+00 -1.10276287e+00  -9.41674380e-01  -3.02345400e-01
C     1.803184325065994e+00   3.469645320543134e+00   1.799828936336676e+00 -9.62468270e-01   3.11466150e+00   2.89229370e-01
C     8.709938151967547e-01   4.363261619643812e+00   9.556187334771402e-01  1.58069704e+00   1.76032596e+00  -1.66931701e+00
C     2.693688414575184e+00   6.165459153481698e+00   8.621104905327668e-01 -8.62929400e-01   2.90881518e+00  -1.00869369e+00
C     9.869602663983036e-01   6.199951210392272e+00   2.615764606298672e+00 -1.68318225e+00   2.44764410e-01   1.75539359e+00
C     2.656942063599130e+00   4.477725492471946e+00   2.667159568104665e+00 -9.62526900e-02  -2.96067188e+00   1.83427343e+00
C     3.588172652077764e+00   3.593405801726382e+00   4.498735857209880e-02 -2.29613492e+00  -4.19351230e-01  -2.13205173e+00
C     5.335536311414554e+00   5.355445936909780e+00   3.902509801534760e-02  1.25731628e+00  -2.37317361e+00  -1.21594453e+00
C     3.535253502293591e+00   5.329301513934551e+00   1.786050467519651e+00  8.79530540e-01  -1.61678990e-01   1.99008740e-01
C     5.238735660365275e+00   3.550173512699161e+00   1.787749096188926e+00  3.14391496e+00   1.50604500e+00  -6.91016930e-01
C     4.484128546315364e+00   4.433181344050204e+00   8.678540960097267e-01 -2.32577032e+00   1.72270378e+00   2.15748290e+00
C     6.277554713145526e+00   6.188650808784805e+00   8.854777238745879e-01 -1.30633197e+00   1.54248770e-01   1.66892960e-01
C     4.438784771433097e+00   6.201436515298720e+00   2.724003917775376e+00 -9.15598000e-03  -9.11246600e-02  -1.14493351e+00
C     6.183845515093685e+00   4.432657382218884e+00   2.640360601574587e+00  2.09829730e-01  -2.35244100e-01   2.14880470e+00
C     4.387190489456839e-02   7.063781086188365e+00   3.517043003057223e+00  5.08698210e-01   9.99373210e-01  -7.71042720e-01
C     1.809772624402889e+00   1.721659816395548e+00   3.594389038743180e+00 -1.77279767e+00   1.38869698e+00  -6.30103930e-01
C     7.105771889205002e+00   1.831369860512330e+00   5.234184563867046e+00 -2.30854755e+00  -2.35616157e+00   2.30705514e+00
C     1.743826366072625e+00   7.105234492454930e+00   5.349832557735219e+00  1.30021744e+00   1.54952760e+00  -7.64991510e-01
C     8.218720558604113e-01   8.827529233158896e-01   4.423994063234985e+00  2.86680244e+00  -9.79314390e-01   1.28175130e-01
C     2.688008287312221e+00   2.636105499794255e+00   4.517975371704719e+00 -2.66936546e+00   2.35377571e+00  -2.99281441e+00
C     8.118808835310967e-01   2.576175170611523e+00   6.205500329426348e+00  3.16416311e+00   4.67779724e+00   6.33039110e-01
C     2.702002283503083e+00   9.997813017726404e-01   6.094616116061195e+00 -1.50877127e+00  -4.12592131e+00   4.80736227e+00
C     3.573637633841293e+00   6.267986705214780e-02   3.584334388199869e+00 -1.02780533e+00  -1.85401445e+00  -1.64529619e+00
C     5.297432749307662e+00   1.848467678355989e+00   3.456503979645540e+00  1.19583221e+00  -3.32928544e+00   1.97152446e+00
C     3.592550303064065e+00   1.863563977642536e+00   5.308984149317841e+00 -3.87355270e-01  -2.63289494e+00   1.08328259e+00
C     5.372729142415370e+00   7.052023541922205e+00   5.288170972223386e+00 -1.50252500e-01   3.63447536e+00  -2.57676490e-01
C     4.398641518539624e+00   9.406497460397180e-01   4.406637783144862e+00  3.32442561e+00  -2.29810780e-01   4.35070620e-01
C     6.161011626701042e+00   2.664610061247776e+00   4.414583791202177e+00  1.74919759e+00   1.45697946e+00  -1.06961887e+00
C     4.411629459677078e+00   2.638406282943670e+00   6.264897669081033e+00  1.24023898e+00   2.43536737e+00  -1.14709597e+00
C     6.233143207889873e+00   9.914171762968174e-01   6.177367964981210e+00 -1.28122186e+00  -3.98196978e+00   5.01941010e-01
C     1.139878217652720e-02   3.533609537394264e+00   3.576522729330073e+00 -1.23673067e+00   1.97129003e+00  -9.61782570e-01
C     1.819341201007444e+00   5.331414919063703e+00   3.650534275049215e+00  9.37716000e-02   1.09004373e+00  -3.71946566e+00
C     7.060973330337689e+00   5.381438026388262e+00   5.351521803286635e+00  1.99659245e+00  -1.92045180e+00   2.31223650e-01
C     1.761017233168380e+00   3.569730062842853e+00   5.344749964477693e+00  4.03664320e-01  -3.44601090e-01   1.63082914e+00
C     9.027795534474418e-01   4.499757906214183e+00   4.504482306055888e+00 -9.47542600e-01  -2.03521527e+00  -9.75346050e-01
C     2.714275899251454e+00   6.276922205700799e+00   4.458382692596437e+00 -1.82427976e+00  -6.99197730e-01   1.17360271e+00
C     8.937109832899768e-01   6.210990235300001e+00   6.285488636884387e+00 -2.04245019e+00   1.76589840e+00  -2.73323390e+00
C     2.624672241768021e+00   4.540355884902659e+00   6.285778376190378e+00  5.93503420e-01  -3.20323290e+00  -1.46959927e+00
C     3.497811165658812e+00   3.495013006178676e+00   3.613818632458879e+00  9.12483860e-01   2.46393830e+00  -2.26321446e+00
C     5.271723575049456e+00   5.270366506087072e+00   3.599555937892980e+00  1.62982119e+00   1.19533955e+00  -1.39543281e+00
C     3.521545904450087e+00   5.406718207341353e+00   5.415842862953289e+00  1.16700986e+00  -2.19900361e+00  -1.87440107e+00
C     5.358949394082273e+00   3.570867481546279e+00   5.305645038876322e+00 -2.33246348e+00  -1.39764624e+00   2.42667896e+00
C     4.374469753925671e+00   4.400584392610122e+00   4.490973886214197e+00  1.21513639e+00   1.11327363e+00   1.66136000e-03
C     6.289869984250450e+00   6.218517486180771e+00   4.365584367819124e+00 -3.17334314e+00  -1.08607148e+00   2.46496701e+00
C     4.521330333928681e+00   6.193583343240824e+00   6.214439952797487e+00 -1.26331134e+00   2.01691267e+00   1.23772900e-01
C     6.174514928478446e+00   4.406318614969224e+00   6.253715338373285e+00  2.47122292e+00   2.28145460e+00  -1.10240504e+00
