64
Lattice="7.10842262195238 0 0 0 7.10842262195238 0 0 0 7.10842262195238 " PBC="1 1 1" Properties=species:S:1:pos:R:3:force:R:3 Energy="-505.72910157"
C     7.051611182326019e+00   7.085197697279031e+00   1.259506572766962e-01 -2.25335450e-01   7.01797180e-01  -2.93012821e+00
C     1.775494175592046e+00   1.837372710162241e+00   7.042616539763802e+00 -3.27187580e-01  -3.19504983e+00   2.02893218e+00
C     7.105484993268059e+00   1.775644874151590e+00   1.837767867375687e+00  1.11318378e+00  -8.95241930e-01   2.19496800e-02
C     1.801389661607123e+00   2.001525665536020e-02   1.700706319038574e+00  7.32245400e-02   1.04808192e+00   7.61161370e-01
C     8.860294796383523e-01   9.381593812590271e-01   8.835202775377186e-01 -3.40874040e-01  -1.30971603e+00   8.81472000e-02
C     2.628578959755746e+00   2.575846619318026e+00   8.934761920908383e-01  1.28877141e+00   3.67192992e+00  -7.41595950e-01
C     8.711212692143312e-01   2.652380233382745e+00   2.740939165993717e+00  6.27551000e-02   2.13657998e+00  -2.03543108e+00
C     2.610556762634582e+00   9.074021606772279e-01   2.640697967312132e+00  2.19999246e+00  -2.64441860e-01   9.00121180e-01
C     3.508293743243848e+00   7.024137555405076e+00   5.090284570801040e-02  5.82173764e+00   5.07627195e+00  -3.59130749e+00
C     5.424632782944050e+00   1.844510703820340e+00   3.507046925916300e-02 -2.52267015e+00  -2.84327194e+00   1.04213217e+00
C     3.553799732330302e+00   1.763432817343108e+00   1.752845959198238e+00 -7.88039980e-01   7.70951300e-01   1.62215542e+00
C     5.197809414720208e+00   2.479559978308400e-03   1.856514483846056e+00  3.66308569e+00  -5.99634330e-01  -1.33543915e+00
C     4.437593399801986e+00   8.998851459250302e-01   9.660334256261546e-01 -5.84740340e-01  -7.74432980e-01  -2.52285222e+00
C     6.298753308914438e+00   2.619838087881063e+00   1.002189208850939e+00 -2.58118306e+00   3.79275323e+00  -3.76855934e+00
C     4.475527354945164e+00   2.712614660885160e+00   2.610451486895580e+00 -1.46098810e-01  -1.10754201e+00   8.42775800e-01
C     6.183097282528704e+00   8.810119284477992e-01   2.650365279906879e+00  1.47422250e+00  -1.68587842e+00   1.45485135e+00
C     1.525197374192440e-02   3.485698342430106e+00   5.117289468334420e-02  7.93057650e-01   2.31058475e+00  -1.18093129e+00
C     1.805771293310090e+00   5.355887298870257e+00   3.728154411511400e-03 -1.95861979e+00  -3.06937837e+00  -1.90880106e+00
C     6.753740764952480e-02   5.317446868615403e+00   1.779500553664904e+00 -3.01235799e+00   2.74808957e+00   9.06786000e-01
C     1.748687034375954e+00   3.588801676395408e+00   1.847043648052525e+00  1.42000402e+00  -2.75248434e+00  -2.13873897e+00
C     8.974865508803637e-01   4.457965925778227e+00   9.246184759259630e-01  9.92454140e-01  -1.14067099e+00  -8.84998580e-01
C     2.710991026074526e+00   6.215359569431835e+00   7.629389672870395e-01 -4.57307275e+00  -2.53144460e+00   6.54018398e+00
C     9.822153232152273e-01   6.297661099778875e+00   2.632194872174088e+00 -2.00164168e+00  -3.38011392e+00  -1.57296608e+00
C     2.728134479991406e+00   4.409098647971680e+00   2.635370062389990e+00 -3.01385729e+00   1.74302873e+00   3.19541950e-01
C     3.593992815266342e+00   3.431880332605634e+00   7.046187171530054e+00 -1.99952685e+00   3.49994824e+00   2.48422976e+00
C     5.311323104696726e+00   5.340470338639322e+00   7.105071211987348e+00  6.69280120e-01   1.26816560e-01  -1.52405735e+00
C     3.503350901575031e+00   5.306220181350507e+00   1.695669077517363e+00  4.61336750e-01   9.06629710e-01   2.25646401e+00
C     5.365992134877265e+00   3.644429490618933e+00   1.720961058452002e+00 -1.19144124e+00  -9.04010760e-01   2.51099436e+00
C     4.347873661777167e+00   4.504790385092239e+00   8.391409734365345e-01  4.35407448e+00  -3.66841062e+00  -1.28478427e+00
C     6.135800042026236e+00   6.192828428758579e+00   9.445147375866644e-01  1.76686819e+00   5.29339010e-01   3.11706290e-01
C     4.335003578286753e+00   6.198909613225763e+00   2.684666120248975e+00  3.01089330e-01   1.96361524e+00  -2.11316030e-01
C     6.217006235531759e+00   4.584969909118755e+00   2.709935069894325e+00  7.55499500e-02  -2.99737960e+00  -1.60298332e+00
C     4.251227690004100e-02   7.004275414172952e+00   3.503410185819682e+00 -2.40406145e+00   3.18057713e+00   2.05850328e+00
C     1.729468489727844e+00   1.761919931756894e+00   3.564515039671917e+00  7.67047030e-01  -3.95325260e-01   3.98536430e-01
C     7.095674730294423e+00   1.656446720774310e+00   5.333716768476513e+00  2.67172780e-01   2.43190216e+00  -1.03878770e-01
C     1.809327068473067e+00   2.581210421774400e-03   5.399577157061526e+00 -7.80044510e-01  -6.87276060e-01  -2.78301920e-01
C     9.118900632983646e-01   7.813132445805726e-01   4.443410506368837e+00 -7.50619600e-01   2.02708512e+00   8.31652020e-01
C     2.582632959309115e+00   2.695124600281328e+00   4.428390693709681e+00  3.24031152e+00  -3.04732200e+00  -6.77040960e-01
C     8.076033902195116e-01   2.668825924535246e+00   6.202014856563085e+00  3.32496583e+00  -1.97998947e+00  -7.16221980e-01
C     2.753200768507860e+00   8.294514114789864e-01   6.306251130925562e+00 -2.92952560e+00   2.88864364e+00  -3.49974566e+00
C     3.523344335372947e+00   2.740446196885020e-02   3.586422274091815e+00 -3.79755860e-01   4.36425860e-01  -6.12005190e-01
C     5.416153572106009e+00   1.799357292495839e+00   3.544090408957870e+00 -1.34376432e+00   7.58375270e-01  -1.54337159e+00
C     3.643385903094090e+00   1.747615226413311e+00   5.332120145671833e+00 -2.34284281e+00   1.68262448e+00   1.09992380e+00
C     5.237261231345435e+00   7.297833649132519e-02   5.352592829322791e+00  3.09891036e+00  -2.27100560e+00   1.57070220e-01
C     4.494613398595637e+00   9.789064235698436e-01   4.411865388223836e+00 -1.14000526e+00  -2.02874712e+00   1.25616700e-01
C     6.345372832404315e+00   2.667449094157978e+00   4.345120356443763e+00 -3.84162037e+00  -9.49775800e-02   3.22695752e+00
C     4.532526099555181e+00   2.684315461761130e+00   6.228162336160040e+00 -5.67807200e-02  -1.59984066e+00  -1.29047500e+00
C     6.150683657307992e+00   8.272322330212486e-01   6.320736816709050e+00  2.01064898e+00   1.98583666e+00  -2.38454075e+00
C     3.089746976009200e-02   3.659133049555724e+00   3.533685242095166e+00 -3.55577110e-01  -1.36042615e+00   1.60396570e+00
C     1.803171458821052e+00   5.415437967200853e+00   3.496487719535421e+00  1.80705830e+00  -1.70306950e+00   2.42344156e+00
C     2.902731485299620e-02   5.371429722760434e+00   5.273777909186636e+00 -1.30134559e+00  -1.06825167e+00   3.62886707e+00
C     1.752623892075589e+00   3.528519409208760e+00   5.282206152634491e+00 -1.11368489e+00   1.73540331e+00   1.49451559e+00
C     9.298773580644651e-01   4.559595328313272e+00   4.465995955390910e+00  2.87962630e-01  -2.25469306e+00  -3.30910963e+00
C     2.676820625287507e+00   6.235836802473270e+00   4.518684223608386e+00 -4.62286490e-01  -3.14957560e-01  -2.40429280e+00
C     8.124086128264053e-01   6.249893139530511e+00   6.254274557980800e+00  2.60282014e+00  -4.90082060e-01   1.46781200e-01
C     2.706256887693832e+00   4.280096842453800e+00   6.169795575616803e+00 -1.37550355e+00   4.01075768e+00   6.07181350e-01
C     3.557603093853133e+00   3.514885952213183e+00   3.512191078113716e+00 -1.28560500e-02   1.14203824e+00   6.56276950e-01
C     5.211247105756829e+00   5.427972604227831e+00   3.592035582182151e+00  2.43788840e+00  -4.05190255e+00  -1.32282319e+00
C     3.534187238900591e+00   5.267106583473540e+00   5.268311674360309e+00  4.92529200e-01   5.54016560e-01   2.78593263e+00
C     5.327278314688447e+00   3.558108289448736e+00   5.257012267932009e+00  3.14392559e+00  -2.87936200e-01   1.40787609e+00
C     4.418542187422350e+00   4.425989752885550e+00   4.412270568313176e+00  1.20080570e-01  -1.01788970e-01  -3.94428180e-01
C     6.126764881455085e+00   6.136146577628962e+00   4.488893819587132e+00  1.80749243e+00   4.65737234e+00  -1.31118613e+00
C     4.433867733338391e+00   6.261471125041288e+00   6.193806618795318e+00 -1.07113011e+00  -2.64270645e+00   6.33155590e-01
C     6.358685273034372e+00   4.391933726618487e+00   6.166513972314280e+00 -5.00264931e+00   9.91716640e-01   1.69825091e+00
