64
Lattice="7.10842262195238 0 0 0 7.10842262195238 0 0 0 7.10842262195238 " PBC="1 1 1" Properties=species:S:1:pos:R:3:force:R:3 Energy="-512.94364948"
C     7.057022113624363e+00   1.548911072052760e-02   7.066540078259864e+00  1.49639995e+00  -3.82543740e-01   1.15366746e+00
C     1.732830986879782e+00   1.753730389140618e+00   7.078539166726651e+00  5.16500150e-01   7.26075290e-01   9.03915630e-01
C     7.090401986731812e+00   1.766025543409527e+00   1.794052347778758e+00  9.72439780e-01   5.11987840e-01  -1.04695663e+00
C     1.795951362881691e+00   2.700333368040360e-02   1.760342928198647e+00 -9.85000910e-01  -1.57164381e+00  -8.24763120e-01
C     8.600511804997528e-01   8.842630366172823e-01   8.418384065681460e-01  1.50078460e-01  -2.10560000e-03   1.68153939e+00
C     2.616410548662152e+00   2.657537891583138e+00   8.762072745147150e-01  1.13543760e+00  -3.95598600e-02   6.81028100e-02
C     9.078472190174660e-01   2.655477657455183e+00   2.685767499249718e+00 -9.53624030e-01  -8.25389810e-01  -1.20293800e-01
C     2.667129144055852e+00   8.536223230822249e-01   2.649494640304382e+00 -3.43433680e-01   1.09297794e+00   7.56578800e-01
C     3.572090130236919e+00   3.223570140253320e-02   7.044102484428286e+00  2.25489340e-01  -5.52099810e-01   2.52804839e+00
C     5.331951107381930e+00   1.799314144370535e+00   1.329452740505500e-02  3.02754890e-01  -2.73532300e-02  -1.51330860e-01
C     3.516607683255974e+00   1.774448313371966e+00   1.785772314942530e+00  1.08967580e+00   1.29845970e-01  -5.68384610e-01
C     5.329169510526498e+00   7.104140648382164e+00   1.783282021246066e+00 -2.25649480e-01   5.44936010e-01  -5.60180450e-01
C     4.458839408749772e+00   9.265613499964614e-01   9.103729837428043e-01 -9.25590360e-01  -1.27246767e+00  -1.26486108e+00
C     6.206597585541972e+00   2.670880756262009e+00   9.228699461298954e-01  5.77654040e-01   6.25359870e-01  -7.37548450e-01
C     4.425555925853051e+00   2.653061717859324e+00   2.665479350249976e+00 -9.13597400e-02   1.50909221e+00  -8.39850100e-02
C     6.225097397578974e+00   8.762667009278182e-01   2.644787158508513e+00 -2.46889780e-01   2.29634990e-01   1.20366348e+00
C     7.092215629679078e+00   3.568834685929638e+00   4.513492942569000e-03  7.01083930e-01  -6.07697540e-01   9.32056780e-01
C     1.771626056339147e+00   5.290091383678405e+00   7.091455597132548e+00  6.95244410e-01   2.12016449e+00   5.94855400e-01
C     2.519623048194720e-02   5.379828537338642e+00   1.755824530444470e+00 -2.06706400e-01  -1.33958976e+00   1.20964734e+00
C     1.775977974835563e+00   3.556523893130965e+00   1.804059514058968e+00 -1.28074547e+00  -5.42408100e-01  -1.05134134e+00
C     9.168370989365275e-01   4.477797287540408e+00   9.183017183331524e-01 -1.16611815e+00  -1.53694092e+00  -1.06738474e+00
C     2.667206696946636e+00   6.256983577841281e+00   8.188224003879789e-01  3.26228620e-01  -1.41065855e+00   1.68548976e+00
C     9.035160571151000e-01   6.212351995821313e+00   2.666613996668580e+00  7.57420400e-02   1.08462126e+00   2.23490470e-01
C     2.583774927403018e+00   4.412036559040525e+00   2.690660653044421e+00  2.79186228e+00   1.88780571e+00  -9.85324820e-01
C     3.553361355907326e+00   3.518892330286042e+00   7.071195384233702e+00  6.40900070e-01   5.67118920e-01   1.66227418e+00
C     5.313898130790821e+00   5.286818736988383e+00   5.603128829143560e-02  7.02039340e-01   1.55523821e+00  -2.19883166e+00
C     3.555289017953418e+00   5.306527051955012e+00   1.774442697718096e+00 -7.88934420e-01   8.70910030e-01  -3.20210900e-01
C     5.346773448060701e+00   3.590057308167005e+00   1.792412150343420e+00 -4.24547350e-01  -1.87101169e+00   5.79726620e-01
C     4.461218668884913e+00   4.404515421403209e+00   9.008159227828930e-01 -1.41634416e+00   6.06724430e-01   2.13035930e-01
C     6.205818289170141e+00   6.230319671340983e+00   8.764362368073051e-01 -1.59413810e-01  -1.63958090e-01   3.92284310e-01
C     4.445563292159304e+00   6.223541008446325e+00   2.662834732698431e+00  1.10187510e-01  -4.46381370e-01  -2.50318180e-01
C     6.251463816592626e+00   4.445723942510515e+00   2.707203445249911e+00 -5.58121160e-01   5.92372240e-01  -1.77087386e+00
C     7.086629760100056e+00   7.090999591821475e+00   3.558246477184469e+00  1.30227870e+00  -5.23484700e-02  -2.12254600e-02
C     1.759498589759843e+00   1.699060648117817e+00   3.578620638097913e+00  7.70751190e-01   2.32803835e+00  -5.73390430e-01
C     7.069600254197774e+00   1.810309310310699e+00   5.330094742814717e+00  1.79767424e+00  -1.75270960e+00  -5.90002900e-01
C     1.860919715512122e+00   7.099003178102011e+00   5.338776188276296e+00 -3.24960191e+00  -1.91933800e-02   2.27080140e-01
C     8.791981433320800e-01   8.373825629330252e-01   4.474084913827113e+00  5.08187640e-01   1.12648334e+00  -6.01282270e-01
C     2.677504029038194e+00   2.695616360958180e+00   4.428863617066590e+00 -1.54775667e+00  -2.02434438e+00   1.20922932e+00
C     8.515932238453457e-01   2.645975189180994e+00   6.210529396261546e+00  8.42146900e-02   5.31857020e-01   1.26860759e+00
C     2.682414314131412e+00   9.189828473886008e-01   6.233057338144623e+00  2.63166140e-01  -1.57306780e-01  -1.85949087e+00
C     3.554072624674684e+00   2.232613376489600e-03   3.538916614638129e+00  1.02188164e+00  -1.72498600e-01   3.59064900e-01
C     5.367653586496237e+00   1.818226742509081e+00   3.541477992560794e+00 -1.54824513e+00  -1.96143922e+00  -2.84156070e-01
C     3.588023943876554e+00   1.820807952930855e+00   5.313167384945485e+00 -5.14991530e-01  -6.82593200e-01   2.37833590e-01
C     5.345515186172736e+00   7.513958130470999e-03   5.315920690278889e+00  1.61770940e-01  -2.77831790e-01   6.69590830e-01
C     4.474568641986404e+00   9.168119351204528e-01   4.458715153522375e+00 -7.22533380e-01  -5.63320890e-01  -1.28809439e+00
C     6.246225904300853e+00   2.649042189204619e+00   4.400937965551241e+00 -9.52837930e-01   1.49403817e+00   1.46731663e+00
C     4.480447236408917e+00   2.678813542653251e+00   6.190705071837758e+00 -1.02958492e+00  -4.88782790e-01   9.43092660e-01
C     6.240382567654533e+00   9.306070376464082e-01   6.203338800276058e+00 -2.06648532e+00  -1.01032312e+00   4.04356810e-01
C     1.247748530911220e-02   3.551087158258510e+00   3.580984757292873e+00  5.62378700e-01   8.10684200e-02  -8.52361980e-01
C     1.790408783596425e+00   5.333847279115815e+00   3.606375900723060e+00 -1.24760390e+00  -6.97282480e-01  -1.27839398e+00
C     7.104938639905485e+00   5.325901910816536e+00   5.350626284204967e+00 -3.08796760e-01   3.29937950e-01  -5.20415630e-01
C     1.730530914572629e+00   3.515144698796552e+00   5.416237877998282e+00  2.25354325e+00   1.54352517e+00  -3.70025813e+00
C     8.692732925858098e-01   4.429670138697055e+00   4.473923765886317e+00  9.03994510e-01   3.15525840e-01   8.74366040e-01
C     2.705844741350325e+00   6.204799723292921e+00   4.437082872889417e+00 -3.89902240e-01   8.21561460e-01   7.62664660e-01
C     8.442952906782966e-01   6.221898678484200e+00   6.236309796914405e+00  2.30692822e+00  -6.99090530e-01  -9.73769130e-01
C     2.707598389210679e+00   4.416683334907219e+00   6.220112687300925e+00 -1.95545363e+00   6.03601540e-01  -1.53525900e-02
C     3.479444423293256e+00   3.569793327804171e+00   3.515437565808496e+00  2.35034568e+00  -3.19384340e-01   1.58774990e+00
C     5.354632306856695e+00   5.344444231220806e+00   3.545369925029470e+00 -8.62690630e-01  -4.52133950e-01   5.22058320e-01
C     3.591931017285411e+00   5.353212115101446e+00   5.335566877631820e+00 -9.87959050e-01  -1.42264732e+00  -5.11932460e-01
C     5.337693077921688e+00   3.545267563743742e+00   5.321572241682921e+00  1.50276050e-01   1.04239224e+00  -8.57879310e-01
C     4.416472712344989e+00   4.477558018035019e+00   4.419311745255190e+00  1.14798952e+00  -1.32084962e+00   1.08380350e-01
C     6.234419596255520e+00   6.198554263178989e+00   4.441605038107583e+00 -7.16708310e-01   8.07612070e-01   1.09372910e-01
C     4.452244925085198e+00   6.195945543161676e+00   6.223153883750440e+00  5.92684460e-01   1.35133611e+00   5.74703200e-02
C     6.226625850610726e+00   4.445005565320538e+00   6.224455222679484e+00 -7.73299010e-01  -3.42623860e-01   3.31702600e-01
