64
Lattice="7.10842262195238 0 0 0 7.10842262195238 0 0 0 7.10842262195238 " PBC="1 1 1" Properties=species:S:1:pos:R:3:force:R:3 Energy="-513.12453425"
C     7.101877895293766e+00   1.825627747804120e-02   7.076550656582932e+00  2.75652030e-01  -1.20623206e+00   1.01404336e+00
C     1.736064821582299e+00   1.739413528394355e+00   7.093909993294782e+00  1.46401278e+00   1.84957201e+00   7.92327120e-01
C     7.097856163028048e+00   1.787979977755623e+00   1.748766861961977e+00  4.01089490e-01  -1.13697589e+00   1.02899245e+00
C     1.816734187011559e+00   7.081137153025808e+00   1.749656054547513e+00 -1.94209112e+00   1.18272635e+00   1.83913630e-01
C     8.877760190760864e-01   8.666249075702764e-01   8.772374982050316e-01 -3.18428310e-01   4.90346620e-01  -2.10968780e-01
C     2.642807036303486e+00   2.692910895309008e+00   9.103171115410111e-01  4.63073290e-01  -1.47754162e+00  -8.46912310e-01
C     8.798765711869329e-01   2.650300948682168e+00   2.671897971538931e+00  1.53755080e-01  -2.13322790e-01   4.49518400e-02
C     2.669569536625524e+00   8.792438504895266e-01   2.618121190565655e+00  2.54654500e-02  -5.40969150e-01   1.66171900e+00
C     3.547426676030341e+00   4.837473520320740e-02   7.103797666990749e+00  9.84204690e-01  -1.48025552e+00  -2.07565650e-01
C     5.312080791463792e+00   1.808072147543732e+00   2.731944523431500e-02  3.54707540e-01  -1.06610703e+00  -1.13933163e+00
C     3.542401092322227e+00   1.736670672442202e+00   1.795812890809054e+00  5.44655340e-01   2.58442473e+00  -1.80116963e+00
C     5.308785966495195e+00   7.080797512593025e+00   1.793337169378960e+00  1.47496327e+00   1.13685504e+00  -2.02593998e+00
C     4.446216769450760e+00   8.979592609845937e-01   8.606160868453642e-01 -7.04347920e-01  -3.21571750e-01   1.87382446e+00
C     6.172684012064214e+00   2.660815229832089e+00   9.241603380881039e-01  2.37390142e+00   8.21143580e-01  -1.56015429e+00
C     4.438129872457117e+00   2.660226865691832e+00   2.656613725558312e+00 -1.86968720e-01   1.26273440e-01   1.32059880e-01
C     6.234067444998925e+00   8.688387547110492e-01   2.633923427302593e+00 -5.00144930e-01   5.51243400e-02   7.78038880e-01
C     7.106533059099152e+00   3.587171501835964e+00   4.038643203130380e-02 -2.97510230e-01  -1.45913898e+00  -1.12019157e+00
C     1.797263648781570e+00   5.289980563369760e+00   4.721663098995700e-02 -6.65250190e-01   2.11416621e+00  -1.81307262e+00
C     1.543046623391260e-02   5.343233098174811e+00   1.808176357019341e+00 -2.21562680e-01  -6.32505660e-01  -1.51558460e+00
C     1.752438291160981e+00   3.575799802749618e+00   1.794500533824950e+00  9.16851440e-01  -1.22839363e+00   5.80234820e-01
C     9.163460491019380e-01   4.439058516788195e+00   9.191309158317754e-01 -1.66369846e+00   4.58210070e-01  -6.74634300e-02
C     2.659600471490557e+00   6.261952223084210e+00   8.618703680166632e-01  1.24592863e+00  -2.22623003e+00   5.81563190e-01
C     9.185115589688947e-01   6.204687552383978e+00   2.606880286455518e+00 -3.28629840e-01   4.61491670e-01   2.92910998e+00
C     2.655668021012947e+00   4.443142732088742e+00   2.702376613038253e+00 -1.34272712e+00   1.29852459e+00  -1.89959460e+00
C     3.581036364441094e+00   3.556456078779170e+00   7.098767960397516e+00 -1.43663614e+00  -5.12675390e-01   5.86732890e-01
C     5.308209117999583e+00   5.280766625969715e+00   5.418167672571160e-02  6.40081220e-01   2.05021897e+00  -1.82785720e+00
C     3.537141925846820e+00   5.321659817449599e+00   1.783536005186278e+00  7.91638020e-01   4.80351430e-01  -3.87729500e-02
C     5.375870496539600e+00   3.570458889414081e+00   1.764250570281313e+00 -2.32697502e+00  -1.15774785e+00   1.94213070e+00
C     4.448696613765973e+00   4.395177655281124e+00   9.199193820687858e-01 -4.60207850e-01   1.58987204e+00  -7.18722510e-01
C     6.215772497701831e+00   6.224378025209830e+00   8.830176409742584e-01  7.02018400e-02  -8.48471210e-01   4.54349640e-01
C     4.466202455068021e+00   6.221379337127583e+00   2.652745606305412e+00 -1.41763662e+00  -1.34154170e-01   4.01914000e-01
C     6.230671680429126e+00   4.430106809098602e+00   2.687386869006780e+00  2.83979400e-01   6.59156390e-01  -5.59010650e-01
C     7.106986292125403e+00   7.082843458791513e+00   3.533339843840061e+00  8.43942120e-01   5.56266400e-02   1.40820590e-01
C     1.805408195082661e+00   1.705688114863348e+00   3.559072546977140e+00 -1.44352726e+00   2.34634136e+00  -8.98030890e-01
C     6.333817807098600e-03   1.807999001874972e+00   5.307114492000329e+00 -7.25716910e-01  -1.14096040e+00   9.35101580e-01
C     1.855167011254209e+00   4.297681231825800e-03   5.327718397132851e+00 -2.14374639e+00  -9.54192600e-01   4.02509300e-02
C     9.016761130041393e-01   8.399654082920022e-01   4.430635462488851e+00  1.89550610e-01   1.15993602e+00   4.74288640e-01
C     2.646091269722378e+00   2.689690140104112e+00   4.423844146601930e+00  3.26480550e-01  -9.89355610e-01   8.34731000e-01
C     8.692494082858065e-01   2.668451097410493e+00   6.249148887682196e+00  2.21030880e-01  -6.84871500e-02  -8.70863730e-01
C     2.699452776646194e+00   9.108569251547739e-01   6.227802792143920e+00 -1.22570979e+00   7.20777100e-02  -9.37334990e-01
C     3.556887346779525e+00   4.946886361287780e-02   3.519940396117135e+00  8.38068010e-01  -2.13225314e+00   7.67493550e-01
C     5.345042831489637e+00   1.743829493778577e+00   3.517515357740321e+00 -4.91571710e-01   1.91126018e+00   9.76570680e-01
C     3.559819144604918e+00   1.807411561829655e+00   5.337060143971602e+00  3.64194770e-01  -1.14204090e-01  -8.60024280e-01
C     5.358798766606956e+00   7.103345002638307e+00   5.308431540543362e+00 -1.33397813e+00   6.17335310e-01   1.50934974e+00
C     4.459551246190939e+00   9.245307579908323e-01   4.427556449230998e+00 -5.15477000e-01  -1.31318949e+00  -4.09395000e-03
C     6.190286883335024e+00   2.674372768874084e+00   4.425418164622676e+00  1.09685625e+00  -6.09091820e-01   2.08470660e-01
C     4.446029675767401e+00   2.654281878602047e+00   6.208897800017577e+00 -6.20936300e-02   1.50224674e+00   4.67296210e-01
C     6.199733266154742e+00   9.079591766737310e-01   6.241594198290113e+00  1.05102437e+00   1.03061320e-01  -1.48240896e+00
C     7.100658374309079e+00   3.530807255029007e+00   3.568683774117415e+00  2.96404390e-01   6.44665260e-01  -2.66909800e-02
C     1.782098397795609e+00   5.344889076308366e+00   3.587686649223235e+00 -5.15145720e-01  -6.02538320e-01  -8.80293540e-01
C     7.075782520434615e+00   5.323759218986190e+00   5.343646097529033e+00  1.46113129e+00   2.11822040e-01   1.96721850e-01
C     1.770113739426742e+00   3.551672679029720e+00   5.353704515536332e+00 -4.37397700e-01   1.24148650e-01   3.16867500e-02
C     8.675029399322989e-01   4.436644709719120e+00   4.493093831092160e+00  2.53695800e-01   6.81102800e-02  -1.41631632e+00
C     2.702441015347190e+00   6.213038456193727e+00   4.421273740982537e+00 -6.02435110e-01   1.56125152e+00   4.06665520e-01
C     9.199359446934903e-01   6.196949892193655e+00   6.213000710469615e+00 -7.55591330e-01   6.24923560e-01   4.50613480e-01
C     2.646443278810521e+00   4.459519187204923e+00   6.225883375868068e+00  1.60021403e+00  -8.95302980e-01  -6.18256300e-02
C     3.482165029882609e+00   3.596085534885670e+00   3.520120950051683e+00  3.43665042e+00  -1.98882783e+00   1.81741324e+00
C     5.322332700734807e+00   5.324987696583378e+00   3.539297626090562e+00  6.00082210e-01   5.52956820e-01   5.91625630e-01
C     3.548589045297163e+00   5.351771806510181e+00   5.320627176895592e+00  5.61212970e-01  -1.00377700e-02   6.20056690e-01
C     5.334904656980540e+00   3.573496105146929e+00   5.334473175727506e+00 -8.53445000e-01  -6.90081790e-01  -1.02491433e+00
C     4.437099151177217e+00   4.499413787475149e+00   4.416267918689307e+00 -7.31206530e-01  -2.12741427e+00   9.98148830e-01
C     6.222551302764942e+00   6.199494067733579e+00   4.464702862232106e+00  3.36814300e-02   5.38980690e-01  -1.64197025e+00
C     4.442213803420760e+00   6.227215138845925e+00   6.247490208348045e+00 -1.30328340e-01  -2.44188890e-01  -8.34894800e-01
C     6.205275703271557e+00   4.441756021004032e+00   6.208098528978184e+00  1.40898560e-01   7.48723500e-02   1.81133981e+00
