64
Lattice="7.10842262195238 0 0 0 7.10842262195238 0 0 0 7.10842262195238 " PBC="1 1 1" Properties=species:S:1:pos:R:3:force:R:3 Energy="-508.74504567"
C     7.093700792417075e+00   7.068588156985139e+00   8.540840862156200e-03 -8.77931360e-01   1.94519716e+00  -1.07205521e+00
C     1.799504721180977e+00   1.837222367023828e+00   2.653574164046000e-02 -7.72041640e-01  -1.86706462e+00  -1.87247673e+00
C     3.201285235339620e-02   1.787372136537388e+00   1.779050235091927e+00 -1.32648768e+00   3.94169090e-01  -9.68668100e-01
C     1.694657975483894e+00   7.681994132785179e-02   1.744254293114349e+00  2.47643600e+00  -1.91289498e+00   7.73549180e-01
C     8.401722633902442e-01   9.204174692417691e-01   7.830528888483652e-01  1.65279076e+00  -9.68202000e-02   3.93131926e+00
C     2.626279171785498e+00   2.694645492596741e+00   9.654951758653681e-01  1.15823998e+00  -1.85000000e-05  -1.56893815e+00
C     8.739014443852394e-01   2.677475524263488e+00   2.666772230156102e+00  1.16222770e-01   4.73876490e-01   3.31582410e-01
C     2.621650166975354e+00   8.839049142856867e-01   2.710623520625072e+00 -9.53668260e-01   9.67040850e-01  -8.93016550e-01
C     3.597102607994139e+00   7.092373081240112e+00   5.967883319043620e-02 -1.61668771e+00  -1.73595220e-01  -3.52643930e-01
C     5.293723858721451e+00   1.817966716409641e+00   1.111401876637000e-03  2.55618851e+00  -6.79573420e-01   1.54515213e+00
C     3.529879463708645e+00   1.815675245293858e+00   1.853850247048080e+00  5.10513410e-01  -1.85908770e+00  -1.29475004e+00
C     5.357347297792177e+00   1.877277546561040e-02   1.734476586716312e+00 -1.30700269e+00  -8.32866000e-03   3.17898785e+00
C     4.452489312654874e+00   8.923782251329528e-01   9.489979486488721e-01 -3.18411570e-01   1.30171275e+00  -1.68112707e+00
C     6.306250420083299e+00   2.775956819672813e+00   8.885772093895866e-01 -1.79301493e+00  -3.56136868e+00   2.13101360e-01
C     4.500082476791013e+00   2.658148647254649e+00   2.653967401985338e+00 -3.60521230e-01  -3.07203400e-01   8.49751120e-01
C     6.259152286498417e+00   8.601198478622619e-01   2.697148936875052e+00 -1.06271504e+00   1.43912106e+00  -1.39256851e+00
C     9.046825492670420e-02   3.589708000279458e+00   7.058216044287619e+00 -2.02780839e+00  -3.33460900e-01  -3.35073700e-01
C     1.785817951015750e+00   5.296979089776054e+00   7.041028020560910e+00  1.97642826e+00   2.29071150e-01   1.96088951e+00
C     7.102903143088248e+00   5.377694304531214e+00   1.669156011745061e+00 -6.69261850e-01  -4.08484230e-01   2.85309760e+00
C     1.729510358337075e+00   3.609858459133051e+00   1.798560864825493e+00  5.57496160e-01  -1.12070062e+00  -1.33168797e+00
C     9.052763868927167e-01   4.504502067470771e+00   8.232089369025548e-01  4.36108610e-01  -1.63056046e+00   9.35355320e-01
C     2.710334207824438e+00   6.201504827240099e+00   9.323661589921796e-01 -1.91416694e+00   2.38039750e-01  -1.32028187e+00
C     8.185564032135386e-01   6.291516863603051e+00   2.652162786734799e+00  1.84082940e+00  -1.21164884e+00  -9.81721380e-01
C     2.617714873128696e+00   4.436593529076257e+00   2.618908164033915e+00  2.47368684e+00   2.86739370e-01   2.13269243e+00
C     3.577391733995367e+00   3.514060024588966e+00   1.529355801425140e-02  7.61281600e-02   2.20431660e-01  -2.00371500e-01
C     5.268042265143010e+00   5.314597528492403e+00   6.219158950237999e-03  2.54974663e+00  -1.70789144e+00  -1.00024764e+00
C     3.586890150468664e+00   5.268887598760981e+00   1.820783357788590e+00 -8.35436110e-01   1.57229491e+00  -1.90681249e+00
C     5.375813700242866e+00   3.556475555857149e+00   1.819462826118473e+00  1.05138305e+00   6.26794990e-01  -2.16234172e+00
C     4.528888790784753e+00   4.340033284879986e+00   8.457852871436747e-01 -2.96058629e+00   2.70163997e+00   2.86215530e+00
C     6.135893162362558e+00   6.216762061214762e+00   8.520805062159468e-01  2.06084237e+00   2.90091430e-01   2.51571910e-01
C     4.398590337896761e+00   6.272972979345805e+00   2.688879353420075e+00  1.34624355e+00  -1.82593859e+00  -5.95735950e-01
C     6.265590313781125e+00   4.500119653841315e+00   2.632655853380995e+00 -1.58472455e+00  -4.17569910e-01   1.18627119e+00
C     7.058421335532884e+00   7.077152739978846e+00   3.616716949613731e+00 -4.50709300e-02   1.21418078e+00  -8.50232020e-01
C     1.669827046840389e+00   1.753977335742437e+00   3.558841167820858e+00  2.94072614e+00  -6.54989700e-01   1.30157845e+00
C     7.103937276411006e+00   1.772273562555603e+00   5.384830236746753e+00  4.94013400e-02  -1.58096147e+00  -1.24874745e+00
C     1.817097214154763e+00   7.020247613294734e+00   5.422289562511593e+00 -1.55621542e+00   3.95984585e+00  -7.23915260e-01
C     8.098296770998694e-01   8.476535227766632e-01   4.526632719613617e+00  2.38624260e+00  -5.17603410e-01  -1.57941935e+00
C     2.649907995079735e+00   2.583033092418394e+00   4.437912496893397e+00  1.95601340e-01   2.24396606e+00  -1.52741545e+00
C     9.349637898702062e-01   2.622320633396872e+00   6.099454819338629e+00  5.10606680e-01   3.49909883e+00   3.90642772e+00
C     2.698400801182661e+00   9.068149338845896e-01   6.301723634390431e+00  7.45947000e-02  -1.17700836e+00  -8.40271240e-01
C     3.528836587026064e+00   2.203440410057120e-02   3.585486237001214e+00  1.80290660e-01   4.56426020e-01  -5.15398000e-03
C     5.384161547430890e+00   1.793441663191474e+00   3.574942882402778e+00  6.43900100e-02  -1.71232784e+00  -9.02345250e-01
C     3.548953920630248e+00   1.810880898573573e+00   5.372093222927784e+00 -3.50013700e-02  -2.56114556e+00  -8.70010600e-01
C     5.273991232949462e+00   7.043968490661900e+00   5.405651872864126e+00  5.35053350e-01   2.73272860e+00  -1.67591763e+00
C     4.460220504180612e+00   9.134658584247662e-01   4.426956000772287e+00 -9.70750120e-01  -5.81871400e-01   2.23490128e+00
C     6.305630068041252e+00   2.627032806751670e+00   4.468731774004669e+00 -2.34277156e+00   1.42752313e+00  -1.44198598e+00
C     4.454187656987244e+00   2.659145461358651e+00   6.228623886040756e+00 -4.84850420e-01  -2.77841170e-01  -1.05446402e+00
C     6.220323167694703e+00   9.262420396523710e-01   6.266913120146481e+00 -1.66679268e+00  -2.18177088e+00  -2.70535790e-01
C     2.963373438670840e-02   3.591284861669252e+00   3.576819150553327e+00 -1.03230188e+00  -6.41453800e-02  -1.58073687e+00
C     1.795297814506009e+00   5.389143130002985e+00   3.478278428730898e+00 -1.10895777e+00  -1.13951770e-01   1.79316489e+00
C     7.096478408555840e+00   5.421601325033525e+00   5.317416302398137e+00 -6.67051890e-01  -3.27244640e+00  -2.17836530e-01
C     1.793028379500347e+00   3.562080404924566e+00   5.197141507330833e+00  2.85675860e-01  -4.38509970e-01   2.70515811e+00
C     8.719789004034342e-01   4.536163266157156e+00   4.369729715554203e+00  1.54133998e+00  -1.19177852e+00   1.37304291e+00
C     2.697346337771210e+00   6.236947991097228e+00   4.519976463756476e+00 -9.01914350e-01  -1.47421358e+00  -2.71649809e+00
C     8.695896173923997e-01   6.180866730594775e+00   6.249613920689996e+00  1.10008479e+00   1.19052129e+00  -9.81106970e-01
C     2.764832706946323e+00   4.357506285269530e+00   6.167749487249862e+00 -4.43397771e+00   1.27242710e+00   6.95494040e-01
C     3.607503154382140e+00   3.476098773102927e+00   3.522614442538326e+00 -3.31424674e+00   7.80790750e-01  -6.08287310e-01
C     5.298295640729504e+00   5.410287986096890e+00   3.576572132867282e+00  2.67145320e-01  -3.04155656e+00  -1.82375399e+00
C     3.544888898070775e+00   5.261835332679678e+00   5.315612540158313e+00  1.19895836e+00  -3.29880630e-01  -6.88035610e-01
C     5.331195055552067e+00   3.461162128988426e+00   5.229452700181590e+00  8.30635390e-01   3.10390749e+00   3.44173445e+00
C     4.431649336807141e+00   4.342050370882637e+00   4.340533078074398e+00  1.29742869e+00   3.01430049e+00   2.71427319e+00
C     6.123121530525431e+00   6.240871484962337e+00   4.469294903244626e+00  2.10055580e+00  -2.39031210e-01   8.79516430e-01
C     4.376974762056959e+00   6.097081317025811e+00   6.238608731873939e+00  1.44634387e+00   3.49735632e+00  -3.56756200e-02
C     6.251853073815297e+00   4.463176897148270e+00   6.208563917407116e+00 -8.72959250e-01  -5.24557190e-01  -1.42579158e+00
