64
Lattice="7.10842262195238 0 0 0 7.10842262195238 0 0 0 7.10842262195238 " PBC="1 1 1" Properties=species:S:1:pos:R:3:force:R:3 Energy="-510.68491933"
C     7.072951164620842e+00   7.105339981446611e+00   1.537267475801200e-03  3.92799130e-01   9.32211070e-01  -6.91681660e-01
C     1.807024792554901e+00   1.857750851792352e+00   2.936859022298240e-02 -1.73203138e+00  -2.91258858e+00  -1.92003173e+00
C     2.250476842533660e-02   1.807007803424840e+00   1.756211015382320e+00 -5.75273390e-01  -5.58725100e-02   5.63335100e-02
C     1.746897915486727e+00   2.627159265590080e-02   1.723888946644953e+00  1.05674905e+00  -3.45410120e-01   1.08062234e+00
C     8.563420766608629e-01   9.281888233553105e-01   8.411787449490099e-01  1.17092749e+00  -5.93950120e-01   1.26538037e+00
C     2.683627935125324e+00   2.635796709915642e+00   9.167265629647865e-01 -1.21004140e-01   2.24540200e+00   1.35048600e-01
C     8.930698746538790e-01   2.654482478288383e+00   2.688594661094144e+00 -1.53683160e-01   1.08613893e+00  -9.38513260e-01
C     2.628160131494976e+00   8.859675652773322e-01   2.675426663611725e+00 -2.16760000e-03   2.72355320e-01   1.10880720e-01
C     3.567461125426775e+00   7.060358878286418e+00   1.091367498324792e-01 -8.75678240e-01   1.23819851e+00  -2.09471739e+00
C     5.321513241775174e+00   1.770454232870240e+00   5.281188368683760e-02  1.07438205e+00   6.45248040e-01  -4.54808900e-02
C     3.522078183135873e+00   1.796583443821062e+00   1.818405661506426e+00  1.07002026e+00  -1.97948301e+00   4.29975920e-01
C     5.297743742797287e+00   7.079976916285772e+00   1.791764786295416e+00  9.76549990e-01   2.88947720e-01   1.68693668e+00
C     4.378943084280437e+00   8.423118275146380e-01   1.030905245877406e+00  1.93040674e+00   1.26639822e+00  -3.83280034e+00
C     6.337768384053891e+00   2.725324449445494e+00   8.192625539166094e-01 -3.57003808e+00  -1.66817510e+00   2.40749458e+00
C     4.512010267778920e+00   2.614606502085422e+00   2.649087612025161e+00 -1.58040793e+00   1.65194258e+00   2.05924680e-01
C     6.211201000030684e+00   9.106893085493943e-01   2.665608297036303e+00  8.37440770e-01  -1.06681192e+00  -2.63686340e-01
C     5.816879097326960e-02   3.615359169809085e+00   7.052752013072303e+00 -8.98927040e-01  -7.54137070e-01   5.80973870e-01
C     1.809639981236799e+00   5.333108856174049e+00   7.080654420045684e+00  3.68824660e-01  -1.40176787e+00   1.73571848e+00
C     4.036731037445600e-03   5.396142367251542e+00   1.705200903576973e+00 -8.28259000e-02  -1.27455972e+00   1.84651971e+00
C     1.818420447025476e+00   3.555086072487617e+00   1.817370035414918e+00 -1.72902739e+00   3.20645170e-01  -1.43198159e+00
C     8.910215115916997e-01   4.484264672608536e+00   9.136736376179491e-01  1.57394569e+00  -9.97843140e-01  -2.23749029e+00
C     2.713269630945367e+00   6.173346019462814e+00   9.175528460101354e-01 -2.50831581e+00   1.41154412e+00  -6.80445050e-01
C     8.646093854206016e-01   6.270738944284791e+00   2.620468391714779e+00  5.30973430e-01  -4.90321840e-01  -5.64491210e-01
C     2.642537342749284e+00   4.496302857399733e+00   2.616778836038094e+00  1.52013771e+00  -1.68992202e+00   2.30295156e+00
C     3.571852282416054e+00   3.506624188023089e+00   2.669880885536280e-02  4.01983960e-01   8.03604240e-01  -6.84522980e-01
C     5.300810813905138e+00   5.281933971132371e+00   8.793829623201999e-04  9.09407960e-01  -1.83680440e-01  -2.76389420e-01
C     3.563702546966451e+00   5.334484762456377e+00   1.810204389992828e+00  6.47071000e-03  -1.07959139e+00  -1.07664307e+00
C     5.373003598612728e+00   3.538886119505090e+00   1.778935220813935e+00  1.00468813e+00   6.22445830e-01  -1.39441759e+00
C     4.452905368630823e+00   4.376535674791723e+00   8.955742430271312e-01 -1.44861820e-01   1.43255163e+00   7.86113250e-01
C     6.182270501893772e+00   6.188046806114785e+00   8.690609640021504e-01 -6.52607600e-02   1.79261216e+00  -3.72620110e-01
C     4.417349180854035e+00   6.198001867657189e+00   2.713227335830778e+00  5.55318160e-01   4.57095770e-01  -6.41757970e-01
C     6.266105745505302e+00   4.520657877148829e+00   2.591569881479657e+00 -1.84141222e+00  -1.96508802e+00   2.04741841e+00
C     2.433006918570020e-02   7.069968541573717e+00   3.539462896916477e+00 -2.40597268e+00   1.76813184e+00   9.72484190e-01
C     1.692257461165120e+00   1.743370716182683e+00   3.555913777217489e+00  2.72537275e+00  -6.39886250e-01   1.32215439e+00
C     7.092509065364832e+00   1.750131608020791e+00   5.334804996895408e+00  8.57688030e-01   5.98941880e-01  -2.04972310e-01
C     1.837412304076235e+00   7.032926622385124e+00   5.394948081167157e+00 -2.24461983e+00   3.79201769e+00  -7.37259000e-02
C     9.073450800435892e-01   7.808715982831920e-01   4.498479314237524e+00 -1.08467899e+00   2.52248328e+00  -8.96693550e-01
C     2.636977063491693e+00   2.632197075785100e+00   4.402952279269070e+00  7.83045510e-01   9.33281440e-01   3.31273360e-01
C     9.146085373609314e-01   2.714213771637755e+00   6.179609748222879e+00  2.46432380e-01  -5.23950830e-01   2.65246340e-01
C     2.665962580819684e+00   8.858983292410134e-01   6.285248798705188e+00  1.20972839e+00   1.54730950e-01  -6.31201130e-01
C     3.562641685974641e+00   7.106608977052733e+00   3.591896612519930e+00 -9.14509090e-01   1.33980957e+00  -6.81154910e-01
C     5.347014352503293e+00   1.784937572874264e+00   3.570827318958476e+00  4.91424580e-01  -1.67975983e+00  -9.09529100e-01
C     3.568444220275121e+00   1.818805723531480e+00   5.332190021466188e+00 -1.08760871e+00  -1.79227545e+00   1.05620588e+00
C     5.221728545994246e+00   1.584346558813460e-02   5.427008631036332e+00  3.01455855e+00  -4.13879940e-01  -2.32077125e+00
C     4.438204439810400e+00   9.041054875187504e-01   4.473385089620174e+00 -4.99088750e-01   8.81802000e-02   1.46661880e-01
C     6.248079852004375e+00   2.655500901997151e+00   4.379529173725456e+00 -5.47678770e-01   8.95693480e-01   1.60920495e+00
C     4.492868067589749e+00   2.667079314013285e+00   6.274458639673385e+00 -1.67734563e+00  -8.06379640e-01  -1.89989707e+00
C     6.177985615822663e+00   9.308980564684709e-01   6.248534293462471e+00 -1.43143740e-01  -2.15060201e+00  -3.14062000e-02
C     2.228653985090260e-02   3.622906821862775e+00   3.511534615284758e+00 -7.86138320e-01  -1.50170366e+00   5.28904700e-02
C     1.756994363555044e+00   5.424507106032129e+00   3.491544948950830e+00  4.10944650e-01  -2.00234140e+00   1.40703693e+00
C     2.533015316410800e-03   5.372005860413785e+00   5.332596765408505e+00 -1.03078037e+00  -6.35187190e-01  -7.56169590e-01
C     1.785994595317858e+00   3.590821890104012e+00   5.273398532671407e+00  2.32850000e-01  -1.11789522e+00  -1.03775070e-01
C     8.593780128776388e-01   4.490396540129001e+00   4.393661926325862e+00  1.66504003e+00   7.19391580e-01   8.26732710e-01
C     2.657140744011359e+00   6.284543074507474e+00   4.462266947968684e+00  8.34446200e-01  -3.30896386e+00  -8.70014370e-01
C     9.048146237593214e-01   6.217475107087775e+00   6.246511449637498e+00 -3.08522120e-01  -4.25910800e-01  -4.83659170e-01
C     2.744138453762300e+00   4.376048108084216e+00   6.178437142827485e+00 -3.19571384e+00   1.95486707e+00   7.54096300e-01
C     3.615172786967989e+00   3.499590261672146e+00   3.503221101777990e+00 -3.68365053e+00   5.15144820e-01  -2.29519710e-01
C     5.295678106268142e+00   5.320755626092335e+00   3.552325374394687e+00  1.08848805e+00  -3.82471050e-01  -1.67641930e-01
C     3.526571203821297e+00   5.322583983474425e+00   5.297456562523440e+00  1.00022702e+00  -1.37973412e+00   4.85629940e-01
C     5.295039414495735e+00   3.515290634712940e+00   5.261034142366179e+00  2.28075197e+00   7.58909190e-01   2.27416909e+00
C     4.387012778891339e+00   4.345543449758106e+00   4.376902327230462e+00  2.40520108e+00   3.28765934e+00   1.78689840e+00
C     6.157928348389618e+00   6.237327012191327e+00   4.434347907286372e+00  8.45535730e-01  -4.83628140e-01   1.28975315e+00
C     4.393448318226131e+00   6.151566381228944e+00   6.283730084212425e+00  7.29191110e-01   1.82541567e+00  -1.41445620e+00
C     6.231176733856277e+00   4.451017727004082e+00   6.183942473978222e+00 -6.96322280e-01   8.82327800e-02  -4.00682070e-01
