64
Lattice="7.10842262195238 0 0 0 7.10842262195238 0 0 0 7.10842262195238 " PBC="1 1 1" Properties=species:S:1:pos:R:3:force:R:3 Energy="-510.5386306"
C     7.058490926990334e+00   1.132333337883852e-01   4.820114752282700e-02  1.16656767e+00  -2.86779430e+00  -8.90092590e-01
C     1.781463757824096e+00   1.715360616606608e+00   7.095533983526546e+00 -7.92207810e-01   2.60992211e+00  -4.84890020e-01
C     7.098215351623037e+00   1.814804534607134e+00   1.835095029386341e+00  7.20852220e-01   4.50437190e-01  -1.10628601e+00
C     1.765096543657320e+00   2.154235908681480e-02   1.725683894440730e+00 -5.13322190e-01   1.35210320e-01   2.01281104e+00
C     8.500723768257967e-01   9.656282455368146e-01   9.113598460551390e-01  1.08876966e+00  -1.91039879e+00  -1.06535770e-01
C     2.658554182765120e+00   2.654426321749686e+00   8.013559397472459e-01  1.94882299e+00  -7.91197790e-01   2.07282930e+00
C     9.173292861187363e-01   2.683366984930944e+00   2.711361374893028e+00  5.13967910e-01  -8.47904590e-01  -8.80067370e-01
C     2.655579307898650e+00   8.950090523446149e-01   2.670095275562499e+00  9.01487870e-01  -4.91714190e-01  -2.43729770e-01
C     3.593206197219212e+00   6.712412395839799e-03   7.097926678580438e+00 -1.47128815e+00  -1.22289946e+00  -8.03714980e-01
C     5.326231386204974e+00   1.705615395699946e+00   8.331170828556680e-02  5.42695600e-01   3.52778960e+00  -1.87356977e+00
C     3.562533424698138e+00   1.689977861115112e+00   1.756060601159680e+00 -1.46278740e-01   3.31824512e+00   2.94185900e-02
C     5.314268692862002e+00   7.101702246170825e+00   1.846014561709828e+00  7.06845930e-01  -1.08470056e+00  -5.41680640e-01
C     4.459049818059325e+00   8.222485179223666e-01   9.160153652816556e-01 -5.88901780e-01   3.42284230e-01   1.48727000e-01
C     6.180510740789964e+00   2.698550788899942e+00   9.223794649691153e-01  1.40144512e+00  -1.38077658e+00  -6.02958730e-01
C     4.458669872870286e+00   2.687120018821625e+00   2.621571334568498e+00 -1.76163393e+00  -2.60218960e-01   5.20233430e-01
C     6.247173030530742e+00   9.019506402857236e-01   2.670567772414051e+00 -1.55690380e+00   2.97509650e-01   9.91463360e-01
C     2.258651528546660e-02   3.536569839994363e+00   7.082624590459043e+00 -1.54422871e+00  -9.25830470e-01   1.41516056e+00
C     1.676060351551641e+00   5.273033515169869e+00   7.070151370203503e+00  2.45933100e+00   1.47686022e+00   1.43500878e+00
C     7.107888208787428e+00   5.332703036326674e+00   1.811783952583218e+00  8.03055380e-01  -3.42172650e-01  -9.29421180e-01
C     1.839614137982780e+00   3.501295145753327e+00   1.772382890095498e+00 -1.96581492e+00   1.55328960e+00  -3.57027630e-01
C     9.048258550670610e-01   4.361608058373948e+00   8.970491696365550e-01 -1.11236677e+00   1.77563810e+00  -1.18665070e-01
C     2.586357701677768e+00   6.250572917985662e+00   8.317275284019103e-01  2.04054652e+00  -1.00811614e+00   6.70731800e-02
C     9.458719487175010e-01   6.231061719578285e+00   2.663519060544059e+00 -2.54035875e+00  -3.58789510e-01   4.26129840e-01
C     2.627795540498796e+00   4.510899718912998e+00   2.651183246097763e+00  1.58173960e+00  -2.91235255e+00  -4.42856110e-01
C     3.591235600300496e+00   3.567847539280399e+00   7.023056932998385e+00 -6.48818080e-01  -2.67952750e-01   1.77673432e+00
C     5.359499657077287e+00   5.366900946709231e+00   7.054446234519554e+00  1.76376480e-01  -1.79456602e+00   1.73207291e+00
C     3.490981677542421e+00   5.385318087791163e+00   1.754289324411229e+00  1.15029172e+00  -4.73105140e-01  -1.10136210e-01
C     5.295142913129082e+00   3.578691011481851e+00   1.742512516319770e+00  1.20210154e+00   5.39935490e-01   3.12391020e-01
C     4.480624520469060e+00   4.478680437966717e+00   8.369937322157113e-01 -2.48395098e+00   9.30011600e-02   2.66440210e-01
C     6.228291140777914e+00   6.223979527037753e+00   9.585733493391432e-01 -5.62819880e-01   1.09845189e+00  -2.33131234e+00
C     4.406703820391002e+00   6.206899338082191e+00   2.725862841374733e+00  6.05812330e-01   4.73414550e-01  -1.31219157e+00
C     6.196438299017694e+00   4.462350756271374e+00   2.656967511752109e+00  7.68749160e-01  -1.17501117e+00   3.72890200e-01
C     7.089932546501986e+00   6.050973671048799e-03   3.573985164623185e+00  1.81463872e+00   1.45933070e-01  -1.24708000e+00
C     1.827422766684122e+00   1.775848885880784e+00   3.581241797854812e+00 -1.78347424e+00  -3.87041280e-01   1.06841080e+00
C     7.064160747040498e+00   1.842943794222214e+00   5.309822658850096e+00  1.20189283e+00  -1.79010564e+00   7.55553320e-01
C     1.760516658047480e+00   7.079964689798866e+00   5.395299663749941e+00 -3.17705240e-01   4.50935620e-01  -2.62275801e+00
C     8.234466425549676e-01   8.699408445540540e-01   4.489846134965534e+00  2.23453758e+00   7.68096860e-01  -7.13963930e-01
C     2.706019821799455e+00   2.640854423693998e+00   4.539019999039682e+00 -1.59599980e-01   9.60030650e-01  -3.58558292e+00
C     8.549404378886514e-01   2.620407970122509e+00   6.222270235734547e+00  1.73191217e+00   1.33166549e+00  -5.16933200e-01
C     2.688333426562859e+00   8.998422110524054e-01   6.181703605189827e+00 -1.40069390e-01  -1.29839626e+00   2.69941913e+00
C     3.559443819890582e+00   2.385124583801700e-02   3.602560739218680e+00 -1.50775376e+00  -1.30936318e+00  -1.72517172e+00
C     5.344719469344652e+00   1.851289651051903e+00   3.524116025732575e+00 -2.64892030e-01  -2.36224309e+00   1.11936305e+00
C     3.621587854045635e+00   1.798222574993008e+00   5.410384802812975e+00 -1.45601343e+00  -1.87360216e+00  -2.97352227e+00
C     5.371748322262262e+00   7.075981840604880e+00   5.343231889742965e+00 -1.70317880e-01   2.02722454e+00  -1.33960717e+00
C     4.418066278527941e+00   8.347523754793991e-01   4.482056512205859e+00  2.12707992e+00   2.89430670e+00  -3.81830710e-01
C     6.232561099161521e+00   2.707364095601123e+00   4.435099409725758e+00  2.77593940e-01  -4.89286150e-01  -1.88556256e+00
C     4.525679693392954e+00   2.610528471112554e+00   6.221590030774039e+00 -1.28641294e+00   1.99536504e+00   1.05124931e+00
C     6.226720676968477e+00   1.008610957845847e+00   6.224129088249677e+00 -1.04598298e+00  -4.52729406e+00   7.28831790e-01
C     4.163566622254260e-02   3.575217907273945e+00   3.553464214782638e+00 -1.45213906e+00  -5.91966550e-01  -9.01694370e-01
C     1.761184991942212e+00   5.292864095005562e+00   3.591460368623741e+00  7.41579580e-01   2.13675398e+00  -2.30079203e+00
C     7.081310598537736e+00   5.303073922414668e+00   5.310060862092093e+00  1.44329355e+00   3.11386650e-01  -3.74070580e-01
C     1.782319825160222e+00   3.527801885029497e+00   5.332411733167707e+00 -3.69767150e-01  -3.12844800e-01   3.07641600e-02
C     9.112189571188105e-01   4.391581504277666e+00   4.407224796684821e+00 -5.18929750e-01   1.64907681e+00   2.16634428e+00
C     2.651348659092130e+00   6.217294055563643e+00   4.393027499607027e+00 -1.56432110e-01   2.14921380e-01   3.06777925e+00
C     8.237507408746512e-01   6.194555206781430e+00   6.231485381566437e+00  4.01543540e-01   8.35317240e-01   4.52522700e-01
C     2.620168345195988e+00   4.441815234164457e+00   6.184204348267542e+00  1.45491996e+00   5.27967080e-01   2.85433120e-01
C     3.542107798804926e+00   3.603851486598019e+00   3.502743984451735e+00  5.17573110e-01  -1.50538706e+00   2.19795389e+00
C     5.312298238111737e+00   5.257996642296426e+00   3.569776054337204e+00  1.94721100e-01   3.01750667e+00  -1.69880670e-01
C     3.550290801672391e+00   5.375392455118405e+00   5.314500214186735e+00 -4.08487010e-01  -1.63454222e+00   6.82979000e-03
C     5.394591025098953e+00   3.542330008096027e+00   5.288680219619883e+00 -2.79891439e+00  -4.50364370e-01   1.78788497e+00
C     4.427982172661710e+00   4.435803641154722e+00   4.479771723007339e+00  4.90279710e-01  -2.68662790e-01  -1.62915184e+00
C     6.270885164538084e+00   6.217636752618153e+00   4.397123159467992e+00 -2.62515027e+00  -1.45314564e+00   1.76956715e+00
C     4.484251522026690e+00   6.215785292862548e+00   6.173840268087583e+00 -9.10166650e-01   4.31124750e-01   1.61051516e+00
C     6.229361384887580e+00   4.375985056375576e+00   6.174578264523991e+00  6.63655520e-01   2.98694346e+00   1.12354254e+00
