64
Lattice="7.10842262195238 0 0 0 7.10842262195238 0 0 0 7.10842262195238 " PBC="1 1 1" Properties=species:S:1:pos:R:3:force:R:3 Energy="-508.62586871"
C     2.216590991904120e-02   7.012887552513986e+00   7.081844512160725e+00 -5.08712000e-03   1.91443969e+00  -4.29410970e-01
C     1.734747275449682e+00   1.815029871604188e+00   7.101183899993376e+00  9.08729680e-01  -1.66840700e+00   2.71201430e-01
C     6.173018179011580e-02   1.684830296874839e+00   1.748128667779153e+00 -2.95472117e+00   1.71060878e+00  -8.85854030e-01
C     1.781857066847660e+00   4.007906383721500e-02   1.831391043611738e+00  4.75484800e-01  -3.01337276e+00  -1.64836376e+00
C     9.080331042689790e-01   7.746023960377092e-01   8.580266306533505e-01 -2.70689840e-01   3.16924618e+00   5.84366830e-01
C     2.581841578618830e+00   2.703883101044109e+00   9.159521714045636e-01  1.53903935e+00  -6.47677350e-01   7.62545500e-02
C     7.891559672572186e-01   2.682203904821860e+00   2.584407861353102e+00  2.54430480e+00  -1.19511231e+00   3.21934339e+00
C     2.673633706174283e+00   9.243836847268243e-01   2.671528333562691e+00 -1.02426440e+00   1.30401810e-01  -6.33547510e-01
C     3.559028403672669e+00   7.436668251323740e-02   5.857411323106200e-02 -3.78182770e-01  -1.98029199e+00  -1.06636507e+00
C     5.393491849709223e+00   1.811672847937667e+00   7.005146267028127e+00 -1.69882299e+00  -1.76917690e-01   3.29607385e+00
C     3.540019130986491e+00   1.842324224106655e+00   1.822038776307508e+00  7.94716300e-01  -4.10409560e-01  -6.96649060e-01
C     5.322713143513431e+00   4.760126773792520e-02   1.671468665960252e+00  4.97605120e-01  -1.10501558e+00   1.89278008e+00
C     4.443730101049832e+00   1.007260215379595e+00   8.702637091094544e-01  2.70000290e-01  -1.67674414e+00   1.22070480e-01
C     6.285511881426355e+00   2.693692324207625e+00   8.416632550347891e-01 -8.58135750e-01  -1.81524125e+00   4.63535860e-01
C     4.526027863932882e+00   2.692509056178300e+00   2.774034417859461e+00 -1.04189955e+00  -1.98366692e+00  -3.38882961e+00
C     6.214782578767770e+00   8.292075925831204e-01   2.638026693175762e+00 -2.37980580e-01   3.04513246e+00  -1.18666280e-01
C     1.951055864934020e-02   3.633537183554080e+00   7.084111032713111e+00 -7.62028400e-01  -1.54758189e+00  -6.96233000e-03
C     1.843759627886311e+00   5.277821464309796e+00   7.075078289005652e+00 -1.13761740e-01   2.60872422e+00   2.20471706e+00
C     7.044222616770566e+00   5.304563634543142e+00   1.710930007871789e+00  1.40855072e+00   2.92818731e+00   1.72700089e+00
C     1.678113264004296e+00   3.571271097782643e+00   1.783467124571090e+00  2.14067978e+00   2.26512740e-01  -1.66467530e-01
C     9.164609922957034e-01   4.511186970271072e+00   9.239886696818309e-01 -1.42798530e+00  -1.73249785e+00  -3.33450944e+00
C     2.740841922772276e+00   6.171092080818465e+00   9.622229556807035e-01 -1.14832431e+00   1.48707867e+00  -1.28771139e+00
C     8.436617169701759e-01   6.259649236323781e+00   2.677486826655454e+00 -2.27676500e-01  -5.69346490e-01   2.17521480e-01
C     2.600968140278237e+00   4.422011381997815e+00   2.670272346369963e+00  1.92071477e+00  -6.25587430e-01   8.91478120e-01
C     3.564141420979009e+00   3.525275054040766e+00   7.490635395854781e-02 -7.36185160e-01  -3.06711240e-01  -2.43693470e+00
C     5.265041089112847e+00   5.307234268921476e+00   1.228235910819320e-02  1.68046070e-01  -1.14155769e+00  -1.96946210e-01
C     3.605104843674378e+00   5.220774240257511e+00   1.842014510133101e+00 -7.16505970e-01   2.65149229e+00  -1.07824354e+00
C     5.369877172175999e+00   3.500104769301382e+00   1.808451879480093e+00  1.53974660e-01   4.98171310e-01  -3.99232210e-01
C     4.458837844896796e+00   4.318106289045203e+00   9.552438352681613e-01 -3.70414070e-01   2.76071699e+00  -6.67143800e-01
C     6.160425821592928e+00   6.209601391688505e+00   7.677412043564328e-01  1.60131326e+00  -5.04813920e-01   3.23848512e+00
C     4.544804620115159e+00   6.243213994552533e+00   2.630453237547961e+00 -2.81426327e+00  -1.12474983e+00   7.39320020e-01
C     6.206956845221186e+00   4.449264292396407e+00   2.631963706270485e+00  8.72912250e-01  -3.78148650e-01   1.85374580e+00
C     6.985688737211532e+00   3.953278155886800e-02   3.591766741638662e+00  4.09444172e+00  -2.43203133e+00  -4.91710270e-01
C     1.708769189563761e+00   1.777976365686724e+00   3.536413667949401e+00  1.41294695e+00   4.93192560e-01  -3.34646410e-01
C     8.647858164700299e-02   1.756365694658531e+00   5.324180961700234e+00 -2.89681058e+00  -2.14097490e-01   9.55847790e-01
C     1.800272146487032e+00   1.201927638702700e-02   5.394696229753730e+00  2.98709600e-01  -6.82850110e-01  -3.79588322e+00
C     8.786409140828982e-01   8.824696526744825e-01   4.443389110016750e+00  1.77247950e-01  -3.73429400e-01  -1.89415100e-01
C     2.618440074404388e+00   2.652809013435183e+00   4.398767550872677e+00  1.94528290e-01   1.06170760e+00   4.89096600e-01
C     8.849849680185695e-01   2.664293523188507e+00   6.188673484652963e+00  6.65176420e-01   2.24968959e+00   8.42417270e-01
C     2.639460888523574e+00   9.239582456330173e-01   6.216657283065343e+00  4.76402560e-01  -3.57151820e-01   1.24640391e+00
C     3.569724091767852e+00   4.117113080432560e-02   3.465271223768143e+00  7.69604450e-01  -1.87254529e+00   2.58673421e+00
C     5.425699757179312e+00   1.796780560380315e+00   3.614988039064095e+00 -3.67909481e+00  -2.31616698e+00  -1.59197219e+00
C     3.464863555730886e+00   1.790485199139590e+00   5.301565230797800e+00  1.94169419e+00  -2.49287360e-01   6.61640440e-01
C     5.291465370686625e+00   7.107587522510602e+00   5.413498434088987e+00 -5.55834350e-01  -9.55693640e-01  -2.83173881e+00
C     4.377715104272832e+00   9.005776484566705e-01   4.431067725668374e+00  2.08428304e+00  -2.24422700e-01   9.23751780e-01
C     6.257893811357773e+00   2.577067846324142e+00   4.513900397353579e+00  8.61322530e-01   4.05267025e+00  -1.62583877e+00
C     4.406568547108543e+00   2.647641332358896e+00   6.224631227223554e+00  9.48865880e-01   7.14884870e-01  -1.13109000e+00
C     6.209033997394976e+00   8.469084179176348e-01   6.200131195653010e+00  2.28264490e+00   9.77476530e-01   4.87199140e-01
C     7.091079419407497e+00   3.574766806774480e+00   3.549947678112524e+00  4.13547920e-01  -4.69619360e-01   2.60726350e-01
C     1.768253891732445e+00   5.362434013934823e+00   3.561216873744689e+00 -4.50715130e-01   6.14705000e-03  -5.29795110e-01
C     7.082839975664430e+00   5.404527533658321e+00   5.337245744886211e+00  1.26884706e+00  -1.76201419e+00   7.75113100e-01
C     1.800120026242964e+00   3.627188793480611e+00   5.285655301458168e+00 -2.42831030e-01  -2.11015116e+00   1.48200677e+00
C     9.103780307228646e-01   4.555077925738262e+00   4.501022992187864e+00 -1.56143260e+00  -2.89960798e+00  -2.50519979e+00
C     2.710280610317883e+00   6.181192154182318e+00   4.385529393258998e+00 -3.49535820e-01   2.21115159e+00   1.54614670e+00
C     9.820649800768143e-01   6.202791522818545e+00   6.202677148298589e+00 -2.83180480e+00  -4.05860960e-01   1.22059554e+00
C     2.738599855193701e+00   4.448454074386179e+00   6.203845915145769e+00 -1.89509543e+00  -1.91003635e+00   1.29695075e+00
C     3.582569935537133e+00   3.481330714319700e+00   3.540193784930265e+00 -1.86653906e+00   2.86600175e+00   1.54029598e+00
C     5.395610159649983e+00   5.325773461619793e+00   3.607131099542209e+00 -2.34779424e+00   5.17291310e-01  -2.19153796e+00
C     3.548547887530194e+00   5.283606369722179e+00   5.330641451598421e+00  1.98569447e+00   1.94366186e+00  -8.72131890e-01
C     5.373117475543101e+00   3.552789198970643e+00   5.321260110845676e+00 -2.86895466e+00  -1.54406597e+00   2.45367610e-01
C     4.443903759814439e+00   4.397756804260339e+00   4.439955955143970e+00  6.31614900e-01   7.69630050e-01  -2.12968740e-01
C     6.197551691252664e+00   6.226761905819673e+00   4.496490306504222e+00 -3.88576710e-01   1.12483650e+00  -6.18727870e-01
C     4.433365523280289e+00   6.182483612403919e+00   6.275016366512150e+00 -1.85414173e+00   1.97920215e+00  -1.05494980e+00
C     6.104342570732141e+00   4.466857922717812e+00   6.196224477665284e+00  4.73755299e+00   2.86022750e-01   1.08756602e+00
