26
Lattice="8.88768389401873 1.33226762955019e-15 0 4.44384194700937 7.69696003302603 0 0 0 30 " PBC="1 1 1" Properties=species:S:1:pos:R:3:force:R:3 Energy="-207.75933804"
C     7.272058499579437e-01   9.718738993784172e-01   3.459662700000000e+00  1.83338978e+00  -6.40170320e-01  -2.34047230e-01
C     3.140975655517498e+00   3.941801037187732e-01   3.167737800000000e+00 -1.74869189e+00  -1.59609506e+00   1.01081467e+00
C     4.484654856477990e+00   7.370882166809065e-01   3.150694500000000e+00  1.46391252e+00   1.50449633e+00  -4.04655200e-02
C     9.994583909402214e+00   7.470084205246919e+00   3.034927800000000e+00 -5.74715930e-01  -2.16934010e-01   1.01173511e+00
C     6.898955745584962e+00   1.541151531062858e-01   3.308056200000000e+00  1.72081070e-01   5.28414530e-01  -2.88566950e-01
C     1.237826663862071e+01   6.870804208213539e+00   3.427399200000000e+00  6.62083100e-02  -1.79717800e-01  -1.12209040e-01
C     4.875152183450050e+00   7.244251164638702e+00   3.596069400000000e+00 -9.05574830e-01   1.90864199e+00  -1.14553263e+00
C     5.904011089366437e+00   6.295005250174081e+00   3.545839800000000e+00 -4.06915630e-01  -1.65966988e+00   3.63139790e-01
C     7.254537717516211e+00   6.658035217864242e+00   3.338795700000000e+00  1.75601840e-01   1.74522469e+00  -9.92383520e-01
C     8.254739308791770e+00   5.676196295243785e+00   3.167021400000000e+00 -1.88802960e-01   3.73605000e-02   9.20826860e-01
C     9.655329238236042e+00   6.078905400371801e+00   2.984909400000000e+00 -1.59605783e+00  -1.41983680e-01   8.34141410e-01
C     1.065174112110436e+01   5.102388001976885e+00   3.128493600000000e+00  2.04591099e+00   1.00318970e-01  -7.41373300e-02
C     1.204027086344365e+01   5.486579067938325e+00   3.305407500000000e+00 -1.05317088e+00   1.59474481e+00   5.25082600e-02
C     4.180991141028141e+00   4.559403339694125e+00   3.446856900000000e+00 -3.65230570e-01  -1.67316577e+00   6.82468790e-01
C     5.510416274552076e+00   4.881108482922416e+00   3.622639800000000e+00  1.77816487e+00   2.37015854e+00  -7.35456190e-01
C     6.529955066299300e+00   3.901850658878419e+00   3.584671500000000e+00 -1.62029390e+00  -7.55793580e-01   5.55788290e-01
C     7.834664350867627e+00   4.301958268485896e+00   3.442052700000000e+00  4.86661228e+00   9.27377160e-01  -1.78456911e+00
C     8.940661020621798e+00   3.370865095464827e+00   3.283851900000000e+00  2.85369680e-01  -2.45561533e+00   8.97701670e-01
C     1.039244094298536e+01   3.717890774164609e+00   3.188443500000000e+00 -4.02025321e+00   1.65814624e+00   4.45944530e-01
C     2.539761659029677e+00   2.819840496613131e+00   3.317579700000000e+00 -2.43843098e+00  -3.61880496e+00  -3.91706510e-01
C     3.863313011170524e+00   3.176911169969665e+00   3.441850500000000e+00 -9.60602000e-03  -6.79345290e-01  -8.05011080e-01
C     4.804976850107375e+00   2.129724748816106e+00   3.381068100000000e+00  1.92497786e+00  -1.20177510e-01   5.68545520e-01
C     6.183228341532232e+00   2.509294559975533e+00   3.578840100000000e+00 -1.98196860e-01   5.63635200e-02  -1.40081656e+00
C     7.214080488311279e+00   1.554891990169213e+00   3.434379600000000e+00  4.94980040e-01  -8.16067210e-01   4.86738300e-01
C     8.598588509248561e+00   1.933907235358479e+00   3.428934900000000e+00 -3.26827310e-01   2.08277631e+00  -2.51356130e-01
C     2.118695591002791e+00   1.393648528439944e+00   3.295898400000000e+00  3.45559570e-01   3.95168000e-02   4.25904580e-01
