26
Lattice="8.88768389401873 1.33226762955019e-15 0 4.44384194700937 7.69696003302603 0 0 0 30 " PBC="1 1 1" Properties=species:S:1:pos:R:3:force:R:3 Energy="-208.07835569"
C     9.447035616220543e-01   1.230444958869435e+00   3.587655300000000e+00  2.60033078e+00   5.53464690e-01   7.31482900e-01
C     3.465259600135027e+00   6.533007261559327e-01   3.484907100000000e+00 -3.55908624e+00  -2.94531630e-01   8.24058270e-01
C     4.789977638591941e+00   1.090152237493824e+00   3.474501000000000e+00  5.92234360e-01  -1.54412361e+00  -3.43637780e-01
C     5.811528601963987e+00   9.877354867298399e-02   3.341030100000000e+00 -3.16238190e-01   9.56194220e-01   1.65067034e+00
C     7.126818585308520e+00   4.711741033820683e-01   3.564796500000000e+00  2.41587229e+00   7.96497320e-01  -2.08477200e-01
C     1.259726961287939e+01   7.148679782246999e+00   3.639034500000000e+00  1.39655070e-01   1.38353619e+00  -2.44248640e-01
C     5.096660506950554e+00   7.568419181137394e+00   3.688100400000000e+00 -2.40372838e+00  -5.57739350e-01  -5.91267010e-01
C     6.093370304985429e+00   6.595848629906660e+00   3.638551200000000e+00  1.89073666e+00  -5.24025960e-01   1.15474220e-01
C     7.482320390325398e+00   6.966343340342717e+00   3.536316300000000e+00  1.35500862e+00   9.66383780e-01   1.35603530e-01
C     8.548263557225276e+00   6.027395265671832e+00   3.557129100000000e+00  2.03194940e-01   6.60803620e-01  -2.17232580e-01
C     9.939731167946007e+00   6.462671286261183e+00   3.467460900000000e+00 -2.10977438e+00  -3.05901938e+00  -6.71401840e-01
C     1.091709047837454e+01   5.414770202368839e+00   3.455856000000000e+00 -7.94068280e-01   5.62421000e-02   9.88715660e-01
C     3.361674180986491e+00   5.776982906843015e+00   3.564274500000000e+00  1.64572789e+00   7.84873240e-01  -2.64735590e-01
C     4.400612209245896e+00   4.811022966703648e+00   3.582903900000000e+00  1.10752233e+00  -9.92144980e-01   8.18413590e-01
C     5.803797831206541e+00   5.210468021991742e+00   3.677452800000000e+00 -7.87506210e-01  -4.25247900e-02  -5.20833220e-01
C     6.904975420998046e+00   4.273477746074089e+00   3.664340100000000e+00 -4.41052236e+00  -7.69878500e-01   6.01509770e-01
C     8.204425907441335e+00   4.664743780725504e+00   3.644318100000000e+00  2.23900058e+00  -1.12799170e-01  -9.22128360e-01
C     9.204253682723103e+00   3.668472596231195e+00   3.503152800000000e+00  8.99504400e-02  -1.49165525e+00   1.45763283e+00
C     1.056400346039642e+01   4.039382326752070e+00   3.568265700000000e+00 -2.96362800e-01  -6.66368130e-01  -1.30099757e+00
C     2.659659003374144e+00   2.999760785794396e+00   3.540249900000000e+00  1.60559737e+00   4.77050000e-04   1.07587861e+00
C     4.048926912325586e+00   3.425009206856662e+00   3.620145900000000e+00  7.32843800e-01  -1.18187965e+00  -4.12516070e-01
C     5.136260512376156e+00   2.406681151882783e+00   3.644537400000000e+00 -2.97930820e-01   4.33180063e+00  -1.12475160e-01
C     6.528899475431786e+00   2.898322395619825e+00   3.709280400000000e+00 -1.59513509e+00  -1.37338366e+00  -7.05666300e-01
C     7.501698337527403e+00   1.888473696662996e+00   3.650619900000000e+00 -2.22602880e-01  -1.38739720e+00  -2.40534620e-01
C     8.853517990366926e+00   2.249985592926440e+00   3.588425100000000e+00  5.73040550e-01   1.14482570e+00  -1.65113410e-01
C     2.366379432179080e+00   1.572451988720856e+00   3.632243700000000e+00 -3.97760050e-01   2.36237272e+00  -1.47817436e+00
