32
Lattice="9.86 0 0 4.93 8.53901048131456 0 0 0 30 " PBC="1 1 1" Properties=species:S:1:pos:R:3:force:R:3 Energy="-253.6516695"
C     4.912362432000000e+00   8.122318381630253e+00  -8.818568999999989e-01  4.18741695e+00   1.99671921e+00  -4.41898300e-02
C     1.288527576600000e+00   3.247237106761648e-01  -8.177072999999986e-01 -1.23584108e+00   1.12622804e+00  -7.66404900e-01
C     7.465911542400000e+00   8.250097500694650e+00  -8.890121999999998e-01 -6.47743700e-02  -4.56719563e+00   5.36249170e-01
C     3.752544485300000e+00   3.561967101132440e-01  -7.782615000000028e-01  2.48435597e+00   2.20273677e+00   1.72572266e+00
C     1.000762505390000e+01   8.206336865176850e+00  -5.789315999999971e-01 -3.79131819e+00  -8.53048000e-01  -1.94403711e+00
C     6.241089524400000e+00   3.967137171101104e-01  -7.537173000000017e-01  1.47766534e+00  -2.48366106e+00   1.07439744e+00
C     1.242309921060000e+01   8.181143624826973e+00  -6.409088999999994e-01 -2.07885820e+00   1.41072982e+00  -1.02541570e-01
C     8.694128062599999e+00   3.208338498421056e-01  -7.786625999999970e-01 -2.35850020e-01   2.33128687e+00  -1.63848330e-01
C     1.303910261200000e+00   1.754710466951042e+00  -6.943494000000001e-01 -1.21729928e+00   3.62849510e-01   1.40590961e+00
C     2.479344919600000e+00   2.469677203375782e+00  -2.746037999999977e-01  2.27348116e+00  -8.63634310e-01  -2.05274917e+00
C     3.758105377400000e+00   1.806904143828784e+00  -4.840827000000019e-01  6.36759220e-01  -1.40181192e+00  -9.80198770e-01
C     5.062452190100000e+00   2.505536863276647e+00  -6.003317999999993e-01 -3.21751777e+00  -1.08328106e+00   5.59266370e-01
C     6.233970949500000e+00   1.763965985800418e+00  -8.615291999999997e-01  8.09231550e-01   2.02676676e+00   7.87148150e-01
C     7.471347754800000e+00   2.492044116646885e+00  -8.763123000000022e-01  4.07779530e-01  -1.96258229e+00   5.70971550e-01
C     8.745797568499999e+00   1.793899145477639e+00  -7.629702000000016e-01 -3.91782670e+00  -1.95664989e+00  -1.64602275e+00
C     9.895376003799999e+00   2.494650222645381e+00  -7.596707999999985e-01  3.97201049e+00  -1.14931680e-01   1.99992623e+00
C     2.589925953500000e+00   3.880550323982332e+00  -1.508280000000006e-01 -3.06429044e+00   1.14708980e+00   3.87953940e-01
C     3.777242503500000e+00   4.597019243130714e+00  -3.030162000000018e-01  2.79932200e-01   1.41248007e+00   8.63101090e-01
C     5.028783543899999e+00   3.902499167300334e+00  -4.391241000000008e-01 -8.11931300e-01  -4.66649700e-02  -7.59380610e-01
C     6.229444667199999e+00   4.582067862730758e+00  -6.415667999999997e-01 -2.06870470e-01   1.19816740e+00  -1.06539860e-01
C     7.420610955599999e+00   3.862719930808939e+00  -8.276834999999991e-01  3.16398841e+00   2.75639672e+00   3.55090600e-02
C     8.730651129500000e+00   4.639754941220599e+00  -8.069325000000021e-01 -9.19094600e-01  -1.92211872e+00   1.73321215e+00
C     9.937848150999999e+00   3.867473597943155e+00  -4.217171999999998e-01 -5.48275320e-01   3.15759888e+00  -1.62878239e+00
C     1.116855599740000e+01   4.635443850999562e+00  -8.679449999999989e-02 -4.62220980e-01  -1.94302366e+00  -1.77341901e+00
C     3.696170674799999e+00   6.083282433364135e+00  -3.524652000000010e-01  3.64570244e+00  -1.84533276e+00  -2.23275532e+00
C     4.939049508000000e+00   6.752843323121896e+00  -8.714052000000017e-01 -1.56514750e-01  -3.31516569e+00   3.54568968e+00
C     6.194112540400000e+00   5.994514466798457e+00  -6.809423999999993e-01  1.74324188e+00   2.40615638e+00  -2.32876765e+00
C     7.509684125000000e+00   6.722933389553181e+00  -8.740713000000007e-01 -4.78226346e+00   2.52673823e+00   2.36926280e-01
C     8.687272010199999e+00   6.067852441426775e+00  -8.160594000000003e-01  3.14302698e+00  -1.51103068e+00   1.13939361e+00
C     9.951540979499999e+00   6.759747881605919e+00  -5.542976999999993e-01 -9.18581530e-01   6.71424250e-01   2.09172290e-01
C     1.110357445620000e+01   6.041758762421782e+00  -2.096778000000015e-01  2.27464337e+00   1.09895782e+00  -6.39020790e-01
C     1.240352272290000e+01   6.821957817776702e+00  -3.359030999999995e-01 -2.86990704e+00  -1.96219421e+00   3.58108800e-01
