32
Lattice="9.86 0 0 4.93 8.53901048131456 0 0 0 30 " PBC="1 1 1" Properties=species:S:1:pos:R:3:force:R:3 Energy="-251.89669753"
C     4.892714804400000e+00   8.315362694815176e+00  -9.718158000000017e-01  3.66959115e+00   2.23473702e+00   3.12545620e-01
C     1.299957978800000e+00   5.102880214608176e-01  -1.094606100000000e+00 -2.28332696e+00   1.16108389e+00   3.00924860e+00
C     7.443969344899999e+00   8.365362443730291e+00  -9.320985000000022e-01  1.20902970e-01  -2.17849614e+00  -2.98029000e-02
C     3.746767314100000e+00   4.979306216644760e-01  -5.734977000000008e-01 -1.30516320e+00   8.25612410e-01  -2.39164811e+00
C     9.904883163699999e+00   8.355982853058642e+00  -7.331792999999998e-01  1.44942194e+00  -5.86621890e-01   1.26238397e+00
C     6.233914501000000e+00   5.820770195880640e-01  -7.979130000000012e-01 -2.33749088e+00  -6.63221870e-01   4.59657140e-01
C     1.242951141510000e+01   8.513050948849648e+00  -6.554205000000017e-01 -5.85929486e+00  -6.22939515e+00   1.29540236e+00
C     8.658274982700000e+00   5.550758999393608e-01  -8.014719000000028e-01  3.30177751e+00   1.80440697e+00  -1.73953481e+00
C     1.209154428700000e+00   1.898505439461831e+00  -6.191336999999990e-01  2.10904705e+00   8.86439470e-01  -1.94448106e+00
C     2.525186179500000e+00   2.718412345180532e+00  -4.946936999999991e-01 -3.29683799e+00  -4.13756528e+00   1.10144771e+00
C     3.681172382300000e+00   1.919801560818742e+00  -4.917756000000004e-01  3.16483630e+00   1.96349738e+00  -4.68089450e-01
C     4.985063169999999e+00   2.719335839163944e+00  -5.882265000000011e-01 -2.71703031e+00  -1.50278253e+00  -7.78945070e-01
C     6.110839811800000e+00   1.985673110073453e+00  -9.216818999999994e-01  3.99561947e+00   1.38533140e-01   1.14142696e+00
C     7.449532356900000e+00   2.642523085000999e+00  -9.145155000000003e-01 -2.72024564e+00   2.73222464e+00  -5.15635550e-01
C     8.672034267599999e+00   1.996401864400944e+00  -9.393461999999992e-01 -2.23950204e+00  -2.46549196e+00   5.71409090e-01
C     9.825632230499998e+00   2.619077865486482e+00  -6.613509000000022e-01  5.32627642e+00   2.69685807e+00   7.49843600e-01
C     2.523290101500000e+00   4.051303891869634e+00  -1.327175999999994e-01 -2.61489410e-01   2.52556135e+00   5.06820300e-02
C     3.788188730400000e+00   4.768637898169746e+00  -1.402794000000007e-01 -1.24428222e+00   2.50215279e+00  -2.62527931e+00
C     4.982948397199999e+00   4.142469356407783e+00  -5.949156000000002e-01 -1.37675355e+00  -2.05578227e+00   1.82940363e+00
C     6.182358680899999e+00   4.813807128856325e+00  -7.713075000000025e-01  1.95908423e+00  -2.02735559e+00  -5.85194310e-01
C     7.437124434299999e+00   4.102999232095764e+00  -8.793210000000009e-01  6.25227700e-01  -1.09765676e+00   6.14817690e-01
C     8.692606812499999e+00   4.824229845048214e+00  -7.287572999999981e-01  5.10005550e-01  -3.77620145e+00  -1.41668490e-01
C     9.982368663899999e+00   4.061280700934256e+00  -4.585703999999993e-01 -4.08804371e+00   8.54302850e-01  -4.16739930e-01
C     1.110266201180000e+01   4.806619416784786e+00  -7.982220000000240e-02  2.49789367e+00  -1.83594140e-01  -6.76137540e-01
C     3.697264099500000e+00   6.236991538602625e+00  -4.402775999999982e-01  1.05070867e+00  -3.74043440e-01   2.17264531e+00
C     4.976338055999999e+00   6.980282428959840e+00  -7.087868999999998e-01 -1.75740242e+00  -3.95607911e+00  -4.08731710e-01
C     6.221713835600000e+00   6.158291321563182e+00  -8.471930999999984e-01 -1.46360154e+00   5.02348085e+00  -4.10615070e-01
C     7.415234001800000e+00   6.884790162421371e+00  -1.041402600000001e+00  1.88369832e+00   1.07403102e+00   8.05904960e-01
C     8.694837045899998e+00   6.166345743198441e+00  -9.130718999999985e-01  4.93964000e-03   3.31662686e+00   1.63089721e+00
C     9.899434182600000e+00   6.908862657645749e+00  -5.726322000000010e-01  4.09298040e-01   1.26272657e+00  -3.57206000e-02
C     1.114662247670000e+01   6.317899004461045e+00  -7.809299999999908e-02 -5.23067693e+00  -4.06834250e+00  -2.02154122e+00
C     1.229667769230000e+01   6.941440946599359e+00  -2.753394000000000e-01  6.10281303e+00   4.30035478e+00  -1.81795074e+00
