32
Lattice="9.86 0 0 4.93 8.53901048131456 0 0 0 30 " PBC="1 1 1" Properties=species:S:1:pos:R:3:force:R:3 Energy="-250.36216138"
C     4.956637529500000e+00   7.985877888065678e+00  -3.332760000000015e-01  3.66982435e+00  -1.24077641e+00   2.47142853e+00
C     1.325151018300000e+00   1.731010272583592e-01   5.582790000000000e-02  2.26162410e-01  -6.82924877e+00  -4.36977026e+00
C     7.498101829499999e+00   7.919059960279467e+00  -2.031881999999996e-01  2.45530288e+00   1.50657669e+00   2.71525510e+00
C     3.911957760800000e+00   1.306813579463392e-01   2.021940000000000e-02 -4.62748346e+00   1.01349920e-01   3.45926910e-01
C     1.006632833870000e+01   7.896144671755340e+00   1.938975000000000e-01 -2.95308303e+00   4.56138792e+00  -1.80366308e+00
C     6.291975702600000e+00   1.108496768867488e-01   7.720679999999999e-02  9.95211100e-01   1.68972682e+00   4.59293180e-01
C     1.247089837070000e+01   7.988007004938761e+00   5.017980000000000e-02 -2.14524095e+00  -3.88768596e+00   1.84605390e+00
C     8.724744003500000e+00   8.268144528563920e-02  -1.201568999999978e-01 -1.18831809e+00   4.86194299e+00  -1.40444083e+00
C     1.297916120700000e+00   1.485276422182353e+00   2.378961000000000e-01 -1.68988873e+00   2.73201944e+00   6.10810370e-01
C     2.440736807800000e+00   2.160454016863543e+00   6.208743000000000e-01  4.85803358e+00   2.75125115e+00  -2.46674310e+00
C     3.706512631599999e+00   1.612255862915298e+00   2.159076000000000e-01  3.83359805e+00  -2.96893081e+00   8.19679620e-01
C     5.066008987900000e+00   2.337363784356401e+00   1.299780000000000e-01 -5.33542483e+00  -2.68454640e-01   5.77923610e-01
C     6.209509620600000e+00   1.591172192139130e+00   3.308550000000000e-02  1.88190259e+00  -2.06070925e+00  -6.54582010e-01
C     7.460441362299999e+00   2.277773445820673e+00  -7.804289999999980e-02  9.19236290e-01  -4.21042564e+00  -5.56471130e-01
C     8.705209125000000e+00   1.562661631607877e+00  -2.134187999999995e-01 -5.47331000e-03  -1.33276647e+00   1.53650583e+00
C     9.940088737400000e+00   2.210806341521377e+00   3.049680000000000e-02 -7.43784440e-01   1.39330151e+00   1.68582278e+00
C     2.576943784500000e+00   3.629549184966505e+00   6.487836000000000e-01 -1.32977289e+00   3.20361200e-01   1.16277522e+00
C     3.811665193200000e+00   4.410940969305270e+00   5.680248000000000e-01 -3.07173780e-01   2.57388560e-01  -5.83099490e-01
C     4.978927587799999e+00   3.781345039516845e+00   1.429167000000000e-01  1.54752032e+00  -2.85403119e+00   2.22204090e-01
C     6.218684251999999e+00   4.371155840896645e+00  -1.321413000000007e-01  2.46104150e+00   2.40499496e+00   1.25113699e+00
C     7.501249338699999e+00   3.598958521482324e+00  -9.419010000000227e-02 -1.48881256e+00   5.65371063e+00   6.75689070e-01
C     8.711154606399999e+00   4.335553461381543e+00   1.884300000000000e-01  7.50914810e-01   7.10511040e-01  -1.15538882e+00
C     9.919310364999999e+00   3.622592709298763e+00   4.073463000000000e-01  9.36320670e-01  -1.04750965e+00  -9.32838360e-01
C     1.117543729140000e+01   4.297309965924977e+00   6.867384000000000e-01 -7.30719610e-01   2.99561977e+00  -2.03586745e+00
C     3.879851628800000e+00   5.888667454591522e+00   5.434059000000000e-01 -9.91370910e-01  -2.26308208e+00  -2.67277377e+00
C     4.895215152500000e+00   6.581417308159294e+00  -1.798691999999988e-01  5.86212610e+00  -1.81528421e+00   2.35697462e+00
C     6.354456205500000e+00   5.820939695238668e+00  -9.685200000000194e-02 -5.20166143e+00  -1.69135175e+00  -1.36350915e+00
C     7.575114542700000e+00   6.432342921639035e+00  -1.678488000000016e-01 -1.27291607e+00   4.05421637e+00  -2.17654840e-01
C     8.779974793499999e+00   5.776139605975138e+00   2.698860000000000e-02 -1.74435480e-01  -6.76872480e-01   4.98838420e-01
C     9.964034388300000e+00   6.562720290812285e+00   1.561137000000000e-01  1.67635848e+00  -5.49783891e+00   8.59170040e-01
C     1.116227320540000e+01   5.791023357412093e+00   4.057521000000000e-01  2.62686586e+00  -8.71210600e-01   1.73943906e+00
C     1.250271392850000e+01   6.479724866111296e+00   4.685094000000000e-01 -4.51485944e+00   3.52181987e+00  -1.61812505e+00
