32
Lattice="9.86 0 0 4.93 8.53901048131456 0 0 0 30 " PBC="1 1 1" Properties=species:S:1:pos:R:3:force:R:3 Energy="-253.00831489"
C     9.777164858199999e+00   5.924771927922848e-01   3.072218100000000e+00 -8.41398200e-02   1.73011655e+00   1.15283825e+00
C     1.148453606500000e+00   1.347720990019404e+00   3.183836100000000e+00 -1.12362040e+00  -2.99178090e-01   7.23762440e-01
C     2.339901397900000e+00   5.871419336542760e-01   3.047565000000000e+00  1.53152009e+00   2.53421510e-01   1.18475969e+00
C     3.571434329100000e+00   1.298609383584313e+00   3.352711200000000e+00  2.34079930e-01  -6.69805540e-01  -1.51811621e+00
C     4.831257868099999e+00   5.902593556003144e-01   3.122790300000000e+00 -1.29124971e+00   1.77625930e-01   2.33440044e+00
C     6.064447328600000e+00   1.247492732098413e+00   3.219032400000000e+00  2.08708870e+00  -8.44304870e-01  -5.55011050e-01
C     7.321142684000000e+00   5.671737138171105e-01   3.158957400000000e+00  5.59092620e-01   6.46277170e-01   1.22767865e+00
C     8.579026810299998e+00   1.322435101405818e+00   3.255108600000000e+00 -2.04427196e+00   7.96968250e-01  -8.24812380e-01
C     1.095586233850000e+01   2.751457974177713e+00   3.620110800000000e+00  1.73752795e+00  -1.13776555e+00  -1.37254426e+00
C     2.397966740700000e+00   3.424632231610190e+00   3.626949600000000e+00 -2.16093623e+00   1.06102016e+00  -2.99265410e-01
C     3.578193112599999e+00   2.727008140080224e+00   3.572487600000000e+00  2.82088486e+00  -1.96622794e+00  -1.30171731e+00
C     4.895355213800000e+00   3.359576328636528e+00   3.348030300000000e+00 -1.32639895e+00   1.68763610e+00   1.26629048e+00
C     6.152946202299999e+00   2.617874377349431e+00   3.264480000000000e+00 -3.62377885e+00   4.63519260e+00  -1.61323845e+00
C     7.205153785199999e+00   3.527943413874880e+00   2.982825300000000e+00  4.87636895e+00  -4.44272829e+00   3.28916676e+00
C     8.548864774500000e+00   2.807606408369162e+00   3.358222500000000e+00 -3.47084852e+00  -2.54785877e+00  -1.97824210e+00
C     9.706710671900000e+00   3.459964778394124e+00   3.630902100000000e+00  1.00294908e+00   1.06656415e+00   3.29203490e-01
C     1.227686594500000e+01   4.855715653001012e+00   3.458358000000000e+00 -2.12440145e+00  -5.40184940e-01   2.15011753e+00
C     3.583797339400000e+00   5.604966687283163e+00   3.511262700000000e+00  3.47223253e+00  -5.50908440e-01  -1.39191530e+00
C     4.877677466300000e+00   4.830857654202580e+00   3.350709900000000e+00 -4.01150480e-01   1.29758692e+00  -1.51234105e+00
C     6.072141875400000e+00   5.639607574218218e+00   2.909789700000000e+00 -2.75922829e+00  -2.12128253e+00   1.68222988e+00
C     7.268356927499999e+00   4.902825117648859e+00   2.969421900000000e+00 -6.25308760e-01   1.14774745e+00  -5.58996230e-01
C     8.484634220199998e+00   5.611746832384492e+00   3.122556900000000e+00  2.19395014e+00  -1.94109979e+00   2.00772493e+00
C     9.623190950300000e+00   4.889373102099086e+00   3.720384900000000e+00  3.32946738e+00   8.48914710e-01  -3.65752418e+00
C     1.100535332670000e+01   5.507753553962660e+00   3.506390100000000e+00 -2.23859023e+00   2.79142430e+00   5.07496890e-01
C     1.348664993470000e+01   7.065534116399959e+00   3.399411600000000e+00  7.05540090e-01  -3.71256376e+00  -5.99634900e-01
C     4.813116355499999e+00   7.718340442914702e+00   3.059718300000000e+00  6.94061280e-01   1.24596791e+00   1.54341040e-01
C     6.028524686400000e+00   7.052538681740552e+00   2.843546700000000e+00  3.28320400e-01  -2.35414389e+00   5.79805060e-01
C     7.279168861200000e+00   7.651906172869358e+00   2.883499800000000e+00  1.18486028e+00   4.04037612e+00  -3.15531840e-01
C     8.559014264100000e+00   6.997213835109898e+00   2.996521500000000e+00 -1.77025797e+00   3.99421690e-01   6.10257780e-01
C     9.747854627799999e+00   7.719632139030010e+00   3.253353600000000e+00  1.69588682e+00  -1.06214511e+00  -1.42320311e+00
C     1.101950050400000e+01   6.980841904926489e+00   3.353050200000000e+00 -6.26698720e-01  -7.67104280e-01   5.68605310e-01
C     1.228104668360000e+01   7.700212209055766e+00   3.356201700000000e+00 -2.78295075e+00   1.13104027e+00  -8.46584840e-01
