32
Lattice="9.86 0 0 4.93 8.53901048131456 0 0 0 30 " PBC="1 1 1" Properties=species:S:1:pos:R:3:force:R:3 Energy="-254.13828291"
C     5.006449855100000e+00   8.376490823748247e+00  -8.934021000000030e-01 -1.46668811e+00  -9.86606950e-01   5.48645290e-01
C     1.289482764100000e+00   5.763199333323432e-01  -9.493269000000026e-01  2.83636770e-01  -2.30220025e+00   8.11926270e-01
C     7.461972127299999e+00   8.337792711373725e+00  -9.345026999999995e-01 -1.44904716e+00   1.95063134e+00   7.80266300e-01
C     3.726917605800000e+00   4.881830850312416e-01  -6.395916000000028e-01  1.03846085e+00   9.65348700e-01  -1.17052396e+00
C     9.907713180900000e+00   8.337907646454786e+00  -6.671903999999991e-01 -9.09851340e-01   1.39601659e+00  -1.03780500e-02
C     6.168760459100000e+00   5.186819541527624e-01  -7.745388000000020e-01  1.66720019e+00   1.01912670e+00   1.38757766e+00
C     1.236319902040000e+01   8.251472793722559e+00  -5.933726999999998e-01  7.25971740e-01   8.82998163e+00  -2.41625003e+00
C     8.703527354099998e+00   5.376556354393224e-01  -8.193842999999994e-01 -1.53135116e+00  -6.69070800e-01   2.73718890e-01
C     1.251967830500000e+00   1.948779034443041e+00  -6.428031000000018e-01  8.74879600e-01   2.64467020e-01  -9.33311990e-01
C     2.476759824800000e+00   2.607259618811848e+00  -5.351487000000006e-01  9.64245320e-01   2.99289922e+00   2.56678193e+00
C     3.742918118000000e+00   1.918747249194776e+00  -5.088980999999997e-01 -2.07811014e+00   1.02964105e+00  -7.52689680e-01
C     4.886708191000000e+00   2.759567728600883e+00  -5.819024999999982e-01  3.10529331e+00  -3.28970107e+00  -6.75673150e-01
C     6.146580684900000e+00   2.040268042088276e+00  -8.059601999999977e-01  2.83223990e-01  -2.25726116e+00   1.68368640e-01
C     7.409779301900000e+00   2.720033732490474e+00  -9.164330999999990e-01  3.85568080e-01  -2.13247602e+00   7.83763420e-01
C     8.666308121900000e+00   1.976268500101095e+00  -8.707982999999970e-01  3.39732260e-01   5.76989560e-01   4.62313100e-01
C     9.937193989299999e+00   2.718570487654622e+00  -6.508934999999987e-01 -2.14054402e+00  -1.04225688e+00  -3.79576310e-01
C     2.485047943600000e+00   4.116662929715336e+00  -1.317354000000002e-01  7.53170750e-01  -2.29617758e+00  -1.64980385e+00
C     3.714902850700000e+00   4.774292687079916e+00  -2.496393000000019e-01  1.47603054e+00   2.15900935e+00  -8.12892670e-01
C     4.960136251900000e+00   4.147519924936388e+00  -5.602610999999982e-01 -1.53709160e-01  -5.20528400e-01   5.16028480e-01
C     6.233925494899999e+00   4.801763879255543e+00  -7.618226999999997e-01 -1.67761778e+00   1.60417509e+00   2.41488310e-01
C     7.462113569000000e+00   4.105664001096258e+00  -8.445849000000010e-01  2.42880890e-01   5.08163000e-01  -3.39658200e-02
C     8.731097787500000e+00   4.779288862111764e+00  -7.290329999999976e-01 -1.53825202e+00   2.50501791e+00   4.95669400e-02
C     9.945173588699999e+00   4.132427053132778e+00  -4.915532999999996e-01  1.06125369e+00   2.06836360e-01   5.39169180e-01
C     1.119348138720000e+01   4.930540440134108e+00  -1.311998999999986e-01 -3.78271712e+00  -4.10438999e+00  -1.28327331e+00
C     3.733990726100000e+00   6.204153407560107e+00  -3.940397999999981e-01 -1.27421000e-03   4.65745330e-01   2.28790870e-01
C     4.936699574199999e+00   6.899977646461099e+00  -7.173560999999999e-01  1.56359510e-01   2.05247008e+00  -1.72201820e-01
C     6.159567685299999e+00   6.253528357078403e+00  -8.176593000000025e-01  1.77483885e+00  -2.14320581e+00  -4.37605950e-01
C     7.406286742000000e+00   6.937905198529905e+00  -9.674642999999996e-01  8.50883530e-01  -5.14914590e-01   6.99979730e-01
C     8.664474654899999e+00   6.249714151877195e+00  -7.769139000000003e-01 -5.98999120e-01  -1.85070426e+00   1.96653480e-01
C     9.871916500199999e+00   6.943414055750972e+00  -5.706150000000001e-01 -3.19997120e-01  -1.48532400e-01   3.48662930e-01
C     1.104006087180000e+01   6.296256455448960e+00  -1.838450999999992e-01  4.23062765e+00   3.51060430e-01  -1.03618076e+00
C     1.239944043640000e+01   6.975366520626504e+00  -3.409656000000005e-01 -2.56609905e+00  -4.61955318e+00   1.16062593e+00
