32
Lattice="9.86 0 0 4.93 8.53901048131456 0 0 0 30 " PBC="1 1 1" Properties=species:S:1:pos:R:3:force:R:3 Energy="-256.0002805"
C     5.008251523599999e+00   7.732609214816886e+00  -1.726026000000012e-01 -6.41350420e-01  -1.07288681e+00  -8.67438500e-02
C     6.221377708199999e+00   8.388618182602258e+00  -1.726044000000009e-01  1.52693654e+00   2.73359488e+00  -4.25080250e-01
C     7.495930115199999e+00   7.684188243549417e+00  -2.093160000000012e-01 -1.24250444e+00   4.48907386e+00  -2.21720030e-01
C     8.697317328899999e+00   8.462207631089212e+00  -3.239693999999993e-01  7.29077670e-01  -1.79583424e+00   7.27170210e-01
C     9.947110635000000e+00   7.741345988779603e+00  -2.792219999999972e-01 -2.53018090e-01  -8.46806830e-01  -6.89312610e-01
C     1.116557009360000e+01   8.463647222866035e+00  -3.337997999999978e-01  3.34025490e-01  -2.04372010e-01   6.30070440e-01
C     1.239035074890000e+01   7.743012376674775e+00  -2.625017999999990e-01 -3.62656340e-01  -1.01992528e+00  -5.64675670e-01
C     1.362033728700000e+01   8.429158330317524e+00  -2.930717999999999e-01  1.81869370e-01  -1.49222249e+00   4.39571350e-01
C     1.284903336400000e+00   1.320281648352867e+00  -2.482295999999984e-01  1.21409193e+00  -5.53628350e-01  -8.97084840e-01
C     2.580836660400000e+00   2.053535358841367e+00  -3.511352999999993e-01 -3.02168532e+00   5.32215340e-01   9.90603270e-01
C     3.782619950300000e+00   1.332020482230037e+00  -3.219689999999993e-01 -8.58262900e-02  -2.65045780e-01   3.31905530e-01
C     5.010612796399999e+00   2.005201314700584e+00  -2.154120000000006e-01 -1.20529280e-01   3.33610945e+00  -4.43816560e-01
C     6.236593906700000e+00   1.347687517098322e+00  -2.768786999999975e-01  1.26691988e+00  -1.46240420e-01   8.73229000e-02
C     7.508705273500000e+00   2.068551635720970e+00  -2.654841000000019e-01 -2.78358093e+00  -1.70977496e+00  -5.91611090e-01
C     8.669327352500000e+00   1.254827144369999e+00  -3.750399000000009e-01  1.22365426e+00   4.07234366e+00   8.60818370e-01
C     9.893814278399999e+00   2.019700554495624e+00  -3.423708000000012e-01  1.80779506e+00  -1.38014589e+00   3.56098930e-01
C     2.502395183900000e+00   3.502077982620017e+00  -2.976570000000009e-01  3.94128340e-01  -1.39598058e+00  -8.24868230e-01
C     3.744882082099999e+00   4.230765201084021e+00  -1.825317000000020e-01  1.49960020e-01  -2.46791878e+00  -5.33519450e-01
C     4.987732912900000e+00   3.500051504652903e+00  -1.714647000000014e-01  3.27006800e-02  -1.11109811e+00  -2.54062680e-01
C     6.223281772800000e+00   4.234714749601336e+00  -2.246403000000008e-01 -7.33755000e-02  -3.56491530e+00   5.98455410e-01
C     7.450501940000000e+00   3.474536855948558e+00  -2.451182999999979e-01  1.11607476e+00   4.99343310e-01  -6.88565500e-02
C     8.704064132499999e+00   4.156857674456687e+00  -2.736578999999999e-01 -2.00565740e-01   6.29672460e-01  -2.40074300e-01
C     9.961123765600000e+00   3.433090206880735e+00  -3.307223999999991e-01 -4.80004538e+00  -2.38626020e-01  -5.06231090e-01
C     1.107351772520000e+01   4.164331443379307e+00  -4.589973000000001e-01  6.42712184e+00   6.61039950e-01   1.14716061e+00
C     3.775842925800000e+00   5.606850051434632e+00  -2.055204000000010e-01  6.87455070e-01   1.60433815e+00   3.31643540e-01
C     5.038738347800000e+00   6.307273145209837e+00  -1.234262999999984e-01 -2.20562441e+00   2.43938040e-01  -4.07588220e-01
C     6.238181120200000e+00   5.598457570374468e+00  -1.563537000000004e-01  7.56328950e-01   2.26357307e+00   4.32909000e-03
C     7.462930815100000e+00   6.355260420135026e+00  -1.967393999999985e-01  1.74857478e+00  -4.98413315e+00  -1.03649920e-01
C     8.716349692500000e+00   5.585132017569904e+00  -2.769803999999993e-01  7.20798970e-01   4.93491300e-01   1.43404220e-01
C     1.000906254330000e+01   6.271045624737494e+00  -3.135048000000005e-01 -2.21628552e+00   1.82960998e+00  -2.88134460e-01
C     1.125186856040000e+01   5.584138503700557e+00  -4.283202000000017e-01 -4.81030658e+00  -6.90743390e-01   6.09758510e-01
C     1.239447001040000e+01   6.298878614787158e+00  -2.819180999999986e-01  2.49984064e+00   1.55195494e+00  -1.11282570e-01
