32
Lattice="9.86 0 0 4.93 8.53901048131456 0 0 0 30 " PBC="1 1 1" Properties=species:S:1:pos:R:3:force:R:3 Energy="-252.1567592"
C     9.833052521400001e+00   3.782699668139392e-01   3.558108000000000e+00 -7.70259390e-01   5.63848880e-01   1.24953283e+00
C     1.181759108900000e+00   1.159961470420553e+00   3.487759200000000e+00 -4.96291100e-01  -2.67972250e-01  -3.90455810e-01
C     2.397153833000000e+00   4.944734324914384e-01   3.866404200000000e+00 -1.78378086e+00  -2.05163796e+00   5.39305210e-01
C     3.558591038200000e+00   1.245738990126030e+00   3.814434600000000e+00  2.48632814e+00  -1.70031025e+00  -1.01594290e-01
C     4.815920835300000e+00   5.280659851098632e-01   3.909527400000000e+00  7.80140610e-01  -3.18253253e+00  -6.33304000e-02
C     6.060176321700000e+00   1.201859491582350e+00   3.839120400000000e+00 -9.80024060e-01  -8.36565940e-01  -8.24919990e-01
C     7.282268253599999e+00   4.929637354385744e-01   3.688029600000000e+00  1.55095450e+00   1.38045697e+00   1.95586910e-01
C     8.617246191600000e+00   1.151964260155509e+00   3.447445200000000e+00 -2.13512982e+00  -1.07244859e+00   1.53257250e+00
C     1.100096109110000e+01   2.571472028159434e+00   3.051265200000000e+00  2.69163100e-01   9.68755910e-01   1.61439520e+00
C     2.403130176200000e+00   3.330250634164854e+00   3.177171900000000e+00 -7.66768410e-01  -1.18372615e+00   6.00929270e-01
C     3.584872720300000e+00   2.633076548487185e+00   3.542001900000000e+00 -8.66105410e-01  -4.58528560e-01  -3.08759520e-01
C     4.789252000300000e+00   3.300302189658875e+00   3.679663500000000e+00  1.64922165e+00   3.50491643e+00   1.03571963e+00
C     5.996260843700000e+00   2.572192549863737e+00   3.779679900000001e+00  2.86287786e+00   3.19267507e+00   1.58830650e-01
C     7.332670404400000e+00   3.311134863743908e+00   3.771339600000000e+00 -1.05028732e+00  -9.86089700e-01   9.48560700e-01
C     8.590627839799998e+00   2.576715236764469e+00   3.487558500000000e+00 -1.43476038e+00   8.08854260e-01  -1.10016299e+00
C     9.719739577300000e+00   3.337863588958299e+00   3.096009600000000e+00  1.29195327e+00  -4.46583050e-01   1.27998288e+00
C     1.230077417720000e+01   4.735346687231160e+00   3.261812700000000e+00 -2.04901780e+00   2.61159970e-01  -7.69392270e-01
C     3.587206138600000e+00   5.538317148783619e+00   3.533638500000000e+00  1.15292437e+00  -2.56671670e+00   8.38781570e-01
C     4.826601483099999e+00   4.854166078769206e+00   3.852072900000000e+00 -4.82248200e-01  -3.74406770e+00  -1.49574127e+00
C     6.067243328799999e+00   5.473350136909054e+00   4.140128700000000e+00  1.11169058e+00  -4.90835003e+00   5.17663130e-01
C     7.375877959699999e+00   4.676591549310481e+00   4.178898600000000e+00 -8.30044560e-01   5.75013410e-01  -3.48535286e+00
C     8.595171327800001e+00   5.451613061050957e+00   3.813336300000000e+00 -2.47335681e+00  -2.02752394e+00   1.15617921e+00
C     9.716663750300000e+00   4.814286508904673e+00   3.241783200000000e+00  9.86746080e-01  -3.68217575e+00   4.65279610e-01
C     1.101112744130000e+01   5.365279139422602e+00   3.235245300000000e+00  2.26857380e-01   3.08686178e+00   3.69236080e-01
C     1.342805476480000e+01   6.908216937673251e+00   3.659510100000000e+00 -1.87311750e-01   1.61165197e+00   1.80267652e+00
C     4.834368846000000e+00   7.491629629280597e+00   4.009682400000000e+00 -5.64696600e-02   3.14699722e+00  -2.36717299e+00
C     6.069804118700000e+00   6.802420049457832e+00   4.250585100000000e+00 -3.30514300e-02   4.37641201e+00  -5.51517870e-01
C     7.307228695699999e+00   7.540247595519840e+00   4.250033400000000e+00  9.23643400e-02   2.09726408e+00  -1.31375348e+00
C     8.520795375800001e+00   6.803232023964377e+00   4.088170499999999e+00  2.45540813e+00   2.76222392e+00  -8.86659220e-01
C     9.822228706400001e+00   7.498986840710165e+00   3.866344200000000e+00 -3.84872795e+00   2.52399974e+00  -1.12307250e-01
C     1.095767450790000e+01   6.780810887976726e+00   3.477605100000000e+00  1.99388751e+00   2.96742476e+00   2.04915226e+00
C     1.216132173220000e+01   7.670589357019389e+00   3.731999100000000e+00  1.33311738e+00  -4.71328729e+00  -2.58326394e+00
