32
Lattice="9.86 0 0 4.93 8.53901048131456 0 0 0 30 " PBC="1 1 1" Properties=species:S:1:pos:R:3:force:R:3 Energy="-255.09254345"
C     5.021451500000000e+00   8.096974940086032e+00  -2.647544999999987e-01  1.41769671e+00   9.27623300e-01   8.26084980e-01
C     1.399904066000000e+00   2.949153913321616e-01  -8.278170000000173e-02 -2.76994739e+00  -1.62393812e+00  -2.18996360e+00
C     7.506836064000000e+00   8.090610986355498e+00  -2.652885000000005e-01  6.96916720e-01   2.64768000e-03   1.00418615e+00
C     3.794337820800000e+00   2.465635860495808e-01  -4.325358000000001e-01  6.12533840e-01   4.26832090e-01   1.40907383e+00
C     1.000803311000000e+01   8.033642294817339e+00  -2.811363000000000e-01 -3.05606103e+00   3.49939475e+00  -1.36607265e+00
C     6.202663477499999e+00   3.019885098830600e-01  -2.727762000000027e-01  2.66430759e+00  -1.83423790e+00  -4.16348270e-01
C     1.243427478110000e+01   8.151540839465223e+00  -4.111863000000007e-01 -1.30363480e+00  -1.99213219e+00   9.34205780e-01
C     8.731114155100000e+00   2.258661347174232e-01  -2.011301999999979e-01 -5.84299200e-01   3.81730918e+00  -8.03560710e-01
C     1.334720444100000e+00   1.668448614571138e+00  -3.250548000000002e-01 -1.84323857e+00   1.37653889e+00  -7.25041090e-01
C     2.507459477100000e+00   2.413618514184477e+00  -5.499513000000000e-01  1.29234241e+00  -2.51097405e+00   3.01493020e-01
C     3.739433248900000e+00   1.693771904050626e+00  -5.008296000000030e-01  1.83334973e+00  -3.65169910e-01   1.36485510e-01
C     5.017715743200000e+00   2.420131815208307e+00  -4.333859999999987e-01 -3.40434825e+00   1.15204328e+00  -3.51963960e-01
C     6.156346423300000e+00   1.702320136661945e+00  -2.342165999999999e-01  2.05905146e+00  -1.47725340e-01  -1.91473430e-01
C     7.384611011000000e+00   2.407793969745965e+00  -2.071635000000001e-01  2.88835362e+00  -2.39607470e-01  -4.89421520e-01
C     8.667980624400000e+00   1.725013154743278e+00  -2.192265000000013e-01  1.10239400e-01  -1.73710667e+00  -2.95978690e-01
C     9.900648589499998e+00   2.383302123716915e+00  -4.680258000000030e-01  1.00299204e+00   3.11578820e-01   1.82716479e+00
C     2.552218158300000e+00   3.771787068916266e+00  -7.112909999999992e-01 -2.02229670e-01   3.27886491e+00   5.28446330e-01
C     3.756635645800000e+00   4.523247742940327e+00  -6.168405000000021e-01  1.57320794e+00   6.87679830e-01  -1.44083040e-01
C     5.023389729500000e+00   3.874118741288796e+00  -5.117876999999993e-01  6.55742500e-02  -1.18598650e+00   7.69779390e-01
C     6.275612441000000e+00   4.563843223443504e+00  -3.060048000000002e-01 -4.61365280e-01   8.09576670e-01  -6.63493240e-01
C     7.493972313600000e+00   3.813770565572968e+00  -3.110414999999982e-01 -3.58640700e-01   8.03813560e-01   8.28508650e-01
C     8.763408267999999e+00   4.529837126547532e+00  -3.272595000000003e-01 -2.24769808e+00   8.28103300e-01  -4.03143510e-01
C     9.960194263399998e+00   3.830042333163446e+00  -4.857923999999976e-01  5.04761210e-01  -8.18565970e-01  -4.87709450e-01
C     1.120717751880000e+01   4.532809726875831e+00  -6.574856999999987e-01 -1.35544316e+00  -3.70524790e-01  -7.17685400e-02
C     3.791295616400000e+00   5.977633184639917e+00  -5.327513999999987e-01  7.95341100e-02  -7.96231710e-01  -8.10407790e-01
C     4.992758209800000e+00   6.721593960369288e+00  -4.616162999999993e-01  3.22862194e+00  -1.89097569e+00   1.69871165e+00
C     6.314944178199999e+00   6.009626465985542e+00  -2.517396000000005e-01 -4.10832284e+00  -1.99925506e+00  -7.27921080e-01
C     7.514721352500000e+00   6.647708208218678e+00  -1.311405000000008e-01 -1.33361860e+00   3.17927619e+00  -9.22466540e-01
C     8.677842645700000e+00   5.991764136912955e+00  -2.979848999999994e-01  3.80777816e+00  -3.03054239e+00  -1.75163640e-01
C     9.929680619999999e+00   6.673747493726914e+00  -4.317969000000019e-01  8.89658270e-01  -2.17437154e+00  -4.88191000e-02
C     1.114288509300000e+01   5.943175032529135e+00  -6.720216000000008e-01  2.44542073e+00   1.31779979e+00   1.30007577e+00
C     1.247336169450000e+01   6.703387167613937e+00  -5.658014999999992e-01 -4.14349256e+00   2.98263060e-01  -2.79416020e-01
