32
Lattice="9.86 0 0 4.93 8.53901048131456 0 0 0 30 " PBC="1 1 1" Properties=species:S:1:pos:R:3:force:R:3 Energy="-256.16994324"
C     5.001878364700000e+00   8.017750257022907e+00   3.680430000000000e-02  1.02356636e+00   3.13627504e+00  -4.20013990e-01
C     1.356822570800000e+00   2.541165115993504e-01   2.085600000000000e-03 -1.64836028e+00  -4.14960762e+00   5.96160060e-01
C     7.474514786799999e+00   8.013265312548496e+00   3.736560000000000e-02  1.53839448e+00   2.56622922e+00  -1.00303328e+00
C     3.815777306200000e+00   2.014613865952688e-01  -1.380210000000019e-01 -1.79095977e+00  -8.01142760e-01   1.98987500e-01
C     9.936733330099999e+00   7.988575532256519e+00  -1.718325000000007e-01  1.85356879e+00   3.43813245e+00   1.35700244e+00
C     6.253680941600000e+00   1.753690738319520e-01   1.422900000000000e-03 -3.84110740e-01   1.33758079e+00  -8.10564490e-01
C     1.242625534730000e+01   8.007307901106914e+00  -5.554499999998797e-03 -1.29488586e+00  -1.33326960e-01  -9.53215260e-01
C     8.686197812500000e+00   1.771242674361160e-01  -7.069079999999772e-02  1.55908655e+00   1.45382931e+00   1.22637292e+00
C     1.365848266900000e+00   1.613236397488716e+00  -5.360519999999980e-02 -1.67100105e+00   1.71937192e+00  -4.01736300e-01
C     2.571883238100000e+00   2.309270610657410e+00  -2.134718999999983e-01  1.87266090e-01   2.49281052e+00   3.24134130e-01
C     3.800791289399999e+00   1.626452650959136e+00  -2.398011000000011e-01  4.64930780e-01  -4.44240260e-01   8.66170240e-01
C     5.018250204499999e+00   2.368110028611527e+00  -1.228578000000020e-01  2.26577550e-01  -1.27840879e+00   2.19220880e-01
C     6.250400519600000e+00   1.655269420406202e+00   3.371340000000000e-02 -1.17687740e-01  -1.76466495e+00  -6.88189290e-01
C     7.489844523199999e+00   2.354361965568413e+00   3.083700000000000e-02 -5.55538940e-01  -2.26598360e-01  -2.26564900e-02
C     8.707005222599999e+00   1.635222214722096e+00  -3.802650000000085e-02  1.73553430e-01  -1.63738076e+00   6.14067020e-01
C     9.946521795799999e+00   2.291742156894590e+00  -9.912599999999827e-03  4.86006610e-01   2.12790922e+00  -1.43725915e+00
C     2.558741731500000e+00   3.788632487230791e+00  -2.203202999999974e-01 -1.13958744e+00  -1.61134935e+00  -6.74668150e-01
C     3.807329258199999e+00   4.467468194001612e+00  -1.836522000000009e-01 -1.55317858e+00   2.01738252e+00  -2.81256120e-01
C     4.993288924300000e+00   3.770496824432738e+00  -9.283409999999748e-02  1.57515424e+00  -2.24219770e-01  -4.57857320e-01
C     6.238834098700000e+00   4.467898303959490e+00  -8.670359999999988e-02  5.47781480e-01   1.01966292e+00   8.44698290e-01
C     7.466140097200000e+00   3.768789107726843e+00   2.710800000000000e-02  8.85212000e-03  -1.14005740e-01  -7.82374330e-01
C     8.701513005399999e+00   4.456251691395504e+00  -7.374150000000057e-02 -2.12222980e-01   1.76629607e+00   2.38322800e-01
C     9.892303972899999e+00   3.755252982923842e+00  -2.036700000000025e-01  1.68977203e+00  -1.88178144e+00   8.97114150e-01
C     1.111247389500000e+01   4.468112206172015e+00  -3.105866999999982e-01  2.91069232e+00   2.00763860e-01   9.81273310e-01
C     3.845251163300000e+00   5.938341354866720e+00  -1.902591000000022e-01 -1.56226268e+00  -2.46672385e+00   6.46957100e-01
C     5.005327984300000e+00   6.648381765365340e+00   4.064700000000000e-02  3.21740266e+00  -2.03559565e+00  -1.36603248e+00
C     6.306963247700000e+00   5.902559314571119e+00  -6.011550000000199e-02 -2.94878749e+00  -1.16994280e-01   1.03099989e+00
C     7.490198299999999e+00   6.623260252703495e+00   3.434190000000000e-02  2.08042898e+00  -1.53833347e+00  -2.07071850e-01
C     8.780689298399999e+00   5.899169071240245e+00  -1.045140000000089e-02 -1.72238323e+00   2.26226800e-02  -4.89915480e-01
C     1.000708383850000e+01   6.633075589079940e+00  -9.125399999999928e-02 -9.23365130e-01  -3.24439857e+00  -5.78822270e-01
C     1.123245214980000e+01   5.893465012239605e+00  -2.275223999999980e-01 -1.39706368e+00  -2.98362570e-01   7.97830000e-02
C     1.246418306980000e+01   6.586137587762532e+00  -1.910184000000008e-01 -6.21638900e-01   6.68268650e-01   4.53402490e-01
