32
Lattice="9.86 0 0 4.93 8.53901048131456 0 0 0 30 " PBC="1 1 1" Properties=species:S:1:pos:R:3:force:R:3 Energy="-255.9182546"
C     9.774870041800000e+00   8.163821729727664e-01   3.905028900000000e+00  1.52001570e-01  -5.46419250e-01  -3.68136130e-01
C     1.147817291400000e+00   1.511233903970191e+00   3.784267800000000e+00 -1.77202420e-01   2.14264869e+00   2.76961350e-01
C     2.387503998900000e+00   8.219280041092120e-01   3.738813000000000e+00 -5.97388920e-01   1.72648493e+00  -1.24397594e+00
C     3.630594181200000e+00   1.459111442439851e+00   3.440793900000000e+00  3.27533010e-01   1.17164715e+00   1.35253920e+00
C     4.862091567100000e+00   7.439654721851352e-01   3.502730400000000e+00  1.62363888e+00   1.39920734e+00   5.00803190e-01
C     6.154331187199999e+00   1.511497247053394e+00   3.694717200000000e+00 -4.62675943e+00   1.60642284e+00  -1.05540065e+00
C     7.323109458199999e+00   8.177547335173216e-01   3.859549800000000e+00  9.69491370e-01  -1.77488050e+00  -1.50765600e-01
C     8.539581584500000e+00   1.523187237790618e+00   3.967369500000000e+00  1.29875946e+00   5.41801420e-01  -4.02821050e-01
C     1.101194562410000e+01   2.989251825684124e+00   3.700311000000000e+00 -8.35969820e-01  -1.93973927e+00   9.07909530e-01
C     2.376727709100000e+00   3.618674925900434e+00   3.512516100000000e+00  7.34639800e-01   1.56118985e+00  -3.73352600e-01
C     3.627895351300000e+00   2.891229621120641e+00   3.429731100000000e+00 -1.52746228e+00   4.47821320e-01   2.53223000e-03
C     4.792004468600000e+00   3.664175128633219e+00   3.470409300000000e+00  3.09165662e+00  -1.13885911e+00  -4.24777000e-02
C     6.065242241800000e+00   3.003098258127968e+00   3.632550600000000e+00  1.46687395e+00  -2.93527526e+00   5.32293670e-01
C     7.362020469200000e+00   3.652973483905346e+00   3.804036000000000e+00 -2.48029861e+00   4.80486310e-01  -5.55654450e-01
C     8.575363524499998e+00   2.953446559280017e+00   3.910846800000000e+00  2.02118420e-01   3.01130200e-01   5.49801100e-01
C     9.797790745699999e+00   3.738713090404292e+00   3.907280100000000e+00  1.23456200e-01  -1.54718211e+00  -1.81832424e+00
C     1.222443988130000e+01   5.087659172257261e+00   3.459210000000000e+00  2.02136300e+00  -2.04653089e+00   3.96869560e-01
C     3.643001167100000e+00   5.749218496854632e+00   3.490898100000000e+00 -9.29518110e-01   5.65621330e-01  -1.24955360e-01
C     4.867400585500000e+00   5.064439211839207e+00   3.464569800000000e+00 -7.46031020e-01  -1.77270070e-01   6.31752330e-01
C     6.094511060200000e+00   5.748467661663127e+00   3.652070700000000e+00  1.39506300e-02   8.24494280e-01  -3.90725180e-01
C     7.325393675099999e+00   5.067655344746394e+00   3.741960900000000e+00  1.43895999e+00   1.40691500e-01   8.74362400e-02
C     8.556236307699999e+00   5.811483936593535e+00   3.717131100000000e+00 -1.39723442e+00   1.50621956e+00  -2.16998160e-01
C     9.805455465999998e+00   5.151278301327558e+00   3.670990800000000e+00 -1.21778855e+00  -1.86335933e+00   8.06889570e-01
C     1.103446926580000e+01   5.800421904687010e+00   3.533638200000000e+00 -1.93256660e-01  -8.55802000e-02   1.60898690e-01
C     1.351606571640000e+01   7.133900935297135e+00   3.667550400000000e+00 -2.00979981e+00   3.45635576e+00   3.46104030e-01
C     4.841795940300000e+00   7.934759955728206e+00   3.752276700000000e+00  9.72234430e-01  -2.30697350e+00   9.89397400e-02
C     6.093572191000000e+00   7.164448903728917e+00   3.697825800000000e+00 -8.35212910e-01   3.03520149e+00   6.80121200e-01
C     7.288593492900000e+00   8.005813574272914e+00   3.769956000000000e+00 -5.52102700e-02  -4.71358967e+00  -6.40829180e-01
C     8.493146456799998e+00   7.277812977641606e+00   3.647792100000000e+00  1.48031202e+00  -2.66633321e+00   1.36180140e-01
C     9.777207305499999e+00   7.861496782831692e+00   3.546834600000000e+00 -7.73185300e-01   2.35480168e+00   3.57414110e-01
C     1.100611545540000e+01   7.192217424249457e+00   3.587319900000000e+00  1.35486349e+00   8.73961090e-01   1.27972010e-01
C     1.223510421080000e+01   7.901277897905392e+00   3.750183600000000e+00  1.13046571e+00  -3.94194390e-01  -5.69001630e-01
