32
Lattice="9.86 0 0 4.93 8.53901048131456 0 0 0 30 " PBC="1 1 1" Properties=species:S:1:pos:R:3:force:R:3 Energy="-255.9713508"
C     5.037010678600000e+00   7.891238754064266e+00   3.772020000000000e-02  1.61818660e-01   1.14979994e+00  -4.35745940e-01
C     1.354509562700000e+00   1.517174664341336e-01  -2.288370000000128e-02 -1.48410344e+00  -2.45419420e+00   1.27341553e+00
C     7.468557325500000e+00   7.943177712259390e+00   5.019300000000000e-02  1.10709780e-01  -3.29379552e+00  -6.06716010e-01
C     3.759651573300000e+00   1.092728632115120e-02   1.627419000000000e-01  1.42477054e+00   4.02814778e+00  -2.32870840e-01
C     9.916801537300000e+00   7.873754020035103e+00   1.271832000000000e-01  6.84689560e-01   9.29016660e-01   9.16061810e-01
C     6.221722364499999e+00   5.152823179103600e-02   1.345596000000000e-01  1.05701415e+00   3.93037750e-01  -1.56714320e-01
C     1.240342284110000e+01   7.882462615263236e+00   1.583376000000000e-01  2.30196490e-01   6.77468810e-01  -5.26258660e-01
C     8.722554097499998e+00   4.150462894898320e-02   4.103759999999999e-02  1.08467590e-01   1.47441252e+00   8.35483910e-01
C     1.384738449300000e+00   1.540180039426028e+00   2.015004000000000e-01 -3.86268938e+00  -1.55069617e+00  -1.14747840e-01
C     2.547012965700000e+00   2.200205757741191e+00   2.620170000000000e-01  4.20622426e+00   1.02960482e+00   9.05987690e-01
C     3.818113929000000e+00   1.495649868283771e+00   2.438694000000000e-01 -1.81058459e+00  -1.87592379e+00  -5.53608570e-01
C     5.021579532100000e+00   2.205180414466629e+00   1.876167000000000e-01  1.21962998e+00  -2.66555670e+00  -3.55362570e-01
C     6.291110290400000e+00   1.473621782948515e+00   6.041640000000000e-02 -1.72402464e+00   4.88504400e-01   8.17095950e-01
C     7.497550556899999e+00   2.224804085230927e+00   7.966770000000001e-02  7.74786410e-01  -1.42728149e+00  -1.63133270e-01
C     8.755997837099999e+00   1.508831453371642e+00   1.240905000000000e-01 -7.60439960e-01  -9.58091160e-01   1.30496070e-01
C     9.974457788700001e+00   2.210934853629102e+00   3.207030000000000e-01 -1.98872080e-01   4.24434320e-01  -1.48524090e+00
C     2.603484981800000e+00   3.601409473660399e+00   4.171875000000000e-01 -2.00577323e+00   1.49539116e+00  -7.23879510e-01
C     3.802073681000000e+00   4.292110391663495e+00   2.500419000000000e-01 -2.26771290e-01   1.91691976e+00  -6.22525860e-01
C     4.982460573699999e+00   3.564773788487111e+00   1.510806000000000e-01  2.59295981e+00   3.20857052e+00  -2.95567720e-01
C     6.240117624200000e+00   4.322922215519108e+00   9.439200000000000e-03 -5.33703010e-01   3.18534100e-02  -2.19364030e-01
C     7.467031884900000e+00   3.629472504652394e+00   3.087690000000000e-02  1.47805982e+00   1.10085154e+00   1.79405530e-01
C     8.747332326799999e+00   4.377772036996758e+00   9.851700000000001e-02 -1.12231729e+00  -2.47077493e+00   4.34931190e-01
C     9.946636861999998e+00   3.638792407640790e+00   2.845626000000000e-01  1.42919252e+00   5.09226320e-01   5.42497880e-01
C     1.122790373180000e+01   4.366988462221985e+00   4.156401000000000e-01 -1.81334519e+00  -1.33649284e+00  -2.17548260e-01
C     3.802202058200000e+00   5.751111851648363e+00   3.345540000000000e-02 -1.03474182e+00  -5.20393310e-01   2.37741060e+00
C     5.028188147800000e+00   6.465874676502842e+00   5.816820000000000e-02  8.87328480e-01   2.76781360e-01  -1.49831036e+00
C     6.279756401799999e+00   5.761650698382779e+00  -9.149999999999991e-02 -4.82694260e-01  -1.06033315e+00   1.13917506e+00
C     7.532285562100000e+00   6.431266323197716e+00  -3.146850000000256e-02 -2.46424527e+00   2.92041849e+00   7.59044500e-02
C     8.748259807699998e+00   5.769677112063665e+00   1.084473000000000e-01 -1.42053928e+00  -3.06307500e-01  -8.05994200e-02
C     9.904787817499999e+00   6.495479682007316e+00   2.689599000000000e-01  2.52130842e+00  -1.03223150e+00  -2.58481320e-01
C     1.113435343220000e+01   5.774931592162533e+00   3.929781000000000e-01  2.42734881e+00   4.88153540e-01  -7.68139850e-01
C     1.241719967680000e+01   6.486508170646505e+00   2.340882000000000e-01 -3.69660520e-01  -1.59052084e+00  -3.13050410e-01
