32
Lattice="9.86 0 0 4.93 8.53901048131456 0 0 0 30 " PBC="1 1 1" Properties=species:S:1:pos:R:3:force:R:3 Energy="-255.47654009"
C     4.951992631400000e+00   8.249151719893884e+00  -6.086919000000002e-01  1.93309905e+00  -1.90838883e+00  -2.97784480e-01
C     1.264338038600000e+00   3.729231800117824e-01  -5.560121999999978e-01  1.04060526e+00   1.09786988e+00  -1.70491589e+00
C     7.457492926500000e+00   8.230502264835250e+00  -6.618720000000025e-01 -1.91375090e-01  -1.83727495e+00  -1.81075340e-01
C     3.773857614800000e+00   3.871821320519152e-01  -7.705191000000013e-01 -5.63174360e-01  -4.62085240e-01   1.62019923e+00
C     9.923501505899999e+00   8.190764100984264e+00  -6.078086999999996e-01  1.71578980e-01   9.42101320e-01  -1.32614033e+00
C     6.223799866500000e+00   3.489194238217688e-01  -6.478436999999992e-01  4.21574220e-01   2.22647462e+00   4.13871090e-01
C     1.238548188090000e+01   8.231402788880471e+00  -6.309086999999991e-01 -2.76399290e-01  -1.99959121e+00  -5.71465360e-01
C     8.672805023799999e+00   4.196968053774496e-01  -6.925929000000011e-01 -7.58797220e-01  -3.29920192e+00   1.02778965e+00
C     1.283464368000000e+00   1.806187037728674e+00  -7.227363000000011e-01  2.90204830e-01  -5.19212170e-01   1.31907015e+00
C     2.534317131100000e+00   2.492717076062814e+00  -6.545196000000004e-01  6.96971000e-02   1.85909166e+00  -1.27363593e+00
C     3.791759874500000e+00   1.823690045240263e+00  -7.173891000000019e-01 -3.17857847e+00  -2.76999409e+00   2.93216100e-01
C     4.942841072400000e+00   2.492912192452282e+00  -6.495782999999982e-01  4.75692551e+00   1.77332640e+00   4.89714200e-02
C     6.263589896499999e+00   1.797201693170884e+00  -6.205983000000010e-01 -2.51801240e+00  -2.50895290e-01  -2.95662800e-01
C     7.474856731599999e+00   2.532725328815281e+00  -6.065021999999978e-01 -2.17166809e+00  -1.91045717e+00  -1.03383520e-01
C     8.655264971199999e+00   1.754823011109168e+00  -6.214694999999999e-01  1.93468756e+00   4.78948158e+00  -3.63327810e-01
C     9.911359852599999e+00   2.501388526595358e+00  -6.800333999999992e-01 -4.88343020e-01  -1.06775024e+00   5.88721660e-01
C     2.549016517700000e+00   3.937668618984100e+00  -7.353789000000006e-01 -9.27204810e-01   5.01782560e-01   4.27964370e-01
C     3.846642754399999e+00   4.728709655945475e+00  -6.914799000000009e-01 -5.05764579e+00  -3.88209613e+00   4.68789680e-01
C     4.956307712500000e+00   3.925304644149689e+00  -6.462897000000005e-01  2.14726246e+00   2.63303930e-01  -1.02021731e+00
C     6.186483759800000e+00   4.639124847637280e+00  -7.947701999999985e-01 -1.81450580e-01  -3.77882590e-01   1.75371832e+00
C     7.365790045800000e+00   3.923924483885806e+00  -6.484884000000015e-01  3.75249310e+00   6.14347440e-01  -3.28971070e-01
C     8.666634340000000e+00   4.579711778959117e+00  -6.170640000000027e-01 -1.42933973e+00   2.95438518e+00   2.38012220e-01
C     9.874439427700000e+00   3.902254610040186e+00  -5.837967000000006e-01  1.21464219e+00   1.10284400e-02  -1.38245751e+00
C     1.109540756610000e+01   4.629287992954425e+00  -7.607907000000012e-01  3.26561495e+00  -8.48869540e-01   7.29229730e-01
C     3.777266019600000e+00   6.081757366092408e+00  -5.539485000000006e-01  1.19371125e+00   2.54296179e+00  -1.74255840e+00
C     5.033306572400000e+00   6.805698431751419e+00  -6.689168999999993e-01 -1.63722248e+00   2.93513470e-01   9.86273680e-01
C     6.253502574200000e+00   6.057309495967329e+00  -7.125108000000004e-01 -1.52925065e+00   3.28482990e-01  -3.72859420e-01
C     7.467151289499999e+00   6.734352522877979e+00  -6.993785999999993e-01  1.86978312e+00   2.44832450e+00   6.75632250e-01
C     8.732493963500000e+00   6.052497336611326e+00  -6.105170999999991e-01 -3.23416750e-01  -5.42431770e-01  -8.87359110e-01
C     9.995895597899999e+00   6.806449608503345e+00  -6.582273000000001e-01 -1.84908199e+00  -2.80162874e+00  -8.19940400e-02
C     1.122862365970000e+01   6.036178433682998e+00  -7.804932000000022e-01 -3.54586764e+00   1.13344595e+00   1.09693815e+00
C     1.238217646380000e+01   6.777452922105466e+00  -6.621629999999996e-01  2.56494878e+00   6.97838170e-01   2.45410610e-01
