32
Lattice="9.86 0 0 4.93 8.53901048131456 0 0 0 30 " PBC="1 1 1" Properties=species:S:1:pos:R:3:force:R:3 Energy="-254.83298271"
C     4.946460382600000e+00   8.432419378419837e+00  -3.715286999999989e-01 -8.28151860e-01   3.12428625e+00   1.24396423e+00
C     1.244671529100000e+00   5.865602562603783e-01  -3.491013000000009e-01  1.40075371e+00   2.62516293e+00   4.44529300e-02
C     7.452225270800000e+00   8.472507470920291e+00  -3.685532999999985e-01 -3.62024428e+00  -3.60633165e+00   1.10816311e+00
C     3.668365819900000e+00   5.891649960171976e-01  -1.790744999999987e-01  3.61026672e+00   4.12994459e+00  -2.73981263e+00
C     9.858556397399999e+00   8.472708820787410e+00  -3.872906999999977e-01  7.10871050e-01  -8.39850080e-01   7.67808990e-01
C     6.160528147899999e+00   6.688286696091000e-01  -4.591293000000007e-01 -4.74476480e-01  -2.60815003e+00   1.85890335e+00
C     1.231263102440000e+01   8.533708437612757e+00  -2.088704999999997e-01  4.34501420e-01  -2.13621709e+00  -2.25755289e+00
C     8.610394871999999e+00   6.686921308315249e-01  -2.059299000000010e-01  1.77677900e+00  -1.44667520e-01  -1.67046077e+00
C     1.298850503600000e+00   2.066892079034182e+00  -2.982464999999976e-01 -2.02208650e+00  -9.38977790e-01   4.13067500e-02
C     2.487036952100000e+00   2.838585255269764e+00  -3.414056999999993e-01  2.90716010e-01  -3.30297854e+00   1.80903000e-02
C     3.707104428799999e+00   2.104770958743253e+00  -3.583607999999998e-01 -5.81590510e-01  -2.59613008e+00   1.29655665e+00
C     4.932193554199999e+00   2.747243033214680e+00  -3.381626999999980e-01  2.68329300e-02   1.80748999e+00  -2.29809670e-01
C     6.163927530800001e+00   2.007685825189845e+00  -3.752336999999990e-01  2.59478330e-01   4.92213080e+00   4.47041570e-01
C     7.391949956900000e+00   2.779338697295961e+00  -2.631134999999993e-01  8.11121570e-01   8.17376890e-01  -1.17605502e+00
C     8.651735732099999e+00   2.103323681856998e+00  -3.587264999999995e-01 -7.34588030e-01  -1.51538012e+00   2.11610267e+00
C     9.896981359699998e+00   2.771744613715678e+00  -2.443830000000027e-01  1.80838900e-02   3.93585170e-01  -1.47250669e+00
C     2.458669091200000e+00   4.203282310464036e+00  -3.733202999999996e-01  1.70029095e+00   1.65165319e+00   2.78275980e-01
C     3.687131174699999e+00   4.950586364966642e+00  -3.455208000000027e-01 -4.94766940e-01  -6.82319330e-01  -9.16523490e-01
C     4.883964646000000e+00   4.220063003079123e+00  -3.125957999999969e-01  2.35962458e+00  -1.15550704e+00  -7.46135210e-01
C     6.151035531499999e+00   4.907208533288661e+00  -3.989309999999975e-01  2.97170870e-01   1.01458349e+00   2.23509083e+00
C     7.419843749000000e+00   4.242858062335693e+00  -2.929406999999991e-01 -8.84432900e-01  -9.70885910e-01  -5.32782570e-01
C     8.671148198699999e+00   4.996781728542604e+00  -3.365910000000021e-01 -8.47313500e-01  -5.37584583e+00  -3.05648360e-01
C     9.860393956299999e+00   4.186496238272348e+00  -3.694547999999998e-01  1.30421928e+00   1.30875696e+00   8.95563180e-01
C     1.113318349390000e+01   4.892816885025669e+00  -3.637851000000012e-01 -2.51284544e+00  -2.84895860e-01  -6.03863400e-02
C     3.690725489800000e+00   6.359184010060481e+00  -5.121165000000012e-01  2.01819845e+00   8.55964680e-01   2.02583845e+00
C     4.999023894699999e+00   7.071874160901150e+00  -3.317768999999977e-01 -2.67455797e+00  -2.26105585e+00  -5.34555960e-01
C     6.197638032699999e+00   6.356757308672170e+00  -1.916784000000007e-01  5.54351260e-01  -1.98935946e+00  -2.36735048e+00
C     7.471678409899999e+00   6.977303595153892e+00  -3.166937999999995e-01 -2.70159926e+00   4.07589229e+00  -1.22029550e-01
C     8.663332866899999e+00   6.344844022810894e+00  -4.391789999999993e-01  2.61272974e+00   9.74393520e-01   1.24894417e+00
C     9.940522528099999e+00   7.037828955337180e+00  -3.531941999999972e-01 -2.14806953e+00   5.05107890e-01  -5.53100340e-01
C     1.112532813050000e+01   6.282209185478626e+00  -3.142860000000027e-01  1.07306682e+00   2.99338370e+00  -1.18648581e+00
C     1.234870827140000e+01   7.090085393941950e+00  -4.248015000000009e-01 -7.34333390e-01  -7.91160180e-01   1.24509261e+00
