52
Lattice="8.88768389401873 1.33226762955019e-15 0 4.44384194700937 7.69696003302603 0 0 0 30 " PBC="1 1 1" Properties=species:S:1:pos:R:3:force:R:3 Energy="-413.01836416"
C     1.190173462437908e+01   5.963436529636945e+00  -2.710298999999985e-01  1.47179414e+00  -3.24239972e+00   1.64396194e+00
C     8.299977131066102e+00   5.825282177696868e+00  -5.801903999999993e-01 -4.89878471e+00   1.55252129e+00   5.43985740e-01
C     9.601161737451793e+00   5.447166168347907e+00  -6.001601999999977e-01  1.29507767e+00  -2.74066595e+00   1.67987657e+00
C     9.920581051628586e+00   4.009936143734897e+00  -4.397652000000001e-01 -6.68980620e-01   1.64804851e+00  -7.82026000e-01
C     5.862211778022829e+00   5.143685810109049e+00  -6.851130000000083e-02 -3.88541370e-01   3.48978109e+00  -1.49865688e+00
C     7.269524928814064e+00   4.858462718030951e+00  -3.227255999999983e-01 -4.64284050e-01  -4.60940410e-01   5.24642600e-01
C     7.686387387208069e+00   3.539260187605971e+00  -2.170361999999990e-01 -5.34425153e+00  -4.06157511e+00  -9.73823100e-02
C     8.953196165318586e+00   3.027198678000539e+00  -3.845628000000012e-01 -7.33563900e-01  -5.98477260e-01   9.79690600e-01
C     9.249316771719931e+00   1.643585215138908e+00  -1.688934000000017e-01 -2.27497801e+00  -2.81209400e+00  -7.27921200e-01
C     3.351410060681840e+00   4.529141432852975e+00  -1.374411000000002e-01  1.20284709e+00   1.40613398e+00  -1.34078611e+00
C     4.808522592947311e+00   4.211014144525029e+00  -1.303527000000031e-01 -2.33719995e+00  -8.78579820e-01   1.75265998e+00
C     5.120722974811896e+00   2.851684590558047e+00   3.161310000000001e-02 -3.61779400e-02  -1.92216650e+00  -1.82551898e+00
C     6.511220405430219e+00   2.472657953867937e+00  -7.976850000000013e-02 -1.46081670e-01   2.12928933e+00  -1.68926720e-01
C     6.724901833453898e+00   1.107316843208725e+00  -2.303768999999996e-01  5.01541793e+00  -1.63445380e+00   2.20620400e-01
C     8.150533256056326e+00   6.077673578888600e-01  -2.177019000000016e-01  2.07778030e-01   2.59544267e+00   5.89255480e-01
C     2.286916518201097e+00   3.525770803335794e+00  -2.716907999999982e-01  4.71745628e+00   1.38040527e+00   6.26930980e-01
C     2.649068083189276e+00   2.146648824530070e+00  -2.334660000000000e-01  1.43085375e+00   9.23516700e-01   8.89446700e-01
C     4.029518831510014e+00   1.783155345906902e+00  -1.554530999999990e-01  1.47412034e+00   3.69470490e+00  -5.72162800e-01
C     4.370530862686086e+00   5.178489308215901e-01  -5.383980000000008e-01  1.88738539e+00  -3.13910795e+00   1.95340827e+00
C     5.826608335205360e+00   7.600609484344459e-02  -3.754167000000024e-01 -4.10372162e+00   1.18967510e-01  -1.18383400e-01
C     1.059025861332968e+01   6.372159346606000e+00  -2.699214000000012e-01 -7.15370880e-01   2.21220532e+00  -2.48838033e+00
C     1.690321758973118e+00   1.138174109908196e+00  -1.551702000000006e-01 -1.30353500e+00   3.19398794e+00  -8.54128300e-01
C     6.468823312489638e+00   7.511955129022916e+00  -2.469317999999987e-01 -6.62022360e-01  -9.09789040e-01   2.38723490e-01
C     7.790439948722291e+00   7.190769915444651e+00  -5.175719999999977e-01  3.37780471e+00  -8.77197310e-01  -2.79247980e-01
C     4.025677933368836e+00   6.907365538052042e+00  -1.716020999999976e-01  2.25399087e+00   2.24695969e+00   1.00805280e-01
C     5.440405501099836e+00   6.575639645591094e+00  -9.952649999999963e-02 -2.75102160e-01  -3.34274231e+00  -5.14783830e-01
C     1.421002540533258e+00   1.739372882107454e+00   3.960210000000000e+00 -9.23778970e-01  -1.37993710e-01  -2.36310844e+00
C     3.820976349903502e+00   1.170577234060092e+00   4.007233200000000e+00 -9.87642230e-01  -2.33432754e+00  -2.27539139e+00
C     5.131859686278960e+00   1.571986630517442e+00   3.665115600000000e+00 -2.63937130e-01  -3.48704559e+00  -4.09160010e-01
C     6.090359109329534e+00   5.682915741349975e-01   3.290600700000000e+00  2.20146789e+00  -9.19396820e-01   2.16614546e+00
C     7.527501238498894e+00   8.853533722859911e-01   3.401251500000000e+00 -8.61277370e-01   2.48366464e+00   6.68547740e-01
C     1.300723798493507e+01   7.643365943371909e+00   3.622075500000000e+00 -5.04115000e-02   5.80605900e-01  -1.39505294e+00
C     1.037184755729756e+00   3.753621909894277e-01   3.841394100000000e+00  4.00213600e-02  -1.00077551e+00   8.14795600e-01
C     6.482779819937660e+00   7.022238971958978e+00   3.933007500000000e+00  5.90134490e-01   2.21715883e+00  -1.43156310e-01
C     7.835204901842172e+00   7.442863983070424e+00   3.871518900000000e+00  2.63053463e+00  -1.17728700e-01   4.68941470e-01
C     8.885273509855610e+00   6.411563779540384e+00   3.666654900000000e+00 -7.29198700e-01   1.22371454e+00  -1.40115630e-01
C     1.025511911878036e+01   6.862277208013905e+00   3.413134200000000e+00 -1.01434034e+00  -1.07007335e+00  -7.20190700e-02
C     1.129444327243738e+01   5.851700992395039e+00   3.370754400000000e+00  4.59280000e-01   6.49706370e-01  -1.40282900e-01
C     3.811153907173284e+00   6.270448176167966e+00   3.416589600000000e+00 -2.40540174e+00   9.82665340e-01   1.26276610e+00
C     4.792481835174463e+00   5.353768561407877e+00   3.655170600000000e+00  1.43554031e+00  -3.76427682e+00  -1.80537000e-01
C     6.150130875416856e+00   5.681162681733542e+00   3.889082399999999e+00  6.39922770e-01  -1.86949751e+00  -1.95073469e+00
C     7.174178700209070e+00   4.607473395078284e+00   3.655024200000000e+00 -9.24015250e-01   3.07495763e+00   2.03039932e+00
C     8.522530601018770e+00   5.018179102890269e+00   3.651676500000000e+00  2.46034018e+00  -2.70839630e-01  -7.60887680e-01
C     9.637922263594845e+00   3.987738803734780e+00   3.581857200000000e+00 -2.08318508e+00   5.00071889e+00  -3.22512420e-01
C     1.100032074887762e+01   4.445715160662209e+00   3.493509000000000e+00 -2.50792285e+00   1.74743777e+00   1.06557278e+00
C     3.085660890517393e+00   3.547934892468582e+00   3.824755800000000e+00  3.44595393e+00  -1.62877603e+00  -2.37093697e+00
C     4.477348204746853e+00   3.926202916778136e+00   3.604724700000000e+00 -1.29398735e+00   3.73873580e-01   1.80304423e+00
C     5.446578039604973e+00   2.888968895852168e+00   3.645876600000000e+00  6.98818160e-01   3.21970844e+00   2.04005960e-01
C     6.801068974729640e+00   3.273824440372997e+00   3.690078900000000e+00  1.45660444e+00  -1.09087368e+00  -1.71974314e+00
C     7.855997501651660e+00   2.307593952088577e+00   3.565018500000000e+00 -5.88775890e-01  -1.33576934e+00   1.07640500e-01
C     9.220737891600976e+00   2.706339584618745e+00   3.649618500000000e+00  1.70367522e+00  -2.97769102e+00   1.25998015e+00
C     2.830804554330254e+00   2.143219136110302e+00   3.886119000000000e+00 -3.15917654e+00   4.79452010e-01   1.91699792e+00
