52
Lattice="8.88768389401873 1.33226762955019e-15 0 4.44384194700937 7.69696003302603 0 0 0 30 " PBC="1 1 1" Properties=species:S:1:pos:R:3:force:R:3 Energy="-415.18558303"
C     1.260711636642533e+01   6.667424277587237e+00   1.321440000000000e-02 -6.80355190e-01   1.89498797e+00   3.49827920e-01
C     8.780961741560244e+00   6.638561062322738e+00   1.456440000000000e-02  1.93013964e+00  -2.46717410e+00  -7.04501270e-01
C     1.017536890867330e+01   6.125771959085670e+00  -2.205495000000006e-01  7.97703580e-01   4.36297702e+00   1.55409772e+00
C     1.059863374346283e+01   4.791336144156516e+00  -2.044545000000006e-01 -1.12874060e+00  -1.88192264e+00   6.14689610e-01
C     6.372864410542172e+00   5.947073100491566e+00   2.876880000000000e-01  2.74129374e+00  -1.83894610e+00  -1.18936444e+00
C     7.794811710548013e+00   5.646867490867071e+00   8.024550000000000e-02 -1.48687072e+00  -1.32329854e+00   7.66652600e-02
C     8.143959705224166e+00   4.248397971512338e+00  -8.718359999999947e-02  8.50071290e-01   1.15183131e+00   3.80003810e-01
C     9.499876668708024e+00   3.831296782641826e+00  -8.959739999999883e-02  1.51870137e+00  -1.25915827e+00   4.06449720e-01
C     9.830770071671404e+00   2.406006898184155e+00   1.802805000000000e-01  1.94325320e-01   1.67004523e+00  -1.34048909e+00
C     4.104022910238610e+00   5.277158563080478e+00  -8.424690000000012e-02 -6.92857130e-01   6.61093250e-01   6.40960200e-01
C     5.446756772203347e+00   4.852225409501041e+00   2.838600000000000e-02 -5.30822610e-01   6.78212453e+00   1.19342356e+00
C     5.830041160949790e+00   3.586337643024662e+00   1.268820000000000e-02 -1.85808792e+00  -2.23106574e+00  -6.28138540e-01
C     7.153165503879116e+00   3.267575586403042e+00  -8.741999999999805e-02  1.61399548e+00  -2.02182813e+00   3.51528270e-01
C     7.495327956780631e+00   1.883309575270068e+00  -7.958429999999694e-02  2.51449680e-01  -8.13816270e-01   3.85075180e-01
C     8.821332842393812e+00   1.405504540822154e+00   1.371459000000000e-01  3.55529400e-02  -4.60006300e-02   1.89819130e-01
C     3.108839215141876e+00   4.306074756649140e+00  -1.143512999999992e-01 -3.07427800e+00   7.67072030e-01  -5.24941920e-01
C     3.389524225417478e+00   2.912263591443763e+00  -1.137839999999812e-02 -4.35844560e-01   2.93638356e+00   5.67696790e-01
C     4.769938445423891e+00   2.651082569776173e+00   2.403180000000000e-02  4.82611400e-02  -3.97731735e+00  -1.06154751e+00
C     5.053517241123449e+00   1.238478429991946e+00  -1.106592000000006e-01  1.55809333e+00   1.51031464e+00   1.37191906e+00
C     6.496991844633586e+00   8.922939520538430e-01  -1.175552999999994e-01 -2.67124006e+00  -1.06685818e+00   2.41164350e-01
C     1.123395414114553e+01   7.205273912985983e+00  -4.521420000000020e-02  2.04775910e-01  -3.62350941e+00  -1.52466286e+00
C     2.309434708636743e+00   2.024227058891313e+00   1.953639000000000e-01  2.01615430e-01  -2.09951373e+00   1.34737340e-01
C     2.630371550415869e+00   6.124480332223036e-01   3.438558000000000e-01  3.88344300e-01   1.27950371e+00  -5.10018170e-01
C     4.002935634717915e+00   3.024909140270015e-01   1.164285000000000e-01  7.73171280e-01  -6.54802380e-01  -5.00607890e-01
C     4.685910774563297e+00   7.685821374292585e+00   2.663754000000000e-01  9.99154030e-01   4.50049550e-01  -2.19004450e-01
C     6.076723584631075e+00   7.286196671957391e+00   4.680132000000000e-01 -1.72353591e+00   1.80301407e+00  -1.54234064e+00
C     7.730007521502636e-01   9.543381462508691e-01   3.429431400000000e+00 -2.07320583e+00   2.05772821e+00  -1.64141870e-01
C     3.099436220747430e+00   3.151957471613204e-01   3.241955400000000e+00  2.06469536e+00   3.59907878e+00   2.46199810e-01
C     4.522960862903196e+00   7.101006736061187e-01   3.211587900000000e+00 -2.26659951e+00   6.04394670e-01  -2.35038300e-02
C     9.934057937733773e+00   7.396849862679877e+00   3.093505200000000e+00  6.89060490e-01   7.37564570e-01   2.00436061e+00
C     6.863414297633235e+00   1.211856338579383e-01   3.376828200000000e+00 -4.65673320e-01  -1.43738270e-01  -1.07537138e+00
C     1.238528466492120e+01   6.920084841471217e+00   3.456063900000000e+00 -6.78897970e-01  -8.96171790e-01  -3.23206240e-01
C     4.849219921629626e+00   7.308475291855425e+00   3.533978700000000e+00  1.72859221e+00  -1.88871054e+00  -2.45001160e-01
C     5.902523913196381e+00   6.256916689526426e+00   3.519852900000000e+00 -1.06239750e-01   2.99191191e+00   4.99563200e-02
C     7.266939547187322e+00   6.672542679037587e+00   3.300893400000000e+00 -2.29393847e+00  -1.61975572e+00   4.88044710e-01
C     8.238464493092582e+00   5.631930385384852e+00   3.219336600000000e+00 -9.98501800e-01   9.08705070e-01   7.36721000e-01
C     9.545325708112745e+00   6.016600741047359e+00   3.149242800000000e+00  3.76105607e+00   2.13577903e+00  -7.24337210e-01
C     1.067448932580547e+01   5.150069899666732e+00   3.168613200000000e+00 -1.51979749e+00  -1.50856799e+00   5.92226710e-01
C     1.202929688468735e+01   5.563611321492969e+00   3.330657300000000e+00  9.93939260e-01  -2.20256594e+00   4.10130850e-01
C     4.182945409383714e+00   4.533880143265045e+00   3.467870400000000e+00 -2.65511900e-01   6.51430300e-01   1.78601290e-01
C     5.578077989847596e+00   4.931980693575099e+00   3.650298600000000e+00 -2.16459831e+00  -3.13198887e+00  -1.92436689e+00
C     6.496408592286844e+00   3.830285556033084e+00   3.461045700000000e+00  2.64269448e+00   2.71628207e+00   2.08484188e+00
C     7.917725222742753e+00   4.298087236378008e+00   3.423018900000000e+00 -2.66717344e+00  -2.50861878e+00  -8.09945310e-01
C     8.916100439406673e+00   3.299834469523976e+00   3.366628500000000e+00  7.72307080e-01   1.46941502e+00  -3.73032620e-01
C     1.028248531755792e+01   3.778256261379092e+00   3.232004100000000e+00  1.93008817e+00  -2.35848776e+00   9.18857190e-01
C     2.461017535176938e+00   2.757542764552716e+00   3.339960600000000e+00  9.29547800e-02   2.02994873e+00  -8.56253540e-01
C     3.875660092677577e+00   3.143243974072042e+00   3.359637000000000e+00 -2.05449115e+00  -7.52625300e-02   4.25089620e-01
C     4.855036107465222e+00   2.107087681489475e+00   3.390802800000000e+00 -2.03900507e+00  -1.00095992e+00   1.49119100e-01
C     6.158639230864234e+00   2.457373176701163e+00   3.597427500000000e+00  2.09990594e+00   1.09507750e+00  -2.06650283e+00
C     7.183028564971259e+00   1.478107039940333e+00   3.430129800000000e+00  1.07105160e+00   1.70215620e+00   8.35215310e-01
C     8.558578156109633e+00   1.941569482098744e+00   3.400710600000000e+00  8.94144450e-01  -1.87586558e+00   4.55050740e-01
C     2.100244892579505e+00   1.419965281448117e+00   3.332432100000000e+00  9.84366390e-01  -3.45489821e+00   3.16695760e-01
