52
Lattice="8.88768389401873 1.33226762955019e-15 0 4.44384194700937 7.69696003302603 0 0 0 30 " PBC="1 1 1" Properties=species:S:1:pos:R:3:force:R:3 Energy="-417.32983716"
C     4.344204081082728e+00   7.516945837906369e+00  -3.152219999999986e-01 -2.50441839e+00  -4.74915020e-01  -1.71585140e-01
C     9.429625751187579e+00   7.296898756091903e+00  -2.555325000000011e-01 -4.97526210e-01   6.11783850e-01  -1.06350335e+00
C     1.077816775902657e+01   6.893086907500389e+00  -4.908650999999971e-01  9.15350290e-01   1.50397745e+00   1.04736484e+00
C     1.112713128982849e+01   5.502172801080704e+00  -4.401563999999993e-01 -1.54443552e+00   1.45035555e+00   2.89545030e-01
C     7.046372385218101e+00   6.726683095888607e+00  -4.124969999999806e-02 -3.68816690e-01  -2.34762171e+00  -1.47522512e+00
C     8.367577388298507e+00   6.293304760794653e+00  -2.815289999999990e-01  2.08367685e+00   2.00737721e+00   1.31913417e+00
C     8.760443011292843e+00   4.943578549917903e+00  -3.054792000000006e-01 -2.78093992e+00  -9.57934900e-01   8.72798300e-02
C     1.007153609648799e+01   4.544334462256192e+00  -2.987894999999980e-01  2.98649860e+00  -1.66997031e+00  -2.18229500e-02
C     1.048916929477205e+01   3.137557613941079e+00  -1.403790000000029e-01 -2.09480981e+00   1.71813694e+00  -7.88909890e-01
C     4.643195453824562e+00   6.141952123612735e+00  -3.519171000000014e-01  3.47673010e-01  -1.21490431e+00   7.95711320e-01
C     6.027354499327121e+00   5.710043907884510e+00  -1.920693000000000e-01 -1.58043408e+00   2.28071465e+00  -2.51850240e-01
C     6.343758666808973e+00   4.372472736287136e+00  -3.087068999999971e-01 -4.60870900e-01  -1.75301069e+00   3.87005190e-01
C     7.689739333022615e+00   3.960826767837887e+00  -2.832003000000007e-01  1.03453132e+00  -3.91168410e-01  -2.29342500e-01
C     8.011609692693536e+00   2.571228302796129e+00  -3.098291999999994e-01  2.19959268e+00   6.09089560e-01   2.54169390e-01
C     9.415978398175483e+00   2.170624008357917e+00  -1.905618000000011e-01  1.61633400e-02   1.25432850e-01   4.87125010e-01
C     3.574144929211017e+00   5.181866426398663e+00  -3.740676000000001e-01  2.88316234e+00  -2.51883825e+00  -2.80995350e-01
C     3.964898394055631e+00   3.719356968080724e+00  -3.102890999999985e-01 -2.07930240e-01   4.18881865e+00   2.95396750e-01
C     5.292992863106138e+00   3.361548156257313e+00  -3.069156000000000e-01  2.42504925e+00  -9.34518200e-02  -2.70018680e-01
C     5.647157955343781e+00   1.971677372769694e+00  -3.099536999999977e-01  1.12382226e+00   1.14275599e+00  -1.13847800e-02
C     7.042129534889790e+00   1.562818550516908e+00  -3.879027000000015e-01 -1.49495812e+00   1.49504538e+00   3.17036890e-01
C     7.413539222469597e+00   2.407960078761368e-01  -4.441101000000032e-01 -1.21906600e+00  -3.32120298e+00   3.76368400e-02
C     2.979653573700563e+00   2.809198525736452e+00  -1.462976999999981e-01 -3.02233086e+00  -3.92353458e+00   2.60760130e-01
C     3.247543252071909e+00   1.356366455264232e+00  -6.502140000000267e-02  2.37505984e+00   2.81288549e+00  -3.80451460e-01
C     4.640104180739906e+00   1.042784991530003e+00  -1.844009999999976e-01 -8.47061420e-01  -3.67298001e+00  -4.20101700e-02
C     8.396217639557744e-01   7.821380619188947e-01  -9.145230000000026e-02  3.49741132e+00   1.14377006e+00  -4.84374240e-01
C     2.285929716612350e+00   3.754969647595530e-01  -3.296339999999987e-02 -3.26573003e+00   1.21430562e+00   3.62354100e-01
C     1.527911956796957e-01   1.757725513602986e-01   3.788353200000000e+00 -3.94765560e-01   2.04759281e+00  -9.41504470e-01
C     7.014438937366183e+00   7.288334117757722e+00   3.538107300000000e+00 -9.48363850e-01   7.16792240e-01  -4.14154360e-01
C     8.380898116506568e+00   7.692592313061376e+00   3.466821000000000e+00 -1.12731584e+00   1.96090443e+00   1.01018975e+00
C     9.360663411898388e+00   6.733090507235181e+00   3.498135600000000e+00  1.13519215e+00  -2.69585788e+00   6.48094770e-01
C     1.071326260346263e+01   7.049540397063789e+00   3.753776400000000e+00  1.49010141e+00   1.75100028e+00   1.91003150e-01
C     1.179087116653525e+01   6.107790090154784e+00   3.889218900000000e+00 -1.78725436e+00  -7.35519100e-02  -1.58196031e+00
C     4.241129077660847e+00   6.545948622275368e+00   3.886858500000000e+00  5.93304980e-01  -2.33859941e+00  -2.24128830e-01
C     5.253536658452085e+00   5.515634091446771e+00   3.769798200000000e+00  9.19747270e-01   1.97663221e+00   1.59967560e-01
C     6.641419244110216e+00   5.932604431996772e+00   3.607089300000000e+00 -4.51027080e-01  -1.37744808e+00   2.90427940e-01
C     7.658585068677992e+00   4.923732785146151e+00   3.583605900000000e+00  5.73787620e-01   1.97746300e-02  -2.70993850e-01
C     9.027983093801183e+00   5.311549888977723e+00   3.494148600000000e+00  4.55538000e-03   1.51264654e+00   1.44465580e-01
C     1.008344217103423e+01   4.377976447556588e+00   3.531009900000000e+00 -8.02385920e-01  -1.53382543e+00  -4.71365390e-01
C     1.145505887310730e+01   4.738086419520167e+00   3.621383100000000e+00 -2.44318400e-01   1.84097670e-01   1.44404367e+00
C     3.549406415668220e+00   3.731239458005438e+00   3.742558200000000e+00  4.02244700e-01  -3.09379030e-01  -6.36469510e-01
C     4.921290637074026e+00   4.164693300277286e+00   3.809239800000000e+00  1.97843050e-01  -1.69994458e+00  -7.20757010e-01
C     5.971405416630807e+00   3.172698007988443e+00   3.713393700000000e+00  1.44881770e-01  -1.34019700e-01   9.84748920e-01
C     7.353595796232081e+00   3.539382723209649e+00   3.672933300000000e+00 -9.65915970e-01   1.86614810e-01  -3.01826200e-01
C     8.377410052737007e+00   2.535490085863235e+00   3.641247000000000e+00 -1.33561496e+00   1.89799907e+00  -4.65771390e-01
C     9.708284367634610e+00   2.975703552372629e+00   3.484647600000000e+00  1.04663382e+00  -5.85928560e-01   1.14598620e+00
C     1.804708162013454e+00   1.944815136204195e+00   3.569718600000000e+00  1.89906046e+00   8.04198420e-01  -8.46978430e-01
C     3.210094730001996e+00   2.327906306577347e+00   3.620953500000000e+00 -6.12837880e-01   1.61525750e+00   4.36749020e-01
C     4.261431077319427e+00   1.410401038914839e+00   3.670532400000000e+00  4.96973700e-02  -1.91037775e+00  -6.32889480e-01
C     5.636337333405515e+00   1.790876474391396e+00   3.790603500000000e+00 -5.89611690e-01  -5.40494500e-01  -6.53061890e-01
C     6.635916786773004e+00   7.539758088043282e-01   3.824335800000000e+00 -3.05052850e-01   9.26017510e-01  -5.43768270e-01
C     7.990880724473117e+00   1.198590243119676e+00   3.735221100000000e+00  1.14538026e+00  -2.44834795e+00   7.32555090e-01
C     1.507410246768808e+00   5.624300311937512e-01   3.555172200000000e+00 -3.91046500e-02   2.14834800e-02   1.01999339e+00
