52
Lattice="8.88768389401873 1.33226762955019e-15 0 4.44384194700937 7.69696003302603 0 0 0 30 " PBC="1 1 1" Properties=species:S:1:pos:R:3:force:R:3 Energy="-417.23984957"
C     1.247975803372840e+01   6.612341214041343e+00   2.524440000000000e-02 -2.64563690e-01  -2.22398685e+00   4.91364970e-01
C     8.675870878579243e+00   6.379364316950882e+00  -6.186990000000137e-02 -7.29270800e-02   1.28654198e+00   5.83791820e-01
C     1.005181299374825e+01   6.029454279449458e+00   1.422351000000000e-01 -4.95978110e-01  -1.94158754e+00  -8.40274150e-01
C     1.041475058546153e+01   4.591642826475782e+00   1.863825000000000e-01 -6.59807180e-01   1.81687416e+00  -8.20772260e-01
C     6.288597924254825e+00   5.808488180607411e+00  -2.341769999999954e-02 -3.64462630e-01  -2.03158920e-01  -1.82778360e-01
C     7.609336901648469e+00   5.402834988267919e+00  -2.154840000000036e-02  2.94896204e+00   5.93356600e-02   9.55988600e-02
C     7.961721213116952e+00   4.033685421785864e+00   8.406960000000001e-02  1.13370417e+00  -1.00100779e+00   6.52053200e-02
C     9.353719595749048e+00   3.590666105467133e+00   1.537971000000000e-01  4.14522740e-01   3.75508841e+00  -5.54942790e-01
C     9.768228239961136e+00   2.301498036714417e+00  -3.339600000000331e-03 -8.35902910e-01  -3.65975109e+00   3.95053050e-01
C     3.973750172649615e+00   5.177007104622923e+00   7.365179999999999e-02 -2.13613351e+00   2.68693620e+00  -2.23698860e-01
C     5.307784191949403e+00   4.792153946159703e+00   1.216989000000000e-01 -5.43562200e-02   2.08445000e-01  -8.29074200e-01
C     5.636404969733247e+00   3.412363486375373e+00   1.198659000000000e-01 -7.68397450e-01   8.99531780e-01   3.31603430e-01
C     6.961907656823003e+00   3.018887962377747e+00   9.000600000000000e-02  1.22483038e+00   1.46626305e+00  -7.93026000e-03
C     7.347069879816050e+00   1.685120320548797e+00   7.319280000000000e-02  1.49165541e+00  -1.36491116e+00  -2.06571900e-02
C     8.705484904614462e+00   1.273546164736628e+00  -1.533239999999836e-02  1.68345227e+00   5.25218780e-01   1.55747600e-01
C     2.910217966549048e+00   4.254014058398226e+00   6.026040000000001e-02 -4.31901720e-01  -1.26599377e+00   1.01383338e+00
C     3.277767066396681e+00   2.866636551173125e+00   8.156160000000000e-02 -1.92218198e+00   6.89300510e-01  -1.37172010e-01
C     4.588524330458769e+00   2.471581226129341e+00   1.443831000000000e-01  1.95065098e+00  -1.17833578e+00  -2.53204350e-01
C     4.938364853480156e+00   1.098550005734555e+00   1.365102000000000e-01  9.66234140e-01  -1.41475345e+00  -1.10865249e+00
C     6.393553335435731e+00   6.834922058128083e-01   1.365141000000000e-01 -4.65860073e+00  -1.09709200e-02  -3.90028030e-01
C     1.108795975726022e+01   6.995520283698038e+00   7.419060000000000e-02  1.61269097e+00  -3.59820500e-02   3.36492800e-01
C     2.267919359458388e+00   1.896554042272090e+00   3.616800000000000e-03 -1.58097862e+00  -6.83844980e-01  -1.13544731e+00
C     2.589249436827143e+00   5.092755949225743e-01  -2.431133999999986e-01 -3.47710719e+00   2.02771000e-03   1.48083356e+00
C     3.879031500281126e+00   1.185462692940510e-01  -1.323353999999988e-01  4.14982996e+00  -1.63221676e+00   1.00992816e+00
C     4.619194886544392e+00   7.568817960636547e+00  -8.622000000002572e-04 -4.18987040e-01   1.49691994e+00  -8.33082030e-01
C     5.969678231177244e+00   7.167729296503647e+00  -1.495670999999987e-01  5.85395230e-01   1.74929175e+00   2.02047530e-01
C     8.376418103886687e-01   1.107702614845429e+00   3.383466000000000e+00  1.21343630e+00  -1.37666676e+00  -2.31356290e-01
C     3.296307262279135e+00   5.041329480481300e-01   3.449978100000000e+00 -8.39309320e-01  -7.51680370e-01   5.37297630e-01
C     4.682789771068665e+00   8.819877995432732e-01   3.437749200000000e+00 -2.45237965e+00   1.43240237e+00  -5.17974840e-01
C     1.006194544320923e+01   7.574653103004891e+00   3.375656400000000e+00  2.31266333e+00   1.19449567e+00   6.79994070e-01
C     6.984188145355864e+00   2.902221136783821e-01   3.370769700000000e+00  1.28565021e+00   1.29180600e-02  -1.10763364e+00
C     1.250896047470723e+01   7.024566840550452e+00   3.301625100000000e+00 -2.09528720e+00   5.31169700e-02   5.07680130e-01
C     4.949370032148126e+00   7.396476867996824e+00   3.380553000000000e+00  6.63501690e-01   2.19695547e+00  -3.93652070e-01
C     5.961103393293865e+00   6.449898335030599e+00   3.367809000000000e+00  1.82634562e+00  -2.32420309e+00   1.74410890e-01
C     7.354644233974110e+00   6.790490509689305e+00   3.511585500000000e+00  1.71992580e-01   1.86884524e+00  -1.49918374e+00
C     8.407807977959985e+00   5.848082343606535e+00   3.380914200000000e+00 -2.50544363e+00  -1.32686886e+00   1.25332827e+00
C     9.725676722795033e+00   6.235615737491401e+00   3.428116500000000e+00  1.70952161e+00  -1.05573950e+00  -6.13843320e-01
C     1.077730600814025e+01   5.266956473469515e+00   3.376897800000000e+00  1.05372193e+00   6.37205710e-01   1.38232890e-01
C     3.299821011451781e+00   5.656067898099732e+00   3.293615700000000e+00 -2.02468026e+00  -8.61446180e-01  -1.59637760e-01
C     4.289818164016726e+00   4.652847667181538e+00   3.171333900000000e+00 -6.05050000e-03  -1.55542299e+00   1.81159788e+00
C     5.657847441373335e+00   5.026651762552092e+00   3.231997500000000e+00  3.20177000e-02   1.43740031e+00   2.57660210e-01
C     6.707716609808926e+00   4.070234667397120e+00   3.274163700000000e+00 -1.65552820e+00  -2.01807270e-01   8.40535560e-01
C     8.036508451458904e+00   4.456016156209559e+00   3.392299800000000e+00  1.42866616e+00   6.19443190e-01  -1.36358353e+00
C     9.053885758491750e+00   3.488565776729983e+00   3.267054600000000e+00  3.67897620e-01  -1.01123294e+00   1.34389798e+00
C     1.043786354023548e+01   3.909653990896034e+00   3.411177600000000e+00 -1.36907321e+00  -1.38406203e+00  -3.07968010e-01
C     2.520553685536712e+00   2.901834980299116e+00   3.509736000000000e+00  2.74890905e+00  -1.96558977e+00  -1.26697627e+00
C     3.939559162587147e+00   3.236142741032528e+00   3.397042500000000e+00 -6.49370810e-01   1.71593382e+00  -7.73764320e-01
C     5.003492157576764e+00   2.287280750934203e+00   3.344816400000000e+00 -1.20588578e+00  -6.01452640e-01   1.11425668e+00
C     6.347553928933895e+00   2.697299351124309e+00   3.374005200000000e+00  3.61467790e-01  -4.89825860e-01  -1.75379482e+00
C     7.336904724676240e+00   1.676068464644716e+00   3.226230600000000e+00 -2.37703820e-01  -1.86825050e-01   1.70863022e+00
C     8.698629479035361e+00   2.062653746993087e+00   3.257463900000000e+00  9.56052800e-01   1.66021736e+00   1.78931870e-01
C     2.240275418268862e+00   1.454738761410852e+00   3.428147700000000e+00 -1.07046151e+00   2.27082054e+00   6.30266910e-01
