52
Lattice="8.88768389401873 1.33226762955019e-15 0 4.44384194700937 7.69696003302603 0 0 0 30 " PBC="1 1 1" Properties=species:S:1:pos:R:3:force:R:3 Energy="-413.83212189"
C     4.222688333873773e+00   7.234597252521074e+00  -4.271298000000030e-01 -3.60114314e+00   7.23951983e+00   3.02325720e-01
C     9.249015571684634e+00   7.141884290175713e+00  -3.505950000000020e-01  1.28082929e+00  -3.54507522e+00  -1.03447047e+00
C     1.067466396981090e+01   6.715621871599094e+00  -3.770604000000013e-01  2.48812370e-01  -1.36096140e-01   1.26695379e+00
C     1.104600517769259e+01   5.249292642927067e+00  -2.904459000000017e-01 -3.55995820e+00   4.25919628e+00  -6.10183840e-01
C     6.815282072026410e+00   6.501497677497315e+00  -4.913799000000019e-01  2.81857384e+00  -4.45265180e-01  -4.80460740e-01
C     8.164515363898648e+00   6.067337177325112e+00  -4.761603000000001e-01  3.07309601e+00   3.42940227e+00   8.97313010e-01
C     8.605658663607585e+00   4.742575517518465e+00  -4.157849999999996e-01 -3.90056905e+00  -3.74748900e-02  -5.37269700e-02
C     9.918482092010201e+00   4.390926505837462e+00  -3.628757999999976e-01  3.87264742e+00  -4.06750982e+00   1.96896260e-01
C     1.036759951047120e+01   2.895464899208687e+00  -4.080435000000016e-01 -1.70909488e+00   4.48841329e+00  -7.70678470e-01
C     4.530435763990056e+00   5.987156482270197e+00  -3.623379000000000e-01 -5.86214240e-01  -8.18437581e+00   1.53803580e-01
C     5.860577111011795e+00   5.526123970393257e+00  -4.500476999999989e-01 -2.03360834e+00   5.47903320e-01   5.11817690e-01
C     6.149081238960485e+00   4.158762946513372e+00  -3.717990000000029e-01  1.02356980e+00   2.65342434e+00  -3.12089370e-01
C     7.456756698643670e+00   3.779028728287703e+00  -3.947475000000011e-01  4.05508806e+00   1.92113830e+00   2.57321500e-02
C     7.786161947904497e+00   2.489189330681171e+00  -3.862530000000000e-01  4.62666160e+00  -5.00131134e+00   1.37851620e-01
C     9.290708937763837e+00   2.024127537198126e+00  -4.631787000000003e-01 -2.04488472e+00  -2.38778779e+00   3.15815330e-01
C     3.481447541463544e+00   4.914506054310189e+00  -2.805873000000005e-01  1.95895921e+00   1.48047715e+00  -8.61567890e-01
C     3.850448133437496e+00   3.576117311618427e+00  -4.617258000000000e-01  2.21574900e-02   7.39086270e-01   5.95762340e-01
C     5.187480857311907e+00   3.237657271857631e+00  -4.110584999999993e-01 -1.00296208e+00  -4.89970187e+00   8.08941000e-02
C     5.529152221202956e+00   1.796242794924312e+00  -3.665331000000016e-01 -1.76402622e+00   8.05300150e-01  -8.86199200e-02
C     6.853976866895876e+00   1.413746830470280e+00  -3.131990999999985e-01  2.22507747e+00  -6.86126390e-01  -4.60507440e-01
C     7.299589782787364e+00   1.858877422925240e-02  -3.289232999999996e-01 -2.67083558e+00  -1.01789907e+00  -4.14230070e-01
C     2.874491742609731e+00   2.620858839856771e+00  -5.636906999999987e-01 -3.62845072e+00  -4.50892817e+00   1.14924475e+00
C     3.058818394945496e+00   1.140083340843637e+00  -5.005134000000027e-01  4.97772046e+00   3.10076183e+00  -6.50762830e-01
C     4.523272953974675e+00   7.896571452026013e-01  -4.132539000000008e-01 -3.05337859e+00   1.01644997e+00   5.68531100e-02
C     7.171617892517180e-01   5.634765868490303e-01  -5.113319999999995e-01  6.98686870e-01   2.66191671e+00  -2.11302100e-01
C     2.083018294034700e+00   1.783017724261566e-01  -5.804888999999989e-01 -1.37046069e+00   5.62555810e-01   7.97284010e-01
C     2.874542269528587e-01   3.291944392766823e-01   3.739824600000000e+00  9.32466000e-02   3.24985182e+00   3.34135060e-01
C     7.179154116372022e+00   7.446869173191635e+00   3.871888199999999e+00 -2.58611030e-01  -3.02514780e-01  -1.32082710e-01
C     4.120747128343100e+00   1.943333856246421e-01   3.868033500000000e+00 -2.82721278e+00   1.16267770e+00   3.18620320e-01
C     9.511829316832731e+00   6.920579525092346e+00   3.830115900000000e+00  2.44689460e-01  -2.66263362e+00   1.96990860e-01
C     1.083804319684416e+01   7.230294113077102e+00   3.742447500000000e+00  3.48906305e+00   3.62251186e+00   6.49670170e-01
C     1.191505006373232e+01   6.311470587070257e+00   3.799330499999999e+00 -7.30843790e-01  -5.26313880e-01  -1.14283158e+00
C     4.385402717031922e+00   6.699831096279948e+00   3.706463700000000e+00  4.29618520e-01  -1.55380909e+00   3.99234350e-01
C     5.434964060489039e+00   5.671147474312106e+00   3.727680300000000e+00 -1.04968322e+00   2.46609885e+00  -1.55336820e-01
C     6.789244935188286e+00   6.030325883203255e+00   3.810966000000001e+00 -3.09592460e-01   3.71464852e+00   5.50431370e-01
C     7.797800993813411e+00   5.132456253303680e+00   3.984210900000000e+00  2.02220311e+00  -1.11255371e+00  -1.22419241e+00
C     9.145426193142448e+00   5.531775463295284e+00   3.925637100000000e+00  9.90961050e-01   1.72206715e+00  -4.78732900e-02
C     1.020493929852408e+01   4.627454318468163e+00   3.870574500000000e+00 -1.31066228e+00  -3.77705290e+00   6.06265600e-02
C     1.156540973400451e+01   4.935078181199971e+00   3.776531700000000e+00  1.40968724e+00  -9.73758200e-02   5.16672250e-01
C     3.718922099402253e+00   3.933936899185881e+00   3.774291900000000e+00 -1.46823531e+00  -1.26841828e+00  -1.32045470e-01
C     5.087587157248336e+00   4.342230533663662e+00   3.692710200000000e+00 -5.30299830e-01  -1.70778975e+00   1.96270410e-01
C     6.155173612462185e+00   3.405020047719551e+00   3.673579800000000e+00  4.63072600e-01  -1.35076440e+00   8.38034480e-01
C     7.537239031234664e+00   3.782014071204939e+00   3.822265500000000e+00 -3.19665144e+00  -8.03457300e-01   7.30978800e-02
C     8.494907900221616e+00   2.772004274874682e+00   3.854986200000000e+00 -4.72204150e-01   1.03705408e+00  -5.10939200e-01
C     9.801766404530731e+00   3.206761443388410e+00   3.881730900000000e+00  3.76305874e+00  -1.54500873e+00   3.79166480e-01
C     1.932334947279343e+00   2.118527211364462e+00   3.933031800000000e+00  1.51147849e+00   1.01531892e+00  -6.34301560e-01
C     3.332647492089436e+00   2.490489732078239e+00   3.862042199999999e+00  1.05936945e+00   2.41049065e+00   1.73047540e-01
C     4.445622682370858e+00   1.580428656278346e+00   3.887319000000000e+00 -2.41358830e-01   2.37389130e-01  -9.24031390e-01
C     5.863957850361792e+00   2.006303302008654e+00   3.748975800000000e+00 -4.42645170e+00   7.24892800e-01   2.89507160e-01
C     6.792983402837331e+00   1.005713353241511e+00   3.766729500000000e+00  6.34800400e-02  -2.35806359e+00  -7.06388440e-01
C     8.105764259748867e+00   1.446472534217033e+00   3.723424500000000e+00  3.35841395e+00  -4.41870116e+00   5.73039370e-01
C     1.691124138781049e+00   6.861185625142450e-01   3.884353800000000e+00 -2.09641840e+00   2.08934342e+00  -4.94505610e-01
