52
Lattice="8.88768389401873 1.33226762955019e-15 0 4.44384194700937 7.69696003302603 0 0 0 30 " PBC="1 1 1" Properties=species:S:1:pos:R:3:force:R:3 Energy="-414.97763058"
C     1.279099748039813e+01   7.080778894193546e+00  -3.408440999999982e-01  3.81181572e+00  -1.51009763e+00   3.03138570e-01
C     9.072454754177866e+00   6.833906829100127e+00  -4.176795000000020e-01  1.46369929e+00  -2.00112948e+00   4.13632200e-02
C     1.045897983444656e+01   6.401018251572881e+00  -6.482352000000020e-01 -7.17730090e-01   3.56038745e+00  -1.99216270e-01
C     1.071456100391169e+01   5.063057998645990e+00  -7.029014999999994e-01  3.70739399e+00  -1.24132079e+00   7.37247990e-01
C     6.673001184646463e+00   6.267155724545533e+00   1.585590000000000e-02  1.21271828e+00  -2.79646501e+00  -1.44436937e+00
C     8.082882431594307e+00   5.822746876032586e+00  -3.018695999999998e-01 -2.02625511e+00   1.02504990e+00   4.31550900e-01
C     8.381336899340431e+00   4.429409920534657e+00  -5.162252999999986e-01  5.35004230e-01   1.61769522e+00   8.90707630e-01
C     9.777036780171926e+00   4.065379501979796e+00  -5.263266000000009e-01 -1.73099101e+00  -2.18563772e+00   3.44133580e-01
C     1.012601475346275e+01   2.678430022701963e+00  -2.211825000000012e-01 -2.42597014e+00   7.24920030e-01  -2.91844960e-01
C     4.255327685397825e+00   5.717247415806987e+00  -4.535048999999987e-01  1.11165172e+00  -2.85240781e+00   7.88475770e-01
C     5.657534550622632e+00   5.273947314386362e+00  -2.304189000000001e-01 -1.60629426e+00   9.22888460e-01  -7.58063300e-01
C     5.953994844301455e+00   3.889105724582344e+00  -4.693523999999982e-01  4.89713770e-01   9.64880590e-01   8.12110970e-01
C     7.339844771703780e+00   3.518302289079485e+00  -4.776878999999994e-01 -8.67237780e-01  -3.73563153e+00  -3.00619750e-01
C     7.646821550592161e+00   2.027944382707402e+00  -4.704669000000017e-01  2.05143818e+00   4.88983251e+00   6.03245680e-01
C     8.999248942808759e+00   1.700849751096504e+00  -1.606232999999975e-01  2.45421308e+00  -4.49868600e-01  -3.10187360e-01
C     3.250435750945374e+00   4.668314323513821e+00  -6.149696999999996e-01 -9.74941240e-01   2.03647620e+00   7.98440760e-01
C     3.552692147702396e+00   3.328631106084214e+00  -3.308757000000000e-01  1.15889794e+00  -5.97180890e-01  -7.20830590e-01
C     4.890859206641831e+00   2.944210516774680e+00  -4.344006000000000e-01  2.95818695e+00  -2.86365011e+00   1.57957490e-01
C     5.335328633068588e+00   1.463702410152989e+00  -4.538352000000003e-01 -3.93736372e+00   2.74208075e+00   4.45688280e-01
C     6.646844549852765e+00   1.107497336921429e+00  -5.695733999999995e-01  1.30293102e+00  -1.97812021e+00   1.29843400e-02
C     1.154286656982807e+01   7.438671295002882e+00  -6.255659999999992e-01 -6.16764287e+00  -3.09502370e-01   2.08871890e-01
C     2.603988506332408e+00   2.314375589631809e+00  -9.257369999999909e-02 -1.59063710e+00  -1.03715125e+00  -1.90124320e-01
C     2.912234179917200e+00   9.278287383331449e-01   6.736080000000000e-02  1.28082527e+00  -1.26299939e+00  -5.59638000e-01
C     4.329519534115466e+00   4.738167776387685e-01  -2.326203000000007e-01 -2.41407707e+00   2.38119547e+00   3.25233700e-01
C     4.951284258664668e-01   3.025086940046708e-01   7.602900000000001e-03 -1.04273552e+00   1.60986471e+00  -5.47851400e-01
C     6.283312019861135e+00   7.596441888366615e+00   1.968087000000000e-01  1.92521630e+00   2.30522088e+00  -1.09523974e+00
C     5.163063103408000e-01   6.601170769889004e-01   3.843920400000000e+00 -5.69219350e-01  -6.55500540e-01   1.10063218e+00
C     2.916084457328281e+00   5.757110587559160e-02   3.545247300000000e+00  5.58333010e-01  -4.19693700e-02   1.34137122e+00
C     4.316659233311063e+00   5.211518503096637e-01   3.528454200000000e+00 -1.36071544e+00  -1.59475940e+00  -1.49684360e-01
C     9.742441917043987e+00   7.189870987482748e+00   3.424239000000000e+00  1.12557690e+00   1.51028976e+00   1.11549951e+00
C     1.110172731324383e+01   7.575832739099089e+00   3.741523800000000e+00  2.37535990e-01  -7.53641920e-01  -6.29338290e-01
C     1.211918127650101e+01   6.532606634789767e+00   3.847129800000000e+00 -5.20306760e-01   2.47645627e+00   5.08430330e-01
C     4.576296924496931e+00   6.941215305841577e+00   4.061728199999999e+00  1.26772505e+00   1.40627757e+00  -1.89851906e+00
C     5.612189943371668e+00   5.964303053397122e+00   3.972328500000000e+00  5.81650830e-01   8.16397800e-01   1.33487260e-01
C     6.988375848193746e+00   6.359415182005928e+00   3.726602400000000e+00 -1.90505900e-01   1.24250611e+00  -5.56323600e-01
C     8.015013188651732e+00   5.420549387837765e+00   3.550644900000000e+00  1.54379905e+00  -1.39650926e+00   4.52877690e-01
C     9.404891770362372e+00   5.844436832427526e+00   3.357714900000000e+00 -2.63843450e-01  -2.25511250e+00   5.27439470e-01
C     1.046983827233027e+01   4.812271336650913e+00   3.445770300000000e+00 -2.76602080e+00   6.99872860e-01   8.55232920e-01
C     1.177787515017141e+01   5.190800287905485e+00   3.750054900000000e+00  1.70237120e+00  -1.38218642e+00  -5.13898240e-01
C     3.941816634903239e+00   4.172142341224720e+00   3.881076900000000e+00 -2.42092072e+00   1.08407781e+00   3.88052200e-01
C     5.277914330479762e+00   4.581456207754480e+00   4.034732700000000e+00 -1.30016210e-01   1.39364457e+00  -2.75904620e-01
C     6.305664942241106e+00   3.672294829612493e+00   4.043040299999999e+00  3.27102140e+00  -1.95648479e+00  -1.23287027e+00
C     7.741672869651968e+00   4.021874667528631e+00   3.797078100000000e+00 -3.18831382e+00   1.58290921e+00  -1.43368170e-01
C     8.704774557617949e+00   3.025980095288589e+00   3.675747600000000e+00  1.04489939e+00   1.39783054e+00   7.11544250e-01
C     1.005922260970397e+01   3.466443174211757e+00   3.599193900000000e+00  1.74242101e+00  -2.56334279e+00  -1.12725163e+00
C     2.218597780170737e+00   2.392287990565884e+00   3.579241800000000e+00 -1.08510814e+00   2.38878249e+00   1.67551083e+00
C     3.541178908344451e+00   2.818197888373128e+00   3.829566300000000e+00  2.35776774e+00  -4.59060900e-01  -1.30205944e+00
C     4.659983974851682e+00   1.874521263277414e+00   3.767852100000000e+00 -2.17089028e+00  -1.34428350e-01   5.67962500e-02
C     5.998296170186093e+00   2.286046543393392e+00   3.910204800000000e+00 -1.22940350e-01  -6.16138030e-01   1.68351650e-01
C     6.987813876627104e+00   1.257445509806673e+00   3.882466500000000e+00  1.42244621e+00   6.51205020e-01  -4.04438700e-02
C     8.389012923507099e+00   1.691437138675817e+00   3.889161600000000e+00 -5.46663170e-01  -3.04382981e+00  -6.53712910e-01
C     1.907435922394912e+00   1.021065247899748e+00   3.719383500000000e+00 -1.52259227e+00   1.72066340e-01  -9.83057970e-01
