64
Lattice="7.10842262195238 0 0 0 7.10842262195238 0 0 0 7.10842262195238 " PBC="1 1 1" Properties=species:S:1:pos:R:3:force:R:3 Energy="-504.85509981"
C     6.977594589626817e+00   5.821663065750220e-02   7.023221848403168e+00  4.51019262e+00  -3.10139112e+00   4.33033962e+00
C     1.786019332628575e+00   1.831061781475979e+00   3.634913232004860e-02 -2.94902270e-01  -1.91799186e+00  -1.71274383e+00
C     5.450731356593380e-02   1.841326699160390e+00   1.800102255186414e+00 -9.06823660e-01  -2.00038393e+00  -1.50999447e+00
C     1.815152918399741e+00   1.522496173596840e-02   1.721101591967199e+00 -1.80289029e+00   4.11346000e-03   5.51036550e-01
C     8.034774484781850e-01   9.362350601715669e-01   7.968940539528981e-01  2.62685272e+00  -7.48321020e-01   2.70232435e+00
C     2.714090227252620e+00   2.660203265728733e+00   9.458187066320772e-01 -1.67655161e+00   5.89795080e-01  -3.01819380e+00
C     9.647297409176465e-01   2.653310583735250e+00   2.663369001742550e+00 -2.05443912e+00   5.88427590e-01   6.34989750e-01
C     2.644311320698330e+00   9.733588683887432e-01   2.693186275601307e+00 -3.60060430e-01  -2.96512487e+00   9.10778590e-01
C     3.540756061159507e+00   7.040570095975730e+00   3.294064367375860e-02  2.52978549e+00   2.77803546e+00  -7.22057380e-01
C     5.388327225254661e+00   1.774744947847898e+00   5.714489377908481e-02 -2.70762579e+00   2.57377110e-01   3.14495200e-02
C     3.509914392516982e+00   1.848275395524119e+00   1.852790949909247e+00  1.91526624e+00  -3.08729563e+00  -1.57158389e+00
C     5.339071685404610e+00   7.057047135271985e+00   1.863340773172268e+00 -9.88918210e-01   7.20035470e-01  -1.84732306e+00
C     4.429996841800670e+00   8.548960813315026e-01   1.056475450473391e+00  1.92429700e-02   1.01208278e+00  -3.58177329e+00
C     6.296972364711222e+00   2.705190624300832e+00   9.055197081989995e-01 -8.60335540e-01  -2.28174240e-01  -8.74116820e-01
C     4.427148567941063e+00   2.662764146061814e+00   2.628537020062288e+00  2.51258012e+00   1.80550020e-01   1.80263387e+00
C     6.274785627113904e+00   8.432267525900582e-01   2.699191257778005e+00 -1.71387762e+00   2.56422272e+00  -2.44119030e+00
C     7.065613495371347e+00   3.614076668199985e+00   7.038733634991853e+00  3.68760541e+00  -2.80240329e+00   1.72848150e+00
C     1.810881467247382e+00   5.250135437720968e+00   7.086662387759882e+00  7.86980000e-02   5.77471609e+00  -6.70405040e-01
C     5.919112431447800e-03   5.412147975959639e+00   1.730993246379834e+00  1.12279017e+00  -2.81988000e-01   1.17676690e-01
C     1.874602718213360e+00   3.544494949289174e+00   1.786153539647641e+00 -3.14497866e+00   1.71419724e+00   1.29302920e-01
C     9.546949228734449e-01   4.630117491536708e+00   8.758925135611013e-01 -2.93780977e+00  -7.89561362e+00   7.28415590e-01
C     2.690374041444382e+00   6.211575542818531e+00   8.284611371237942e-01 -1.00335856e+00  -1.32945235e+00   2.07483939e+00
C     8.845187976631500e-01   6.221862709865743e+00   2.624589641897176e+00  2.50582380e-01   2.66083045e+00   8.65208860e-01
C     2.647814991123502e+00   4.461787413778739e+00   2.664689746665347e+00  7.76871270e-01   3.64154450e-01  -7.00074960e-01
C     3.583403966763138e+00   3.486929379059438e+00   7.102881817820388e+00 -4.08100320e-01   1.53693099e+00   5.02572540e-01
C     5.379603271425815e+00   5.186336562779981e+00   5.630176377212659e-02 -3.64086659e+00   3.31746888e+00  -1.78300496e+00
C     3.586604036458209e+00   5.280955638927181e+00   1.745832291851762e+00 -2.25704622e+00   1.64568594e+00   1.38136479e+00
C     5.436125040878030e+00   3.582077108596888e+00   1.758146496693293e+00 -3.00389863e+00  -1.98690936e+00   1.35283859e+00
C     4.406178579043610e+00   4.325554352097987e+00   9.297390281602800e-01  3.45873745e+00   2.82197250e+00  -1.01582328e+00
C     6.170067259529339e+00   6.228894006100316e+00   8.153055082967340e-01  7.41437490e-01  -7.84234000e-01   3.41536791e+00
C     4.361681488379613e+00   6.187459081732563e+00   2.735357277131362e+00  2.15284598e+00   1.21953704e+00  -3.04944119e+00
C     6.316116910679860e+00   4.484702551441928e+00   2.646859832376053e+00 -3.32760798e+00   1.13211278e+00  -2.06722520e+00
C     7.100741898274864e+00   6.199980426009240e-02   3.510631134769756e+00  1.79031670e+00  -4.95967628e+00   3.25816205e+00
C     1.681723347516090e+00   1.682903630007915e+00   3.672357701166424e+00  4.34922489e+00   4.54485171e+00  -4.76352316e+00
C     2.246346848991440e-02   1.753756903556991e+00   5.277020771585880e+00 -1.39774022e+00   1.03799820e-01   1.07965516e+00
C     1.793209999698289e+00   1.775044212440200e-02   5.370014435816792e+00 -1.36170716e+00  -1.45735332e+00   1.56712384e+00
C     9.199256374806913e-01   8.101957608647994e-01   4.494045364544073e+00 -3.22112771e+00   1.06844858e+00  -9.10218130e-01
C     2.638613848884174e+00   2.688982141211161e+00   4.396283939093474e+00  3.81002330e-01  -1.55917290e+00   8.15577250e-01
C     9.072256585435733e-01   2.587407544614516e+00   6.157118627968973e+00 -3.44395030e-01   4.00435198e+00   1.48073322e+00
C     2.700742884267498e+00   9.387490959995823e-01   6.232088175804613e+00 -4.41389640e-01  -1.53200351e+00   3.42368110e-01
C     3.581314161597083e+00   9.386501467567120e-02   3.586900315513011e+00 -1.14664437e+00  -2.86757086e+00   7.43591570e-01
C     5.383431654596268e+00   1.657115978763984e+00   3.572231516762831e+00 -3.75476180e-01   5.69762572e+00  -1.73999618e+00
C     3.535741495506454e+00   1.809913726591896e+00   5.278676820803661e+00  2.44998272e+00   5.89360560e-01   2.05081916e+00
C     5.327731192293567e+00   6.525531965159999e-04   5.417283171544553e+00 -3.28778119e+00  -1.68112009e+00  -2.05176021e+00
C     4.548279501428720e+00   9.416901347743812e-01   4.493312628340403e+00 -4.58718883e+00  -2.29187095e+00   1.56146770e-01
C     6.222944043114697e+00   2.729475199581764e+00   4.283816964347753e+00  7.22837490e-01  -2.87287025e+00   3.78445938e+00
C     4.490612565092422e+00   2.713159094973626e+00   6.216047024983416e+00 -4.56466110e-01  -2.67471456e+00  -7.27213990e-01
C     6.113585937001832e+00   8.203266136985972e-01   6.267727389957602e+00  2.13040864e+00   5.16636621e+00  -2.58240274e+00
C     6.410730939847000e-03   3.600486785835069e+00   3.462801189076146e+00  2.37856503e+00  -9.16176060e-01   2.51488007e+00
C     1.748268206115184e+00   5.391091832980032e+00   3.537082286181038e+00  5.47218850e-01  -1.98443391e+00   1.85390952e+00
C     7.055130562365181e+00   5.318142783189901e+00   5.393261039226751e+00  4.30145250e-01   1.28396472e+00  -2.90937930e+00
C     1.792432267179434e+00   3.542669719613037e+00   5.294941460432031e+00 -2.82028380e-01  -8.50690800e-02   9.50657040e-01
C     8.923586058865217e-01   4.440976155958391e+00   4.493953381555370e+00 -1.29954784e+00   1.09330069e+00  -2.37390217e+00
C     2.613780503376978e+00   6.186913865717608e+00   4.572374992667960e+00  1.33856512e+00   2.62851748e+00  -4.12537090e+00
C     8.056879546603264e-01   6.254326947055509e+00   6.240283831664343e+00  1.81055444e+00  -9.01189840e-01  -9.21196940e-01
C     2.687400872599341e+00   4.422079338518062e+00   6.219704166252955e+00 -6.26369830e-01  -1.80531121e+00  -1.99301110e-01
C     3.526925132183547e+00   3.555457416485286e+00   3.468421747757554e+00  1.01218360e-01  -7.55063050e-01   1.95219851e+00
C     5.274668878877827e+00   5.324492950369025e+00   3.487098843854699e+00  4.97484840e-01  -3.64314320e-01   3.04878838e+00
C     3.522165403481421e+00   5.313766411719673e+00   5.341477175619218e+00  1.56032164e+00  -1.01709412e+00   4.10672700e-02
C     5.364424514436876e+00   3.566865937200803e+00   5.256449280860505e+00 -2.06704002e+00  -6.61594590e-01  -2.31333110e-01
C     4.370990962979670e+00   4.397345013337962e+00   4.337189418242403e+00  2.13177535e+00   1.43950822e+00   2.89973741e+00
C     6.046639026019350e+00   6.238239591487282e+00   4.454152257042597e+00  5.41301590e+00  -1.19007508e+00  -3.50439630e-01
C     4.464251193058831e+00   6.121362338095433e+00   6.290445766482670e+00 -1.10859954e+00   1.54451840e+00  -1.29525043e+00
C     6.188646046141650e+00   4.405757902592958e+00   6.191747664183434e+00  6.67719050e-01   6.66760860e-01  -7.56525300e-02
