64
Lattice="7.10842262195238 0 0 0 7.10842262195238 0 0 0 7.10842262195238 " PBC="1 1 1" Properties=species:S:1:pos:R:3:force:R:3 Energy="-505.12038618"
C     7.045890394885670e+00   7.054922001245511e+00   3.248037330911360e-02  2.24682124e+00   3.49355361e+00  -9.90475170e-01
C     1.761732482652405e+00   1.781050545217195e+00   3.438407997097580e-02 -5.26450120e-01  -1.69202963e+00  -3.70539932e+00
C     6.295091120664841e-02   1.760950982669562e+00   1.812759512503586e+00 -2.53075121e+00   1.01324275e+00  -7.18448730e-01
C     1.824654391494763e+00   7.075419919796769e+00   1.687300758072194e+00 -1.25084908e+00   8.79498410e-01   3.63224714e+00
C     8.929547182074349e-01   8.918551873965733e-01   9.556974947997698e-01  4.80780880e-01  -1.17810393e+00  -2.70157276e+00
C     2.675052476245009e+00   2.639009503687204e+00   7.428418216030969e-01 -2.55479190e-01   4.84054700e-01   5.92795855e+00
C     8.793397431106703e-01   2.690436595563439e+00   2.674212616112456e+00  3.15762250e+00  -2.89397112e+00  -8.43687100e-02
C     2.640372188303457e+00   8.294236175465421e-01   2.644590966044201e+00  1.31586529e+00   1.39761807e+00  -1.28609153e+00
C     3.662742066804125e+00   7.100798765655824e+00   7.103679240669901e+00 -3.32036342e+00   1.08043641e+00  -1.74548885e+00
C     5.320970513708137e+00   1.764377882130438e+00   1.224958927991500e-01  2.17466085e+00   1.50800605e+00  -4.33415709e+00
C     3.562493048857657e+00   1.774289226873730e+00   1.665077056677252e+00 -1.55706476e+00  -4.78162130e-01   3.47159440e+00
C     5.272838531137404e+00   7.050269041051137e+00   1.792177145891602e+00  3.16452864e+00   1.35000152e+00   3.23366270e-01
C     4.457723173145753e+00   8.901870538603380e-01   8.811886438341323e-01  7.81505000e-02  -2.01517184e+00   1.37420787e+00
C     6.263839864710951e+00   2.660376213651078e+00   8.963585152947957e-01 -2.48140489e+00  -7.99245450e-01   2.25420209e+00
C     4.359449514761159e+00   2.668811636605779e+00   2.672850500170011e+00  1.55130827e+00   3.61800140e-01  -3.89934880e-01
C     6.231849901478390e+00   8.997311774910810e-01   2.617656868400116e+00 -1.10488942e+00  -1.17908932e+00   8.50354010e-01
C     1.734121023416860e-02   3.516930547811374e+00   4.612271583296520e-02 -2.59728760e+00   1.17130590e-01  -1.80853726e+00
C     1.753616441126020e+00   5.367005014016389e+00   7.089953018759132e+00  8.21064820e-01  -2.10995978e+00   1.08328425e+00
C     8.339580092516140e-02   5.311573179004498e+00   1.793072736057497e+00 -1.95756803e+00  -7.75795540e-01   4.29090740e-01
C     1.829817238843669e+00   3.416967928212267e+00   1.784276063065247e+00 -1.53281622e+00   5.16934288e+00  -7.30889790e-01
C     8.192688093285150e-01   4.329386858153559e+00   9.879799696231425e-01  4.15848409e+00   1.87748115e+00  -3.60419071e+00
C     2.701657738258692e+00   6.242605655744713e+00   8.709476104497246e-01 -1.32525849e+00   1.09348968e+00  -3.02712965e+00
C     9.982121885635016e-01   6.137260183116610e+00   2.637224507683095e+00 -2.19184535e+00   3.00816025e+00   1.25693503e+00
C     2.633917669480271e+00   4.574642437315288e+00   2.626608007415899e+00  3.60835160e-01  -5.68574408e+00   2.86336565e+00
C     3.555118486894764e+00   3.571016403000169e+00   4.598580761330399e-02 -8.81918900e-01   1.12229465e+00  -3.19898211e+00
C     5.311559815169972e+00   5.440998362173623e+00   5.509141265261919e-02  9.53793440e-01  -5.79934178e+00  -1.54572794e+00
C     3.450615362347132e+00   5.433326525976763e+00   1.759612537774442e+00  2.76335844e+00  -3.74247209e+00   1.34729946e+00
C     5.236460822958422e+00   3.555834731557955e+00   1.849913886938029e+00  3.19335945e+00   1.91935354e+00  -2.44126753e+00
C     4.303399673486685e+00   4.497673503449321e+00   9.154248686146123e-01  3.92652949e+00  -7.55089000e-03   8.22365460e-01
C     6.307433901365303e+00   6.165783368637396e+00   9.355533624423090e-01 -3.76131783e+00   1.62664072e+00  -6.97406980e-01
C     4.394742477648328e+00   6.163110814984955e+00   2.691553613093946e+00  8.50817830e-01   1.34462751e+00  -1.20706825e+00
C     6.279448183678816e+00   4.508668598305258e+00   2.652855431434892e+00 -3.44528765e+00  -2.70945499e+00   1.80834024e+00
C     7.090074217364803e+00   7.063617592468105e+00   3.451592415036251e+00  1.45987751e+00   1.11563088e+00   2.01208191e+00
C     1.791654250323675e+00   1.735887750774835e+00   3.536708596403905e+00 -7.97669490e-01   9.35684300e-01   1.56027868e+00
C     1.248551782667280e-02   1.850299874286294e+00   5.262828521488145e+00 -3.37469703e+00  -1.65075115e+00   1.98340506e+00
C     1.739522571597345e+00   2.911034122919780e-02   5.439125648234384e+00  1.06768416e+00   3.47460660e-01  -4.19717065e+00
C     8.754227889943718e-01   9.600134446777290e-01   4.495829223200562e+00  7.30840020e-01  -3.59101240e+00  -2.54452068e+00
C     2.623594604898829e+00   2.650635613219118e+00   4.469943617892927e+00  1.79872927e+00   9.31024600e-01  -1.00520139e+00
C     8.029544107418054e-01   2.622480572905822e+00   6.237695370651495e+00  3.39128170e+00   2.57209440e+00  -9.29843800e-02
C     2.680067894908776e+00   8.892307577652695e-01   6.179272880074918e+00  9.14013690e-01   2.11924700e-02   2.77063773e+00
C     3.568233455544438e+00   7.061690996685405e+00   3.501733237839397e+00 -1.81552434e+00   2.09140931e+00   1.86783163e+00
C     5.325272602161988e+00   1.804418844822409e+00   3.503939194631062e+00 -2.68998760e-01  -1.69208983e+00  -4.41638070e-01
C     3.634780873175675e+00   1.766172047999726e+00   5.333436056867249e+00 -2.67949263e+00   5.90842160e-01   2.30546320e-01
C     5.347608119044742e+00   7.043158201567446e+00   5.312612643644220e+00  1.66916541e+00   3.92197076e+00  -2.45065253e+00
C     4.456965983968272e+00   8.654173287355907e-01   4.356881739258136e+00  5.51726410e-01   1.60382550e-01   2.34405807e+00
C     6.199690473450570e+00   2.677263195679829e+00   4.325560252088762e+00  1.54710972e+00   2.02932533e+00   2.16862437e+00
C     4.472986520363870e+00   2.687424685815119e+00   6.354064442910241e+00  2.30701440e-01  -6.32531730e-01  -4.21899826e+00
C     6.157961900144384e+00   9.417237576133737e-01   6.206900048924453e+00  1.39033510e+00  -2.37544241e+00   3.15270810e-01
C     9.899459460671560e-02   3.605503839436039e+00   3.492332491092900e+00 -3.02538496e+00   1.52844290e-01   1.82454028e+00
C     1.817581724240542e+00   5.324039290837418e+00   3.693078468766819e+00 -5.90188900e-02   1.36663829e+00  -5.74515052e+00
C     4.167099508296400e-03   5.329639164009001e+00   5.263556281795981e+00  3.66036740e-01  -1.29767210e-01   2.34024038e+00
C     1.740458964109078e+00   3.595581547721912e+00   5.329204768302692e+00  1.92347155e+00  -2.63189077e+00   2.18381968e+00
C     9.739568999837637e-01   4.489058308486560e+00   4.493826211874699e+00 -3.43797040e+00  -1.93028662e+00  -1.52613149e+00
C     2.669732248419296e+00   6.219689025312773e+00   4.458725460735174e+00  4.60346170e-01   1.88317155e+00   1.53689042e+00
C     8.674689616721751e-01   6.251421237141131e+00   6.231469814120899e+00 -1.06872679e+00  -1.20227609e+00   4.39499540e-01
C     2.676517024557407e+00   4.462544318619316e+00   6.212670595323142e+00 -1.00958895e+00   3.80298990e-01   9.19555100e-01
C     3.532848225331662e+00   3.590338019776269e+00   3.593504111211216e+00 -1.49186470e+00  -8.46030780e-01  -1.16543352e+00
C     5.219443543543047e+00   5.298976414363822e+00   3.630014817977417e+00  3.56175373e+00   3.40855980e-01  -3.36726447e+00
C     3.564303350846292e+00   5.394196223306639e+00   5.357295832812409e+00 -5.18391090e-01  -2.03346358e+00   5.48903730e-01
C     5.369429981308975e+00   3.623222222574425e+00   5.243351443509345e+00 -1.49147050e+00  -3.77422502e+00   3.54736621e+00
C     4.360014207854092e+00   4.433448762909169e+00   4.522185974759450e+00  2.18881521e+00   7.41624170e-01  -2.22037147e+00
C     6.252030997633476e+00   6.162581521836670e+00   4.328491978829928e+00 -1.84144060e+00   1.31358116e+00   3.29016043e+00
C     4.524565519231495e+00   6.244783960772386e+00   6.169323434186382e+00 -2.14360406e+00  -5.04755910e-01   2.74597472e+00
C     6.211029189455958e+00   4.356529374748863e+00   6.187595705615319e+00  1.33101170e+00   4.34999536e+00   1.10321292e+00
