72
Lattice="7.395 0 0 3.6975 6.40425786098592 0 0 0 13.6 " PBC="1 1 1" Properties=species:S:1:pos:R:3:force:R:3 Energy="-582.86095076"
C     3.696256234949999e+00   6.289687351991645e+00   1.352703314400000e+01 -5.53574480e-01   2.28221760e-01  -1.83273750e-01
C     1.251510055350000e+00   5.779986174026064e-01   1.355033715200000e+01 -1.39087249e+00   1.72985930e+00  -1.12370340e-01
C     1.300586455200000e+00   8.665765259367216e-01   3.510353256000000e+00  3.15035270e-01  -4.59657990e-01  -2.52466700e-01
C     2.519600107425000e+00   1.591790267065198e+00   3.567156783999999e+00  5.64072190e-01  -7.05207530e-01  -6.35317340e-01
C     6.173761451100000e+00   6.308381124514669e+00   1.350920912000000e+01 -1.17894412e+00  -9.74307950e-01   4.13409800e-02
C     3.686441701875000e+00   6.050416849402926e-01   1.350324592800000e+01 -3.58035280e-01  -9.96360000e-03  -8.52130900e-02
C     3.756474311550000e+00   8.715603194033736e-01   3.506375391999999e+00 -9.10924420e-01  -1.60440471e+00   1.67430020e-01
C     4.982803985175000e+00   1.530305292884168e+00   3.487696336000000e+00  3.49923370e-01   9.27712100e-01  -2.84325400e-01
C     8.580172505325001e+00   6.290737586238105e+00   1.350034790400000e+01  1.22206332e+00   1.27167160e-01  -1.91729150e-01
C     6.114043794150000e+00   5.670010977202573e-01   1.351218507200000e+01  1.53926651e+00   6.74144210e-01   1.37891860e-01
C     6.218760358875000e+00   8.284302684619962e-01   3.434707200000000e+00  6.31993510e-01   5.23841390e-01   2.22395590e-01
C     7.464564173399999e+00   1.553989455259441e+00   3.464370976000000e+00 -5.54777520e-01  -6.38046770e-01   7.17425800e-02
C     1.220342940450000e+00   2.033105306622390e+00   1.357251304000000e+01 -1.55532230e-01  -3.85232510e-01  -2.45735810e-01
C     2.448845154150000e+00   2.744215014708367e+00   1.359399560000000e+01 -2.73307260e-01   3.84156580e-01  -6.08835400e-01
C     2.528005523250000e+00   2.998360302773035e+00   3.516735872000000e+00 -3.66997850e-01   8.12062910e-01   1.73277630e-01
C     3.753025875150000e+00   3.717131552622088e+00   3.513539328000000e+00  9.35745990e-01  -5.95943100e-01  -6.48785550e-01
C     3.679155556275000e+00   2.003007536170641e+00   1.350622324000000e+01 -2.18558640e-01   1.54980231e+00   8.95185690e-01
C     4.911035842950000e+00   2.707851254323816e+00   1.356195522400000e+01 -9.16656500e-02   1.11216174e+00  -5.63110700e-01
C     4.964306132174999e+00   2.950306017963104e+00   3.474006440000000e+00  1.27031205e+00   1.37526886e+00   5.22741200e-01
C     6.238056760950000e+00   3.665028816205957e+00   3.501056976000000e+00 -1.21874074e+00   6.35324000e-03  -3.68724900e-01
C     6.121706788950000e+00   1.983675707437024e+00   1.352700499200000e+01  1.03072081e+00   1.17783026e+00  -2.02508700e-02
C     7.369590964875000e+00   2.744566544422303e+00   1.350357300800000e+01 -3.19847160e-01  -5.95601620e-01   5.57443520e-01
C     7.469681809200000e+00   2.956403832084503e+00   3.490833720000000e+00  3.49817400e-02   1.36630316e+00  -6.95210300e-02
C     8.692026243375000e+00   3.711498175280696e+00   3.484541135999999e+00 -2.62728020e-01  -2.27750950e-01   3.88197350e-01
C     9.813257141699999e+00   4.196187844386938e+00   1.355753236800000e+01  1.34484087e+00  -1.40149944e+00  -3.72066670e-01
C     3.677554612725000e+00   4.884646012634989e+00   1.351023320000000e+01  1.97553900e-02  -6.32968720e-01   4.60966650e-01
C     3.791573532825000e+00   5.146177459374752e+00   3.425223240000000e+00 -6.93140090e-01  -9.62159290e-01   4.56985770e-01
C     5.018535885675000e+00   5.845306466111714e+00   3.448173784000000e+00 -3.30515900e-02  -3.26631850e-01   2.19899450e-01
C     4.917855548924999e+00   4.167632731568506e+00   1.353895313600000e+01 -8.25782770e-01  -9.83481370e-01  -1.48306480e-01
C     6.128591755800000e+00   4.880638676364251e+00   1.348909036800000e+01  5.17400460e-01   1.65344750e-01   3.45764170e-01
C     6.234367543350000e+00   5.091841238029946e+00   3.487054960000000e+00  2.47865480e-01   4.57001430e-01  -8.31184800e-02
C     7.464948713399999e+00   5.823776439910230e+00   3.485726240000000e+00 -7.15962020e-01   1.05642587e+00   3.02165590e-01
C     7.352055312299999e+00   4.181087757119474e+00   1.350561137600000e+01  8.09512170e-01  -1.20025658e+00  -3.58078160e-01
C     8.600063798174999e+00   4.891906519770871e+00   1.347512357600000e+01 -1.03132932e+00  -9.37509190e-01   6.80075570e-01
C     8.693819235074999e+00   5.152509605291248e+00   3.513708104000000e+00  1.09318440e-01  -1.86319876e+00  -6.60460880e-01
C     9.933730602674999e+00   5.820325761732683e+00   3.439546760000000e+00  2.77842640e-01   8.93394520e-01   1.88996860e-01
C     7.444962431774999e+00   9.853418228433780e-02   6.909573568000001e+00 -4.76428630e-01  -2.49678290e-01   7.78455800e-02
C     1.268596905375000e+00   8.255805017994535e-01   6.930428624000000e+00  7.51779600e-02  -9.56969140e-01  -1.56157770e-01
C     1.166676427125000e+00   5.782818777277543e-01   1.007181442400000e+01 -1.26851377e+00   1.04973750e-01   2.62547210e-01
C     2.377825866600000e+00   1.279217461564442e+00   1.012733696800000e+01  2.65944360e-01   8.38367750e-01   6.85466800e-02
C     2.505560589000000e+00   1.085320613573196e-01   6.868936360000000e+00 -4.03160090e-01   3.47565940e-01   2.34895200e-01
C     3.746185352249999e+00   7.782989547429097e-01   6.858291640000000e+00  5.50229730e-01   7.74639790e-01   1.73825790e-01
C     3.589288669200000e+00   5.702408836864741e-01   1.015906780800000e+01  1.82521967e+00   4.49724840e-01  -5.62263670e-01
C     4.861964471700000e+00   1.308599556200337e+00   1.008674572800000e+01 -1.21950180e+00  -6.73875030e-01   5.37845550e-01
C     5.005603102949999e+00   9.488753381627520e-02   6.880795151999999e+00 -8.53723660e-01   9.59872100e-02   7.93870800e-02
C     6.227013104925000e+00   8.219902748431374e-01   6.930515255999999e+00 -2.98949380e-01   4.40892670e-01  -5.09616860e-01
C     6.094501508324999e+00   6.040761790253190e-01   1.005680043200000e+01 -1.44903650e-01  -1.82084330e-01   3.68190800e-02
C     7.327298146424999e+00   1.331372905022761e+00   1.004768217600000e+01  3.43428070e-01  -1.34923937e+00  -9.62111100e-02
C     8.653122294599999e+00   2.223908257641471e+00   6.980296695999999e+00 -3.04753360e-01   6.24086130e-01  -8.13730110e-01
C     2.499694024575000e+00   2.885495568845690e+00   6.918030048000000e+00  1.39734920e-01   1.89832618e+00   3.29768030e-01
C     2.390547337200000e+00   2.710466112808054e+00   1.012746358400000e+01 -1.51343420e-01   7.41975260e-01  -3.35344500e-02
C     3.619649766075000e+00   3.447627381229832e+00   1.009900368000000e+01 -2.34998810e-01  -1.24813842e+00   1.23465120e-01
C     3.740438734725000e+00   2.203234224545554e+00   6.893224328000001e+00 -3.89161140e-01  -4.32974050e-01  -9.21032200e-02
C     4.952106711600000e+00   2.924563014770998e+00   6.904626023999999e+00  4.90166590e-01   1.24848904e+00  -7.81846200e-02
C     4.850541008475000e+00   2.732443028123008e+00   1.010151940800000e+01  1.89119190e-01  -5.97402850e-01  -3.78629730e-01
C     6.082261932900000e+00   3.419439360471935e+00   1.003446896000000e+01  1.94199740e-01   9.68885800e-01   1.48803290e-01
C     6.203690088375000e+00   2.274912984047504e+00   6.900100895999999e+00 -2.30779280e-01  -2.04740888e+00   2.00328010e-01
C     7.419750991050000e+00   2.970560700254347e+00   6.916082256000000e+00  4.22666490e-01  -1.13643350e-01   1.29549780e-01
C     7.335547786575000e+00   2.741140522637517e+00   1.001064828800000e+01 -6.39019980e-01  -1.95443430e-01   8.25662390e-01
C     8.558237789100000e+00   3.450651792004217e+00   1.011471113600000e+01  3.67728270e-01  -6.14163100e-01  -4.69306820e-01
C     9.893261760974999e+00   4.335552244572550e+00   6.930354503999999e+00 -5.66196210e-01   5.97504600e-02  -4.84682620e-01
C     3.713174700825000e+00   5.063853414372754e+00   6.892013111999999e+00  6.34146580e-01   1.55044470e-01   3.10136060e-01
C     3.629000188950000e+00   4.843314405385857e+00   1.004036728000000e+01 -1.10948876e+00   9.65116070e-01   4.74271380e-01
C     4.853441808149999e+00   5.550380721229344e+00   1.007424488000000e+01 -4.53717630e-01   9.91432880e-01  -2.62857690e-01
C     4.953300042750000e+00   4.358624031811249e+00   6.922111272000000e+00 -2.87572720e-01   3.03417030e-01  -3.98472830e-01
C     6.173474636025000e+00   5.115131026206202e+00   6.895070663999999e+00 -4.43577000e-03  -1.85082935e+00  -2.05775020e-01
C     6.067275595649999e+00   4.859070032487872e+00   1.005484801600000e+01  3.74577820e-01  -1.25825239e+00   3.91499220e-01
C     7.283263324799999e+00   5.556010576228913e+00   1.011998902400000e+01  1.18332614e+00   5.13509590e-01  -8.78536000e-02
C     7.394863451325000e+00   4.384346029037575e+00   6.883508623999999e+00  1.32934009e+00   6.88603550e-01   1.41617410e-01
C     8.663441166675000e+00   5.086705855779749e+00   6.896455007999999e+00  2.27899100e-02  -1.10551441e+00  -9.78360000e-04
C     8.544411986175000e+00   4.863545776178490e+00   1.010741568800000e+01 -8.03241200e-02   2.87658460e-01  -8.03143000e-03
C     9.775418072925000e+00   5.569749566573392e+00   1.006048480800000e+01  5.61234240e-01   2.98735020e-01   2.03833120e-01
