72
Lattice="7.395 0 0 3.6975 6.40425786098592 0 0 0 13.6 " PBC="1 1 1" Properties=species:S:1:pos:R:3:force:R:3 Energy="-580.82997877"
C     3.661501990425000e+00   6.259670659444402e+00   1.353193417600000e+01 -9.80674200e-02   1.39107093e+00   4.10065330e-01
C     1.177136136975000e+00   6.007101010941031e-01   1.353400477600000e+01  7.60866200e-01  -1.57009430e-01   3.48017100e-02
C     1.314380311725000e+00   8.234204737084327e-01   3.425305792000000e+00 -9.04366220e-01   1.80066332e+00   1.60255930e-01
C     2.524993761600000e+00   1.576781952812867e+00   3.406390776000000e+00  1.36203023e+00  -1.97769120e+00   5.22113590e-01
C     6.105287559524999e+00   6.296769116290654e+00   1.355788610400000e+01  1.10464990e+00  -1.19587024e+00   8.91436500e-02
C     3.662341322925000e+00   5.829544242624103e-01   1.352922927200000e+01  5.59193200e-01   7.92239100e-02   3.88344070e-01
C     3.796938827175000e+00   8.853779540343739e-01   3.476387528000000e+00 -1.09870335e+00  -1.82723453e+00  -3.10273960e-01
C     5.029194521025000e+00   1.604870195233305e+00   3.479753256000000e+00 -1.24575288e+00  -6.75404830e-01   2.71220940e-01
C     8.633939775525000e+00   6.299446608416762e+00   1.353449641600000e+01 -4.90457630e-01  -5.17451420e-01   3.79036930e-01
C     6.165525084974999e+00   6.692024861403882e-01   1.357707216800000e+01 -1.21399264e+00  -3.64296740e+00  -3.29341260e-01
C     6.211847808675000e+00   8.945178546818515e-01   3.491679368000000e+00  2.22903618e+00  -1.75869562e+00  -1.44724210e-01
C     7.478528262824999e+00   1.586981053667810e+00   3.442292600000000e+00 -1.10883631e+00  -8.36784210e-01   9.76045700e-02
C     8.578982169150001e+00   2.060203002479622e+00   1.352208764000000e+01  2.18388334e+00  -3.65007709e+00   5.13497400e-02
C     2.427084331350000e+00   2.712741929881183e+00   1.345967778400000e+01  7.28407420e-01   7.73914000e-02   5.53631280e-01
C     2.541672481575000e+00   2.969783543563036e+00   3.450621784000000e+00 -3.64244620e-01   4.18964850e-01  -2.69898060e-01
C     3.768970456500000e+00   3.660908444783991e+00   3.468733312000000e+00  7.04948080e-01   1.70312157e+00   5.57814510e-01
C     3.662657644050000e+00   2.015951630029538e+00   1.355363515200000e+01  1.01390821e+00  -1.74097920e-01  -6.38086050e-01
C     4.925917319100000e+00   2.754472074096943e+00   1.358751996000000e+01 -1.16462434e+00  -6.79694910e-01   2.31978230e-01
C     5.036052644025000e+00   2.996880086653854e+00   3.516667600000000e+00 -8.16515440e-01   2.11548421e+00  -7.80075550e-01
C     6.245147382750000e+00   3.807902301400798e+00   3.458096888000000e+00 -1.09791064e+00  -6.06761166e+00   2.55837970e-01
C     6.163639803675000e+00   2.057643028485244e+00   3.589257600000000e-02 -1.31499790e+00  -8.19621140e-01  -1.38090600e-01
C     7.395575478899999e+00   2.690886887593305e+00   4.994899200000000e-02 -1.63235485e+00   2.82293231e+00  -5.38879080e-01
C     7.428522977025000e+00   3.008596676408724e+00   3.427232776000000e+00  2.63424776e+00   8.24066820e-01   1.89789830e-01
C     8.722904139824999e+00   3.680596350254624e+00   3.445774472000000e+00 -1.51522470e+00   6.98364190e-01  -2.56319840e-01
C     2.463905367450000e+00   4.120207985306212e+00   1.346176837600000e+01 -3.24119590e-01  -6.51374700e-02   6.09970340e-01
C     3.666988303949999e+00   4.825839235048432e+00   1.353651424800000e+01  3.68863410e-01   1.97525424e+00  -2.69224580e-01
C     3.751407627300000e+00   5.118420829426305e+00   3.516393831999999e+00 -3.78940580e-01  -3.85166980e-01  -3.95433110e-01
C     4.987358528700000e+00   5.820370911750596e+00   3.484812728000000e+00 -8.88400670e-01   7.71002950e-01  -6.51425600e-02
C     4.906094836725000e+00   4.180537695411878e+00   1.359820276000000e+01 -2.94508450e-01  -2.03174840e+00  -1.06919600e-02
C     6.130131062025000e+00   4.824626332652326e+00   4.436428800000000e-02  1.04186551e+00   2.31794183e+00  -6.19795600e-01
C     6.203420762475000e+00   5.142191961623317e+00   3.468050048000000e+00  1.63514154e+00   1.94358742e+00   6.58570400e-02
C     7.471699904699999e+00   5.781035063378376e+00   3.479705384000000e+00 -2.81265870e-01   4.01590306e+00  -3.60894250e-01
C     7.358118361874999e+00   4.089557143145675e+00   1.021808800000000e-02  1.82240547e+00   2.68737078e+00   2.75185240e-01
C     8.664038571750000e+00   4.823358097468311e+00   1.355741880800000e+01 -3.01519995e+00   1.60502388e+00  -4.30661280e-01
C     8.704999143974998e+00   5.120535963669727e+00   3.442740040000000e+00 -3.78881800e-01  -1.21954579e+00   5.06400360e-01
C     9.899637323249999e+00   5.851150543536699e+00   3.500045679999999e+00  1.50966309e+00   4.72962220e-01  -1.93874660e-01
C     7.413437620724999e+00   1.063272675038574e-01   7.025116039999999e+00  1.16767950e-01  -6.13662700e-02  -6.19427880e-01
C     1.245087645750000e+00   8.120513149424677e-01   6.920986008000001e+00  1.44352596e+00  -5.90694550e-01  -2.93478640e-01
C     1.155882537225000e+00   5.980770545175427e-01   1.007226308800000e+01 -8.52567420e-01  -9.14089970e-01  -1.68991300e-01
C     2.375292561450000e+00   1.309585043399833e+00   1.007750126400000e+01  4.07513460e-01  -3.64189290e-01  -2.93475500e-02
C     2.514112425825000e+00   6.565971775222861e-02   6.851130424000000e+00 -1.24519473e+00   2.04590395e+00   1.84882300e-02
C     3.692757734400000e+00   8.411276703081252e-01   6.807147752000000e+00  1.28701050e+00  -1.15555310e-01   2.78065880e-01
C     3.609475466250000e+00   5.880349860653269e-01   1.013224480000000e+01  1.40208730e+00   1.44530650e-01   1.58525310e-01
C     4.899008836800000e+00   1.307355849323925e+00   1.012761304800000e+01 -4.38943348e+00  -6.41212290e-01  -4.74493730e-01
C     4.927043725500000e+00   7.400568255280200e-02   6.900909416000000e+00 -2.10157310e-01   1.96662048e+00  -2.15806590e-01
C     6.167046939000000e+00   7.537698786281665e-01   6.958788840000000e+00  2.37046920e-01   2.84718234e+00  -4.50037800e-02
C     6.041415428550000e+00   5.839755831781873e-01   1.011271220800000e+01  2.25298393e+00  -1.29925856e+00   6.43030700e-02
C     7.284453771899999e+00   1.248146179875395e+00   1.004671644000000e+01  1.16486815e+00   1.39927852e+00   5.33759040e-01
C     1.285443491850000e+00   2.225418253559702e+00   6.854300584000000e+00 -6.66496090e-01   6.02442390e-01   5.70310910e-01
C     2.505260425950000e+00   2.986911539081871e+00   6.840895472000000e+00 -2.83798900e-01   4.02986250e-01  -2.75598790e-01
C     2.370127006050000e+00   2.728585167230723e+00   1.002115700800000e+01  4.23333740e-01   8.58608500e-02   1.67262650e-01
C     3.623886657375000e+00   3.423986063339642e+00   1.000653252000000e+01 -8.76307520e-01  -1.99768280e-01   2.51952130e-01
C     3.736999283250000e+00   2.316805348114858e+00   6.782015088000000e+00 -1.31188812e+00  -3.63321243e+00   3.94911490e-01
C     4.969479082574999e+00   2.930691185074653e+00   6.833482655999999e+00  7.10015050e-01   2.45791225e+00   1.76038710e-01
C     4.844386334850000e+00   2.688953826400842e+00   1.001135045600000e+01  5.81928720e-01   1.81310940e+00   6.41339770e-01
C     6.056888282849999e+00   3.408715174515050e+00   1.006809428000000e+01  1.36997640e+00   1.49043145e+00   2.69931070e-01
C     6.186130180199999e+00   2.233061991485926e+00   6.923754560000000e+00  1.71970230e-01  -1.75804165e+00  -3.21838690e-01
C     7.418207173875000e+00   2.941696774121906e+00   6.926613280000001e+00  1.01643920e+00  -1.83610436e+00  -4.08784730e-01
C     7.306373956949999e+00   2.669620652773074e+00   1.008733107200000e+01 -8.12717400e-01   1.54372074e+00  -4.20602570e-01
C     8.533343741774999e+00   3.434438836848420e+00   1.004235859200000e+01  2.72042930e-01  -1.69958610e+00   6.04878550e-01
C     9.916830291524999e+00   4.434533380012937e+00   6.910109679999999e+00 -1.49499000e+00  -2.34774609e+00   1.27316820e-01
C     3.719140617075000e+00   5.100122007485505e+00   6.989972279999999e+00  2.51521332e+00  -6.48638100e-02  -7.58440260e-01
C     3.616846506450000e+00   4.832405136376818e+00   1.005731260800000e+01 -3.82526680e-01   1.50250072e+00  -2.11470900e-02
C     4.858439460074999e+00   5.576338907485546e+00   1.005288336000000e+01 -4.73329800e-01   2.29268230e-01   5.86043830e-01
C     4.979330812500000e+00   4.381069290503506e+00   6.865892136000000e+00 -1.15999630e-01  -4.14133090e-01   3.28638790e-01
C     6.238284046275000e+00   5.062958483379397e+00   6.852944528000000e+00 -7.20816590e-01  -7.25202450e-01   3.22109500e-01
C     6.093500927850000e+00   4.918507309260745e+00   1.012701682400000e+01 -1.42107960e-01  -3.69800161e+00  -4.68644420e-01
C     7.345439116725000e+00   5.560528203765935e+00   1.017110122400000e+01 -8.85762620e-01   1.06195525e+00  -1.74456930e-01
C     7.468107191850001e+00   4.316894015680647e+00   6.892007127999999e+00 -9.43776220e-01   2.49465012e+00  -1.69235370e-01
C     8.670611617500001e+00   5.093668372797405e+00   6.920250791999999e+00 -6.48884850e-01  -1.34586882e+00  -1.90634970e-01
C     8.574682346399999e+00   4.827235747517383e+00   1.014189277600000e+01 -2.20822479e+00   7.60327340e-01  -1.65315040e-01
C     9.728204843325001e+00   5.572662607303593e+00   1.012504618400000e+01  3.17449799e+00  -1.17060897e+00  -1.87483810e-01
