72
Lattice="7.395 0 0 3.6975 6.40425786098592 0 0 0 13.6 " PBC="1 1 1" Properties=species:S:1:pos:R:3:force:R:3 Energy="-582.00704511"
C     3.682317510375000e+00   6.348818953536861e+00   1.340975680800000e+01 -1.84566180e-01   8.88228700e-01  -3.09067920e-01
C     1.182082208775000e+00   6.943906884740827e-01   1.336687859200000e+01  1.30185992e+00  -1.56456466e+00   1.19638650e-01
C     1.259789904075000e+00   7.593134682743611e-01   3.471710624000000e+00  2.66438200e-02   1.64468250e-01   1.25624330e-01
C     2.504406303450000e+00   1.479009428915819e+00   3.451846736000000e+00 -4.22828460e-01  -2.69387070e-01   1.68340630e-01
C     6.098051145299999e+00   6.361826321463413e+00   1.339410402400000e+01  2.21318803e+00   1.93367310e-01   3.93882260e-01
C     3.676184984775000e+00   6.913539174820278e-01   1.341178919200000e+01  3.05976160e-01  -1.09564748e+00  -6.63679540e-01
C     3.733735943700000e+00   7.564308477689964e-01   3.525673927999999e+00  1.73408260e-01   1.16764840e+00  -9.12812600e-02
C     4.949144644350000e+00   1.505175689509892e+00   3.595386032000000e+00  8.69404740e-01  -5.34919030e-01  -8.79502440e-01
C     8.657860382025000e+00   6.379762150068708e+00   1.339101437600000e+01 -2.00165409e+00  -6.93007500e-01   1.79958250e-01
C     6.177317225925000e+00   7.000172132595642e-01   1.341840110400000e+01 -9.64176380e-01  -3.45611740e-01   1.26890350e-01
C     6.199625019899999e+00   7.867972768379724e-01   3.580433240000000e+00 -6.13218660e-01   2.34292880e-01  -3.58567710e-01
C     7.433300627700000e+00   1.485734027753976e+00   3.489879952000000e+00 -2.23146770e-01   5.25572210e-01   2.44864000e-01
C     1.223208392025000e+00   2.096592443938192e+00   1.333292156800000e+01 -6.82088060e-01   3.08490800e-02   7.21841770e-01
C     2.432853429675000e+00   2.806045242430630e+00   1.329921002400000e+01  1.45202434e+00  -5.64288050e-01  -1.34537140e-01
C     2.500392963000000e+00   2.903821929095287e+00   3.471626712000000e+00  5.81464100e-02  -3.60706690e-01   3.42472720e-01
C     3.753351255150000e+00   3.607962523778013e+00   3.589081072000000e+00 -1.77593411e+00   5.10528670e-01  -9.15467060e-01
C     3.689357106675000e+00   2.107029591057791e+00   1.330280940000000e+01 -5.52155000e-03  -2.95578070e-01   1.45698886e+00
C     4.928889110775000e+00   2.821604514986658e+00   1.349462937600000e+01 -7.73109340e-01  -4.36297660e-01  -9.25600710e-01
C     4.981465268325000e+00   2.937770964053726e+00   3.514435432000000e+00 -8.48009130e-01  -1.43987345e+00   9.44193600e-01
C     6.186550770825000e+00   3.644137678768587e+00   3.538743256000000e+00  9.13206930e-01   5.56105900e-02  -1.60461060e-01
C     6.162762534824999e+00   2.144208613467921e+00   1.350254756800000e+01 -3.28275760e-01  -2.14435836e+00   7.05687900e-02
C     7.397410917899999e+00   2.798729722719731e+00   1.351059033600000e+01  3.84183480e-01   1.70448700e-02  -3.47255930e-01
C     7.416781935524999e+00   2.931175218883712e+00   3.496309216000000e+00 -4.40551660e-01  -1.48004919e+00  -1.80019530e-01
C     8.632370852325000e+00   3.601126811065985e+00   3.470204424000000e+00  1.86771675e+00   8.03663160e-01   4.55347400e-01
C     2.465256914625000e+00   4.206146017061188e+00   1.329828318400000e+01 -2.48846040e-01   9.57750370e-01   3.83590750e-01
C     3.696456491550000e+00   4.934452886650888e+00   1.335806592800000e+01 -4.32062750e-01  -8.68666700e-02   2.91891430e-01
C     3.718186477200000e+00   5.027184875356644e+00   3.597879728000000e+00 -1.59483600e-01   5.39054180e-01  -2.98486150e-01
C     4.937963478299999e+00   5.726059889226878e+00   3.561954239999999e+00  6.89609190e-01   1.51050733e+00  -2.21393560e-01
C     4.922338582800000e+00   4.231075423334760e+00   1.346513451200000e+01  8.75359500e-02   1.31050550e-01   1.88813000e-02
C     6.148886113125000e+00   4.926347593860693e+00   1.349462434400000e+01  7.09308930e-01   4.55628400e-01   1.87681590e-01
C     6.188775593550000e+00   5.063365473966400e+00   3.558489776000000e+00 -1.66865580e-01  -7.99388090e-01  -4.06902000e-01
C     7.426365226949999e+00   5.748552411342140e+00   3.505659624000000e+00  2.99331510e-01  -1.67791240e-01   6.15120740e-01
C     7.420515375224999e+00   4.181261888890687e+00   1.354958044800000e+01 -1.26372203e+00   2.80996986e+00  -1.08517235e+00
C     8.627280467099999e+00   4.905971614925582e+00   1.334393158400000e+01  4.10989410e-01   1.65353961e+00   1.04668708e+00
C     8.654027442600000e+00   5.017865655489087e+00   3.559201328000000e+00  1.98212080e-01   1.35721903e+00  -7.42281580e-01
C     9.890687228699999e+00   5.780978962079521e+00   3.552192976000000e+00 -4.41931780e-01  -1.82690588e+00   4.92049570e-01
C     7.391188912800000e+00   2.807357666993880e-02   7.007404080000001e+00  1.06337708e+00   6.06565210e-01  -5.07317000e-01
C     1.260768114675000e+00   7.401073551225354e-01   6.864880159999999e+00 -1.03689495e+00   3.35049700e-01   7.17680300e-02
C     1.212488563050000e+00   6.586734379204980e-01   1.018489448000000e+01 -1.09173097e+00  -3.52848000e-03   4.86267880e-01
C     2.427611594850000e+00   1.367928729100534e+00   1.020328249600000e+01  5.91732990e-01   2.65091210e-01   1.76766240e-01
C     2.480061039075000e+00   3.121326408580380e-02   6.759730536000000e+00  1.79900150e-01  -3.99976120e-01   3.81951040e-01
C     3.699268514250000e+00   7.666049079757068e-01   6.715508231999999e+00  1.22585570e-01  -4.92340540e-01   2.02549870e-01
C     3.676881963525000e+00   6.516498242828574e-01   1.036338876800000e+01 -1.12067956e+00   7.06299310e-01  -1.50920367e+00
C     4.893587895075000e+00   1.350421217260916e+00   1.022015261600000e+01  2.86539790e-01   7.80468460e-01   8.89435850e-01
C     4.924671594374999e+00   2.693240196186540e-02   6.818713464000000e+00  2.76067570e-01   7.99954950e-01   6.28063010e-01
C     6.154230664500000e+00   7.293573600064752e-01   6.978421256000001e+00  2.45127100e-01   2.99191340e-01  -9.68965950e-01
C     6.114651885000000e+00   6.572883250305372e-01   1.029522040000000e+01  2.49613420e-01  -9.45906710e-01  -6.15041150e-01
C     7.332522381149999e+00   1.358063482207833e+00   1.020864837600000e+01  1.21918590e+00  -5.69213310e-01  -2.23160660e-01
C     8.645254051575000e+00   2.177149169941146e+00   6.827410392000000e+00  4.76815450e-01  -3.17753890e-01  -3.35700070e-01
C     2.487634480425000e+00   2.922461201383924e+00   6.697565751999999e+00 -6.85975120e-01  -1.20261211e+00   1.30506732e+00
C     2.413999766250000e+00   2.814741007795517e+00   1.012887132000000e+01  7.06271660e-01  -1.64577319e+00   2.75961160e-01
C     3.653385719100000e+00   3.501509796862678e+00   1.010448380000000e+01  5.83047660e-01  -1.38265750e-01   5.75663660e-01
C     3.699887438775000e+00   2.191839128535256e+00   6.694089320000000e+00  9.76486760e-01   2.62885470e-01   1.94753100e-01
C     4.964155089300000e+00   2.911880919101154e+00   6.759310431999999e+00 -8.93454420e-01  -2.34000521e+00   2.10527980e-01
C     4.913829193274999e+00   2.774639786566448e+00   1.016984608000000e+01 -1.64337160e+00   4.42345070e-01  -2.41518960e-01
C     6.119630531774999e+00   3.488436336995009e+00   1.022042053600000e+01  4.94701180e-01   5.06745530e-01  -2.75085580e-01
C     6.179483036550000e+00   2.145484277591054e+00   6.858431583999999e+00 -3.40868100e-01   9.21518780e-01   2.44372890e-01
C     7.404740287275000e+00   2.861763950919674e+00   6.874992576000000e+00  4.30307250e-01   7.34027030e-01  -2.51356320e-01
C     7.336826862750000e+00   2.749739711793875e+00   1.017958082400000e+01  8.02145410e-01   1.81134362e+00   5.54306130e-01
C     8.588843919300000e+00   3.488135529003325e+00   1.020993439200000e+01 -9.22480840e-01   5.01444470e-01  -3.17838460e-01
C     9.885864875250000e+00   4.323153153057539e+00   6.902531760000000e+00 -1.74823020e-01  -1.21552550e-01  -7.60934120e-01
C     3.710804307525000e+00   5.024508856209843e+00   6.948711240000001e+00  7.41601760e-01  -4.41070890e-01  -4.26356360e-01
C     3.632741837100000e+00   4.915671503880337e+00   1.017038926400000e+01  1.80018711e+00   3.86218920e-01   3.09846180e-01
C     4.893563306700000e+00   5.646694867526514e+00   1.022866499200000e+01 -2.50284700e-02  -8.47197420e-01  -3.78463810e-01
C     4.954559891924999e+00   4.293973368927443e+00   6.818271327999999e+00  6.13545000e-03   1.35573435e+00   3.32551090e-01
C     6.203153618100000e+00   4.984972746694341e+00   6.811900680000000e+00 -9.02849430e-01   1.75257304e+00  -1.10269870e-01
C     6.130453299149999e+00   4.930197001132603e+00   1.025911512000000e+01  1.67764970e-01   4.69469200e-02   1.67250740e-01
C     7.383445941075000e+00   5.655148039603663e+00   1.035475412800000e+01 -9.59967170e-01  -1.40592216e+00  -3.12879930e-01
C     7.423551096675000e+00   4.313364052790793e+00   6.827129144000000e+00  1.66077630e-01  -1.53665121e+00   9.98833000e-02
C     8.654397895125001e+00   5.024056459434613e+00   6.866064584000000e+00 -6.27240850e-01  -1.38248680e-01  -4.78027700e-02
C     8.611396339875000e+00   4.921508024281048e+00   1.030936317600000e+01 -1.15782184e+00  -4.91717400e-01  -3.01727830e-01
C     9.822014522549999e+00   5.623584334527760e+00   1.028294191200000e+01 -1.86774100e-02   6.37777870e-01  -2.06367570e-01
