72
Lattice="7.395 0 0 3.6975 6.40425786098592 0 0 0 13.6 " PBC="1 1 1" Properties=species:S:1:pos:R:3:force:R:3 Energy="-582.07633269"
C     3.678032033925000e+00   6.247611185723708e+00   1.817580160000000e-01 -4.43586750e-01  -9.46478550e-01  -7.82255240e-01
C     1.168260251250000e+00   5.621784353813628e-01   1.486866240000000e-01  2.26360413e+00  -1.15557362e+00   7.73228100e-02
C     1.326584021400000e+00   8.972607342807110e-01   3.389535888000000e+00 -1.07758600e-01   8.24322930e-01   3.86002800e-02
C     2.575553006850000e+00   1.589496325942325e+00   3.436662064000000e+00  7.05695200e-02   8.12695690e-01  -4.03819860e-01
C     6.108702496575000e+00   6.235304891905090e+00   1.045310960000000e-01  1.56435981e+00  -3.63223460e-01  -8.66310100e-02
C     3.684782781525000e+00   5.429963381965123e-01   1.389482080000000e-01 -1.39877760e-01  -5.40965300e-01  -4.39424120e-01
C     3.822923193299999e+00   9.179637786647328e-01   3.387988752000000e+00 -7.16863210e-01  -5.89285500e-01   1.54087620e-01
C     5.030269495200000e+00   1.661259365477712e+00   3.363516640000000e+00  7.45266900e-01  -6.01942560e-01  -4.14082760e-01
C     8.635887248774999e+00   6.222301814831303e+00   1.104159520000000e-01 -1.57259930e-01   6.52452040e-01  -3.12782370e-01
C     6.190851000299999e+00   5.909370114720072e-01   9.122934400000000e-02 -2.46190683e+00  -1.42365908e+00   4.20099220e-01
C     6.260407298024999e+00   9.628309205080567e-01   3.307512792000000e+00  8.10656440e-01  -2.05705290e+00   3.18855120e-01
C     7.515786676199999e+00   1.680338290068438e+00   3.374252752000000e+00 -1.53853163e+00  -2.80804204e+00  -1.92662650e-01
C     1.198082733300000e+00   1.966207069442616e+00   1.772319360000000e-01  1.33847843e+00  -4.09767290e-01  -4.01966590e-01
C     2.458143775050000e+00   2.647316800094367e+00   2.253520000000000e-01 -6.02725650e-01   8.87083110e-01  -4.04820380e-01
C     2.591261244000000e+00   3.031595327022663e+00   3.399988712000000e+00 -1.73592071e+00  -2.50599040e-01   2.46147630e-01
C     3.798947974725000e+00   3.757922768592993e+00   3.347669920000000e+00  5.15817110e-01  -9.17717220e-01  -2.87288350e-01
C     3.692378888550000e+00   1.989048111270621e+00   1.499734560000000e-01 -3.04816500e-02  -1.72314205e+00   3.61798810e-01
C     4.908971195925000e+00   2.703493605148136e+00   1.061209360000000e-01  5.62710460e-01  -8.20701290e-01  -3.95034390e-01
C     5.055576923025000e+00   3.068696793870108e+00   3.308656824000000e+00 -5.22806230e-01   9.61463850e-01   7.41367030e-01
C     6.289463399250001e+00   3.819188653112633e+00   3.357305928000000e+00 -2.05821494e+00  -1.74093309e+00  -6.17930100e-02
C     6.161046229275000e+00   2.014939052819293e+00   4.985311200000000e-02 -5.99681340e-01  -1.55489903e+00   1.05968160e-01
C     7.400345364825000e+00   2.660311999930985e+00   4.750330400000000e-02 -7.07107040e-01   1.62958833e+00   6.09756730e-01
C     7.458952662525000e+00   3.059438798707692e+00   3.413123048000000e+00  2.58761102e+00   1.48018319e+00  -1.01579820e-01
C     8.719895336175000e+00   3.745281916343768e+00   3.419234072000000e+00  7.13828830e-01   3.43868750e-01  -1.43032910e-01
C     2.459467295175000e+00   4.071888948476349e+00   2.261365840000000e-01  2.72522410e-01  -4.14512500e-02  -7.95213850e-01
C     3.682990270500000e+00   4.790218240490483e+00   1.788975280000000e-01 -1.01782610e-01   1.29249015e+00  -7.02159000e-02
C     3.772507115249999e+00   5.152190865377556e+00   3.283844712000000e+00  1.28661290e-01   1.13131181e+00   4.15738250e-01
C     4.987418058450000e+00   5.881410661925199e+00   3.338750360000000e+00  8.85675480e-01   6.35507370e-01   4.54337900e-02
C     4.912500681525000e+00   4.098211601047364e+00   8.167004000000000e-02  9.00151300e-02   3.54928820e-01   1.25871370e-01
C     6.160074267450000e+00   4.772709896097343e+00   1.124488800000000e-02 -4.36969160e-01   2.19452598e+00   7.44247780e-01
C     6.249003024824999e+00   5.217969318070510e+00   3.376053120000000e+00  3.20482270e-01  -9.11953800e-02  -1.21949590e-01
C     7.503807256875000e+00   5.886230954688685e+00   3.381484960000000e+00 -4.91553830e-01   1.48126283e+00   1.20645810e-01
C     7.396234484324999e+00   4.078935297229393e+00   6.536160000000001e-02  1.51530720e-01   4.51224180e-01  -5.75280020e-01
C     8.638586682600000e+00   4.771570706709206e+00   8.433169600000000e-02 -5.84639240e-01   1.70963059e+00   7.96746070e-01
C     8.721359028524999e+00   5.185189508469571e+00   3.370977600000000e+00  1.67569740e-01  -1.35984611e+00  -1.29349210e-01
C     9.948248540624999e+00   5.865246122958824e+00   3.285412384000000e+00  1.57425740e-01   2.56418088e+00   4.12598830e-01
C     7.406950319999999e+00   1.281057789103092e-01   6.651931088000000e+00 -4.73736080e-01   8.73499730e-01   2.04314320e-01
C     1.245589285575000e+00   8.358261616090388e-01   6.711874312000000e+00  5.34043610e-01   8.73030200e-02   1.64917690e-01
C     1.119952413750000e+00   5.622303098700289e-01   1.016864683200000e+01 -1.97876680e-01  -9.63767050e-01   4.20472880e-01
C     2.383469508750000e+00   1.276405736193588e+00   1.023981848800000e+01 -1.56754754e+00  -1.20322834e+00  -1.77914630e-01
C     2.482538659875000e+00   8.666914183227301e-02   6.753447336000000e+00 -5.05602000e-03   2.68946584e+00  -2.95042400e-02
C     3.699908514525000e+00   8.621698201458342e-01   6.792701016000000e+00 -3.21360120e-01   2.15837410e-01  -3.75614800e-01
C     3.594840983100000e+00   5.718037787746284e-01   1.020376801600000e+01  7.27631160e-01  -1.58477105e+00  -4.92718570e-01
C     4.825650991424999e+00   1.246653027155336e+00   1.015432657600000e+01 -4.04851710e-01   3.42493400e-01   5.11281470e-01
C     4.912925154524999e+00   1.306939316392710e-01   6.673672863999999e+00 -3.67805590e-01   1.12041490e-01   4.98974640e-01
C     6.126232565925000e+00   8.111107215905694e-01   6.663310752000000e+00  2.18803101e+00   1.33284519e+00   1.48592120e-01
C     6.045861857175000e+00   5.130650144065446e-01   1.013514785600000e+01 -2.42535060e-01   1.30120062e+00   1.58984710e-01
C     7.252493728125000e+00   1.226878728246171e+00   1.017096549600000e+01  1.83347133e+00   7.10059170e-01  -1.91255850e-01
C     8.664773375925000e+00   2.286813632173270e+00   6.753819976000000e+00 -2.71411000e-03  -1.52860152e+00  -1.67003850e-01
C     2.469882856875000e+00   3.036280618030460e+00   6.763430688000000e+00  1.16409342e+00  -1.11444941e+00   4.95144340e-01
C     2.366126680800000e+00   2.659704940328437e+00   1.027290892000000e+01 -7.37985950e-01   2.11082528e+00  -3.97346230e-01
C     3.604196952225000e+00   3.394444886938506e+00   1.024637545600000e+01 -1.21905718e+00  -3.58298130e-01  -4.68340000e-04
C     3.720952835775000e+00   2.331250728101296e+00   6.830875263999999e+00 -1.28040764e+00  -2.57205315e+00  -5.84331300e-01
C     4.952980578749999e+00   2.967524953943550e+00   6.780400224000000e+00  5.77029480e-01   1.76484923e+00  -1.50250220e-01
C     4.803406017975000e+00   2.661664579191017e+00   1.022010338400000e+01  1.77067211e+00   9.76238860e-01  -2.99229960e-01
C     6.069176776199999e+00   3.386553112105363e+00   1.018354182400000e+01 -9.86695410e-01   5.07448590e-01  -3.07984410e-01
C     6.169127965949999e+00   2.240857638408590e+00   6.730610488000000e+00  3.73095580e-01  -2.00513970e-01   9.32744900e-02
C     7.433331279975000e+00   2.943748826425407e+00   6.752854240000000e+00 -1.06513479e+00   3.59182030e-01  -1.08311360e-01
C     7.283854185299999e+00   2.657367130039222e+00   1.016084478400000e+01 -1.22528872e+00   1.45569700e-02   3.54955790e-01
C     8.470681876499999e+00   3.376337039967091e+00   1.020637445600000e+01  3.02270592e+00  -1.07801710e-01  -2.40419650e-01
C     9.897242415525000e+00   4.437362781135485e+00   6.741100984000000e+00 -9.55268150e-01  -8.60988700e-02  -4.96555480e-01
C     3.722696909550000e+00   5.130469031653165e+00   6.683464863999999e+00  1.00921591e+00  -4.05642620e-01   2.87830830e-01
C     3.588817127025000e+00   4.823961826856773e+00   1.019667330400000e+01 -2.48437860e-01  -5.94294480e-01   1.18136750e-01
C     4.794118119825000e+00   5.519777782917599e+00   1.018035792800000e+01  2.32149424e+00   1.21707371e+00  -2.59560590e-01
C     4.964304727125000e+00   4.421957466938411e+00   6.730060096000000e+00 -2.27846930e-01  -1.05893614e+00   4.80394300e-02
C     6.203473082099999e+00   5.101440067795671e+00   6.731028144000000e+00  2.70298310e-01  -1.19971118e+00   5.85128500e-02
C     6.081365658899999e+00   4.833634369630467e+00   1.014025411200000e+01 -9.25569520e-01  -1.13324972e+00   4.37917250e-01
C     7.326176361900000e+00   5.529072474477553e+00   1.012859034400000e+01 -1.45288246e+00   6.47972830e-01   1.66133400e-01
C     7.452901962599999e+00   4.356014937159085e+00   6.749990216000000e+00 -1.05594099e+00   1.34468768e+00  -2.24600920e-01
C     8.653380380100000e+00   5.118755131686596e+00   6.689322384000000e+00 -4.44027570e-01  -6.32012300e-01   3.46705800e-01
C     8.530293563099999e+00   4.799748288526792e+00   1.012381402400000e+01 -3.04327530e-01   7.94062200e-02   5.30673560e-01
C     9.754522132349999e+00   5.536978402720565e+00   1.016237682400000e+01 -9.17708900e-02  -1.95988741e+00  -1.53976420e-01
