72
Lattice="7.395 0 0 3.6975 6.40425786098592 0 0 0 13.6 " PBC="1 1 1" Properties=species:S:1:pos:R:3:force:R:3 Energy="-581.87528363"
C     3.681017876100000e+00   6.241759807444762e+00   1.977763680000000e-01 -1.04508051e+00  -3.01358840e-01  -8.87224400e-01
C     1.178132280450000e+00   5.395851102473832e-01   1.775568400000000e-01  2.11671543e+00  -2.20434190e-01  -2.02032990e-01
C     1.338011440950000e+00   9.151553835079655e-01   3.402028168000000e+00 -9.71606740e-01  -1.03940920e-01  -1.45248290e-01
C     2.590668534750000e+00   1.579545133909142e+00   3.489580616000000e+00 -1.42096091e+00   2.23058328e+00  -4.51961330e-01
C     6.125375744249999e+00   6.235085802243699e+00   8.294232000000000e-02  7.09166490e-01  -6.10756230e-01   2.18705420e-01
C     3.672258054900000e+00   5.271065418923304e-01   1.586302640000000e-01  1.06845008e+00   2.18973280e-01  -9.57013190e-01
C     3.800016441300000e+00   8.982165057237373e-01   3.425499592000000e+00  1.52056347e+00   1.58746275e+00  -1.39206210e-01
C     5.024249558474999e+00   1.658133255088510e+00   3.366271592000000e+00  1.01951830e+00  -5.77625380e-01  -6.74646570e-01
C     8.647793531550001e+00   6.212732380609155e+00   7.587222400000000e-02 -1.53619034e+00   1.66404789e+00   2.96205000e-03
C     6.162946041750000e+00   5.812207276171296e-01   7.637977600000000e-02 -5.88141840e-01  -1.78415955e+00   3.88254610e-01
C     6.287876136449999e+00   9.482826881403876e-01   3.268114952000000e+00 -1.72142467e+00  -8.41952190e-01   2.60759020e-01
C     7.495448392575000e+00   1.660638088422713e+00   3.352932576000000e+00  8.31126900e-01  -8.62742120e-01   2.48064920e-01
C     1.225374054750000e+00   1.950669955618785e+00   2.119547760000000e-01 -5.21209050e-01   4.97734160e-01  -3.65234680e-01
C     2.467074272850000e+00   2.648394636692204e+00   3.078107040000000e-01 -5.02782320e-01   5.79180060e-01  -9.95470770e-01
C     2.571369285600000e+00   3.051217460765073e+00   3.453365584000000e+00  4.18894420e-01  -1.47917812e+00  -7.33989000e-03
C     3.823898889600000e+00   3.751819831065306e+00   3.358053384000000e+00 -2.09579639e+00   4.56638120e-01  -5.24401030e-01
C     3.700858845975000e+00   1.973966148052899e+00   1.755184720000000e-01 -9.91844300e-01  -1.38073194e+00   7.99717590e-01
C     4.893874931999999e+00   2.696908427003591e+00   1.067175680000000e-01  1.54928468e+00  -1.17538117e+00  -7.04026940e-01
C     5.049085074375000e+00   3.091558329323264e+00   3.270779328000000e+00 -9.91807600e-02  -1.63940775e+00   1.25981135e+00
C     6.271483529025000e+00   3.790078163052581e+00   3.335910408000000e+00  4.55491960e-01   6.96431100e-01   2.15892620e-01
C     6.136587525600000e+00   1.978914141718114e+00   1.182615200000000e-02  7.90737280e-01   6.76191800e-01   4.66609130e-01
C     7.401547274174999e+00   2.682127720075604e+00   4.520762400000000e-02 -5.53501540e-01  -5.56199640e-01   6.17097860e-01
C     7.493136937425001e+00   3.064871914905801e+00   3.446639703999999e+00 -6.85017530e-01  -8.79481800e-02  -6.85020350e-01
C     8.713060544400001e+00   3.740511320621275e+00   3.444085352000000e+00  1.54920225e+00   1.26033819e+00   3.65482300e-02
C     2.449370827725000e+00   4.070731955251361e+00   2.688770320000000e-01  1.78077860e-01   9.25635120e-01  -9.93911280e-01
C     3.676530885900000e+00   4.811069351316228e+00   2.154939040000000e-01  7.27010440e-01  -5.65007590e-01  -4.41051670e-01
C     3.762509814750000e+00   5.158056397066374e+00   3.237273688000000e+00  7.46872240e-01   9.60393280e-01   5.69627090e-01
C     4.970116864350000e+00   5.896528040688886e+00   3.318994456000000e+00  2.44670660e+00   1.96776270e-01   1.63315320e-01
C     4.936365677625000e+00   4.081490339945218e+00   6.406103200000000e-02 -1.02086695e+00   1.93757319e+00   3.75796540e-01
C     6.180435808350000e+00   4.791938552236836e+00   1.355317057600000e+01 -1.44631624e+00   1.00242070e+00   1.07745255e+00
C     6.275234568825000e+00   5.229707169961475e+00   3.380731928000000e+00 -1.48156905e+00  -1.07339568e+00  -4.26140820e-01
C     7.514792640300000e+00   5.918877491683557e+00   3.377134048000000e+00 -4.80727530e-01  -1.48053247e+00   4.39469210e-01
C     7.401308082900000e+00   4.097692792118126e+00   3.978408000000000e-02 -3.56046000e-02   5.84281300e-02  -7.13927970e-01
C     8.619737825925000e+00   4.810292194624918e+00   5.673729600000000e-02  1.12462510e+00  -7.77640650e-01   1.23599654e+00
C     8.727820077000001e+00   5.175546297196876e+00   3.370763808000000e+00  1.95681150e-01   3.35302920e-01  -5.68697070e-01
C     9.952096196099999e+00   5.897222390326067e+00   3.209182616000000e+00 -3.00909870e-01   1.77635140e-01   1.10281609e+00
C     7.387952306175000e+00   1.521055431129234e-01   6.615139144000000e+00  1.49732050e+00  -9.74763450e-01   4.71846910e-01
C     1.253248361025000e+00   8.534578520085619e-01   6.708947864000000e+00 -1.38636840e-01  -9.45945030e-01   6.91405000e-02
C     1.114791184425000e+00   5.535906458039959e-01   1.016798220000000e+01  1.27729871e+00  -5.11574700e-01   6.03121650e-01
C     2.381788995000000e+00   1.265753021754421e+00   1.030453830400000e+01 -1.63077955e+00  -5.61827130e-01  -2.83665040e-01
C     2.489508447375000e+00   1.097819803638558e-01   6.733979752000000e+00 -5.94753850e-01   7.58827650e-01   6.85041400e-02
C     3.696144681374999e+00   8.648897084589763e-01   6.786306568000000e+00 -4.20645610e-01   1.53963080e-01  -4.97271760e-01
C     3.592657350525000e+00   5.459260299971479e-01   1.027267010400000e+01 -2.18331120e-01   9.95766000e-02  -9.66994390e-01
C     4.806447988200000e+00   1.237146354660216e+00   1.015635814400000e+01  1.27560435e+00   1.02055706e+00   9.20381700e-01
C     4.890120823275000e+00   1.445173941449238e-01   6.610583552000000e+00  1.68295083e+00  -3.96366960e-01   9.24770200e-01
C     6.151229662575000e+00   8.233574558110903e-01   6.635326848000000e+00 -4.06667430e-01   3.95185150e-01  -6.51686200e-02
C     6.039323383049999e+00   5.178686560995949e-01   1.011397782400000e+01  5.19961730e-01   6.01471100e-01   7.07311700e-02
C     7.285679012474999e+00   1.236814165805018e+00   1.014586928000000e+01 -1.17272767e+00   2.45602640e-01  -1.77353400e-01
C     8.665644432975000e+00   2.262235243273005e+00   6.781139383999999e+00 -5.26460300e-01   5.69261370e-01  -3.08625350e-01
C     2.476164761475000e+00   3.021776639084603e+00   6.784306960000000e+00  1.52203900e-01  -6.20430040e-01   5.71406070e-01
C     2.357040592200000e+00   2.678777588746459e+00   1.034478356000000e+01 -4.52499010e-01  -2.87853200e-02  -5.51640080e-01
C     3.578079956775000e+00   3.400402383770192e+00   1.029509446400000e+01  1.13364172e+00  -7.30957700e-01  -3.63366600e-02
C     3.693764563650000e+00   2.307493685271575e+00   6.854360152000001e+00  1.34828292e+00  -5.41710740e-01  -8.22551330e-01
C     4.977532052700000e+00   2.992882100599591e+00   6.778143576000000e+00 -1.89830470e+00  -4.91112970e-01  -1.38862620e-01
C     4.841960663925000e+00   2.674030304522577e+00   1.024860232000000e+01 -1.45634183e+00   8.78250200e-02  -4.88361310e-01
C     6.065962650374999e+00   3.388395553049107e+00   1.016863880800000e+01 -9.57600370e-01   2.92580280e-01  -2.34071080e-01
C     6.164647890075000e+00   2.231123614759440e+00   6.711962304000000e+00  9.82726380e-01   1.39137415e+00   3.55391130e-01
C     7.422907435874999e+00   2.958736326839694e+00   6.764177192000000e+00 -3.56576110e-01  -9.99576810e-01  -3.07748800e-01
C     7.249460114250000e+00   2.657268888723650e+00   1.013920052000000e+01  1.85693851e+00  -5.88362700e-02   6.36858130e-01
C     8.490923174700001e+00   3.357098649355651e+00   1.024106492800000e+01  7.41512130e-01   1.07704926e+00  -6.16410730e-01
C     9.878861144700000e+00   4.441547387263787e+00   6.738583080000000e+00  9.68439390e-01  -5.95957130e-01  -5.78336950e-01
C     3.751097961675000e+00   5.113637553273249e+00   6.662740232000000e+00 -1.93732934e+00   1.36929658e+00   1.62366010e-01
C     3.586092809025000e+00   4.810229176727575e+00   1.020629462400000e+01  4.20305900e-01  -2.05760500e-02   3.74014500e-02
C     4.810105850999999e+00   5.522754161758034e+00   1.017114012000000e+01  1.16850386e+00   9.40087300e-02  -1.84828080e-01
C     4.955335590450000e+00   4.421897715212578e+00   6.702906200000000e+00  1.03668235e+00  -1.26722593e+00   2.64302310e-01
C     6.198586835850000e+00   5.088685604012010e+00   6.705618992000000e+00  3.55252360e-01   6.57322200e-01  -7.04304000e-02
C     6.077380123650000e+00   4.815072780989671e+00   1.012799520800000e+01 -9.83414040e-01   4.58676470e-01   4.97651390e-01
C     7.296051313424999e+00   5.552863331788774e+00   1.012799752000000e+01  3.63746230e-01  -1.77880033e+00   3.37155820e-01
C     7.434131492924999e+00   4.357403956646341e+00   6.727889944000000e+00 -2.74072740e-01   1.50789288e+00  -1.16853820e-01
C     8.658819254699999e+00   5.121267009704446e+00   6.655712160000000e+00 -1.53360338e+00   4.05828700e-02   3.25157530e-01
C     8.540381822099999e+00   4.799361855607520e+00   1.012890491200000e+01 -1.43861490e+00  -2.04324710e-01   5.22626710e-01
C     9.760210699124999e+00   5.511222334842424e+00   1.014740472000000e+01 -4.30437730e-01  -7.75063500e-02   1.23090400e-02
