72
Lattice="7.395 0 0 3.6975 6.40425786098592 0 0 0 13.6 " PBC="1 1 1" Properties=species:S:1:pos:R:3:force:R:3 Energy="-583.13584453"
C     3.661118855475000e+00   6.230838178218054e+00   1.501335280000000e-01  1.24267453e+00   3.16404190e-01  -3.68151850e-01
C     1.217310250950000e+00   5.543082428972088e-01   1.283395280000000e-01 -7.23935540e-01  -9.00103060e-01   1.40118050e-01
C     1.312338848025000e+00   9.009289010551831e-01   3.380570768000000e+00  9.79174970e-01   5.22084740e-01   7.40779700e-02
C     2.559857304225000e+00   1.621452099684417e+00   3.387243880000000e+00  5.61541970e-01  -1.47450085e+00  -1.44899090e-01
C     6.132087520199999e+00   6.225938728827418e+00   1.192347360000000e-01  9.13806050e-01   6.02717660e-01  -2.33178230e-01
C     3.694683651225000e+00   5.439359709097314e-01   1.119679840000000e-01 -8.96192260e-01  -4.68771880e-01   1.72233170e-01
C     3.831367395900000e+00   9.257799192125484e-01   3.362908312000000e+00 -1.46410434e+00  -6.05507120e-01   2.05685790e-01
C     5.053586780624999e+00   1.648635100256344e+00   3.350431672000000e+00 -7.36336950e-01  -1.87573670e-01   6.99175100e-02
C     8.618564313375000e+00   6.248904717726272e+00   1.294230400000000e-01  5.29559870e-01  -1.18803249e+00  -2.70458540e-01
C     6.157829700074999e+00   5.606704247830686e-01   1.125281680000000e-01 -7.32980040e-01   2.31494570e-01   1.61481120e-01
C     6.250668563700000e+00   9.273590811156672e-01   3.344651264000000e+00  1.30835180e+00  -6.13671860e-01   2.93494730e-01
C     7.501837450725000e+00   1.632590000699057e+00   3.386539400000000e+00 -1.06003089e+00   5.39187640e-01  -2.51606520e-01
C     1.203552814800000e+00   1.971131687566642e+00   1.413016880000000e-01  7.36022020e-01  -4.50387820e-01  -3.99963870e-01
C     2.438202418050000e+00   2.666741426524375e+00   1.521777440000000e-01  7.69746980e-01  -2.75983510e-01   5.33266600e-02
C     2.571512748600000e+00   3.007624830278468e+00   3.365532976000000e+00 -5.06388560e-01   1.80669867e+00   1.50494330e-01
C     3.783182574225000e+00   3.745455215561460e+00   3.332465664000000e+00  9.50162350e-01   9.83660600e-02   2.40836550e-01
C     3.680940524400000e+00   1.958892382285238e+00   1.411274720000000e-01  6.76683780e-01   3.46679750e-01  -3.03684380e-01
C     4.937557049100000e+00   2.685937677119096e+00   9.493915200000000e-02 -1.52334955e+00   4.17274910e-01   9.36022800e-02
C     5.049110291324999e+00   3.064976432394076e+00   3.356514000000000e+00 -7.98313670e-01   3.30009220e-01  -9.89608400e-02
C     6.262119721200000e+00   3.806832662253021e+00   3.372612048000000e+00 -2.14344330e-01  -1.48002539e+00  -4.21065600e-02
C     6.169100345625000e+00   2.011556323817641e+00   8.181107200000000e-02 -1.10828370e+00  -2.20009737e+00  -8.07033500e-02
C     7.383340488375000e+00   2.675637901330595e+00   6.441368000000000e-02  5.72035220e-01   5.90994600e-01   3.38295080e-01
C     7.484720244224999e+00   3.085961904549724e+00   3.384103640000000e+00  9.18230000e-01  -1.08015348e+00   1.83449070e-01
C     8.745522191025000e+00   3.760510473023905e+00   3.397698608000000e+00 -7.52015160e-01  -7.41492210e-01  -2.97237600e-01
C     2.472203851575000e+00   4.076024818202337e+00   1.738575040000000e-01 -5.35486740e-01   3.39180990e-01  -4.21932640e-01
C     3.688197829500000e+00   4.800062737587718e+00   1.486771040000000e-01 -9.92542120e-01   1.11240090e+00   9.04434000e-03
C     3.784994275275000e+00   5.174541148925750e+00   3.329274288000000e+00 -1.35095140e-01   2.04055000e-02   2.46546970e-01
C     5.027219797200000e+00   5.885109505094820e+00   3.355084776000000e+00 -1.58397040e+00   6.20871860e-01   2.17339800e-02
C     4.894087649175000e+00   4.126200385343236e+00   9.871913600000000e-02  1.47701937e+00  -1.61476857e+00  -5.35282600e-02
C     6.130663760850000e+00   4.808223939549030e+00   7.386608800000000e-02  1.14330595e+00   9.36251900e-02   1.15301230e-01
C     6.231602257050000e+00   5.202607488784306e+00   3.368607256000000e+00  1.67933225e+00   1.73654100e-01   1.24930990e-01
C     7.484492700074999e+00   5.887697785908940e+00   3.388600344000000e+00  5.22198810e-01   8.14213160e-01  -2.68485740e-01
C     7.395767822849999e+00   4.075809314925348e+00   7.006937600000000e-02 -4.75572040e-01   1.55339265e+00   6.69753600e-02
C     8.644618414349999e+00   4.776401822668476e+00   1.257944240000000e-01 -1.09795318e+00   1.69501566e+00   4.52419000e-03
C     8.721033426675000e+00   5.165997740855352e+00   3.366758880000000e+00  1.36484070e-01   8.51579120e-01   2.40466640e-01
C     9.947326901775000e+00   5.895899462779927e+00   3.354219680000000e+00  1.32555360e-01   1.77684470e-01  -1.57871990e-01
C     7.416836510625000e+00   1.248241731402666e-01   6.685302631999999e+00 -8.44245910e-01   1.05159513e+00   2.42635400e-02
C     1.250473867950000e+00   8.218280549915437e-01   6.717783647999999e+00  1.77749400e-01   1.28165806e+00   1.28422990e-01
C     1.125044056125000e+00   5.466002702646486e-01   1.018002989600000e+01 -4.25987450e-01   1.08577410e-01   4.77807400e-02
C     2.346377593800000e+00   1.257631398106684e+00   1.018693883200000e+01  9.64424470e-01   2.43887590e-01  -1.00862730e-01
C     2.475744059925000e+00   1.280806101769194e-01   6.767555976000000e+00  5.64349410e-01  -4.85283060e-01  -1.66176920e-01
C     3.693920893950000e+00   8.652500760487584e-01   6.787932447999999e+00  6.16765490e-01  -5.69563820e-01  -1.60861660e-01
C     3.609884372775000e+00   5.575858780273782e-01   1.013922608800000e+01 -7.73774610e-01  -6.33606470e-01   3.15118650e-01
C     4.836380914575000e+00   1.264712265809593e+00   1.016656140800000e+01 -7.34862890e-01  -3.62326620e-01  -1.23756590e-01
C     4.929580099575000e+00   1.216119254828478e-01   6.734017696000000e+00 -5.47166350e-01   6.29470710e-01  -3.28241300e-02
C     6.151149870525000e+00   8.307044204280822e-01   6.687340320000000e+00  1.14871412e+00   1.37997500e-02   3.93295370e-01
C     6.048019976999999e+00   5.388136533455676e-01   1.015456906400000e+01 -9.42735800e-02  -4.59878620e-01   2.36015860e-01
C     7.261281280575000e+00   1.235680355993483e+00   1.018496968800000e+01  1.41594705e+00   5.94925060e-01  -4.88707600e-02
C     8.661892764599999e+00   2.275038827714453e+00   6.729009768000000e+00 -2.58395200e-02  -9.68536640e-01   1.19691190e-01
C     2.489711809875000e+00   3.020549070937999e+00   6.760236183999999e+00  5.53350500e-02  -1.09371696e+00   6.12644000e-03
C     2.355509050725000e+00   2.689171507125503e+00   1.020901068000000e+01  2.35003180e-01  -5.38193510e-01  -1.68463270e-01
C     3.602402444550000e+00   3.379978372901130e+00   1.020992405600000e+01 -1.12979079e+00   9.81368460e-01  -1.07299960e-01
C     3.720812367750000e+00   2.293423274582841e+00   6.798050440000000e+00 -8.81596240e-01  -5.68267950e-01  -2.27251720e-01
C     4.938235688250000e+00   2.983418272589555e+00   6.778545184000000e+00  1.34883663e+00  -1.71223320e-01  -7.02515700e-02
C     4.806899489925000e+00   2.673926043204617e+00   1.019097939200000e+01  1.41966620e+00   4.61538150e-01   6.88564800e-02
C     6.046750736175000e+00   3.397011457318480e+00   1.018733024000000e+01  4.77105280e-01  -3.65157870e-01  -1.10556570e-01
C     6.184343215424999e+00   2.249186824053570e+00   6.747562752000000e+00 -8.80679780e-01   7.21899000e-02  -1.25665990e-01
C     7.418021966100000e+00   2.935670303433068e+00   6.741183264000000e+00  2.76777620e-01   1.55809214e+00   3.90263300e-02
C     7.291569795525000e+00   2.657766435516793e+00   1.018634900000000e+01 -7.81029670e-01   8.72972600e-01  -8.06665300e-02
C     8.521040199599998e+00   3.391630407736772e+00   1.017359872800000e+01 -3.52467010e-01  -7.15788470e-01   9.26221100e-02
C     9.895380761249999e+00   4.430074287392754e+00   6.730526168000000e+00 -8.75448860e-01  -2.26611440e-01  -8.28237400e-02
C     3.714485279700000e+00   5.139788891946509e+00   6.705627424000000e+00  1.33558830e+00  -1.42110498e+00   2.54395240e-01
C     3.587409414825000e+00   4.821599424217376e+00   1.019217755200000e+01  6.50159570e-01  -4.23383250e-01   3.04432300e-02
C     4.834931087849999e+00   5.542706370950549e+00   1.018102854400000e+01 -5.65201530e-01  -7.29004310e-01  -5.56193000e-02
C     4.971237428700000e+00   4.394782087433338e+00   6.752111544000000e+00 -7.95411410e-01   7.24863990e-01  -1.07586230e-01
C     6.213692602349999e+00   5.088820221512227e+00   6.751058224000000e+00 -7.42319940e-01   8.33319380e-01   1.47369370e-01
C     6.061495404824999e+00   4.825389335933767e+00   1.016037463200000e+01  3.39407910e-01  -3.24732510e-01   1.14111290e-01
C     7.319082930000000e+00   5.518759698045595e+00   1.013362506400000e+01 -1.67333903e+00   9.30694550e-01  -4.54319000e-03
C     7.442963822099999e+00   4.389060907716686e+00   6.761047695999999e+00 -1.16675124e+00  -1.19808264e+00  -1.85642060e-01
C     8.634467778525000e+00   5.104787893591987e+00   6.722859575999999e+00  1.13403497e+00   5.45390640e-01   1.84935600e-01
C     8.510993463525001e+00   4.801026002012440e+00   1.013320006400000e+01  1.06216572e+00   1.59217280e-01   3.20278420e-01
C     9.747156379574999e+00   5.514959859729521e+00   1.017015684000000e+01  2.68194700e-02   1.73992130e-01  -2.06407700e-01
