72
Lattice="7.395 0 0 3.6975 6.40425786098592 0 0 0 13.6 " PBC="1 1 1" Properties=species:S:1:pos:R:3:force:R:3 Energy="-579.28251778"
C     1.103560926667500e+01   6.317346893390933e+00   1.019048000000000e-03  1.17780743e+00  -3.05282135e+00  -8.36247100e-02
C     1.213864624650000e+00   5.214260932556677e-01   1.352559127200000e+01 -3.24205820e-01   1.30604011e+00   5.03364360e-01
C     1.264688426025000e+00   8.940609749261191e-01   3.325894552000000e+00  2.28834550e+00  -1.30773443e+00   6.20494820e-01
C     2.571312787800000e+00   1.503217907882091e+00   3.225807256000000e+00 -1.40972392e+00   3.03480869e+00   9.52093010e-01
C     6.162938461874999e+00   6.243776956542926e+00   4.310411200000000e-02 -7.57581720e-01   1.37197686e+00  -1.21291250e-01
C     3.693291135750000e+00   5.518340219155765e-01   4.941764000000000e-02 -1.68123769e+00   7.14460390e-01  -3.53768610e-01
C     3.811298697000000e+00   8.734286975914500e-01   3.375699112000000e+00 -2.15593060e-01   1.51347812e+00  -2.94915800e-02
C     5.019452200124999e+00   1.609386221705863e+00   3.484730311999999e+00  6.36943160e-01   5.01065300e-02  -1.07820030e-01
C     8.567587657350000e+00   6.246713628984629e+00   4.946184000000000e-02  2.32029249e+00   1.78233688e+00   1.35675190e-01
C     6.105064600274999e+00   5.371496350258038e-01   4.494256000000000e-02  2.91671380e-01   3.18985800e+00   2.54423320e-01
C     6.268441078125000e+00   8.804111958936295e-01   3.564659960000000e+00 -1.17074903e+00   1.27769590e-01  -6.10235680e-01
C     7.478726189999999e+00   1.620692746829957e+00   3.424511688000000e+00 -7.89745970e-01  -1.39485913e+00   1.05788780e-01
C     1.224222690225000e+00   1.916481785671853e+00   1.348030028000000e+01 -5.00726520e-01   3.73290464e+00   6.62961030e-01
C     2.493441663000000e+00   2.657047813742322e+00   1.335351536800000e+01 -2.86940502e+00   1.56584499e+00   1.36097231e+00
C     2.568349759200000e+00   2.956278949056233e+00   3.312605448000000e+00 -9.05608360e-01   1.23519606e+00   2.09932330e-01
C     3.742833161775000e+00   3.755260774770905e+00   3.453289016000000e+00  1.09060402e+00  -2.87635447e+00   4.61883000e-03
C     3.688531565850000e+00   1.970112898226273e+00   1.354194894400000e+01 -2.83451240e-01  -1.19670120e-01  -4.38635810e-01
C     4.866576659250000e+00   2.698756951992301e+00   4.704838400000000e-02  2.06589738e+00   7.99511700e-01   5.07881880e-01
C     4.993524072974999e+00   3.042458805588002e+00   3.469570392000000e+00  1.14904229e+00  -4.26506350e-01  -3.44970800e-01
C     6.274635869625000e+00   3.701483709179857e+00   3.413498136000000e+00 -1.59153662e+00   2.70367619e+00   5.84269620e-01
C     6.109634562375000e+00   1.998645083801566e+00   1.589380320000000e-01  1.35871439e+00   2.10560310e-01  -6.41981610e-01
C     7.380386999324999e+00   2.753590399917357e+00   1.580454640000000e-01  4.86286700e-01  -1.60190309e+00  -1.15735114e+00
C     7.491710848649999e+00   3.001111443864534e+00   3.368781608000000e+00 -1.79803000e-02   1.62430245e+00   8.31708900e-02
C     8.728817366700000e+00   3.725094606845212e+00   3.359686064000000e+00 -1.94592560e-01  -9.38526690e-01  -3.30292250e-01
C     2.432088786675000e+00   4.131057502589418e+00   1.343617276800000e+01  1.33541483e+00  -3.98574950e-01   7.89198980e-01
C     3.681336711525000e+00   4.870499391277720e+00   1.356454670400000e+01 -6.32582320e-01  -1.16936802e+00  -2.14710200e-01
C     3.722254873424999e+00   5.127083676905791e+00   3.595350671999999e+00  2.04883655e+00   1.23679131e+00  -5.99240240e-01
C     4.949923633650000e+00   5.895908364698352e+00   3.523289440000000e+00  1.62854929e+00  -1.62505674e+00  -6.17325960e-01
C     4.912304861925000e+00   4.121445480052500e+00   6.740187200000000e-02  1.56243070e-01   1.28541945e+00   6.69376200e-02
C     6.186934423424999e+00   4.880547415689747e+00   1.969587360000000e-01 -2.07854420e+00  -1.85897526e+00  -6.42555120e-01
C     6.250107061350000e+00   5.199420601988013e+00   3.445369872000000e+00 -7.88983980e-01  -1.12933971e+00  -3.17280500e-02
C     7.498867951499999e+00   5.923117366557191e+00   3.411329072000000e+00 -7.84200300e-01  -4.02531532e+00  -1.19746020e-01
C     7.427867595150000e+00   4.252176044046731e+00   1.962444640000000e-01 -2.15507922e+00  -5.59286387e+00  -2.62311670e-01
C     8.607138372825000e+00   4.888525712046577e+00   4.032481600000000e-02  2.12348209e+00  -2.10243057e+00  -6.78742260e-01
C     8.704191129300000e+00   5.151095224942868e+00   3.400390591999999e+00  2.98607530e-01  -2.98747210e-01   7.34374140e-01
C     9.936816610125000e+00   5.822890026579826e+00   3.559771712000000e+00 -1.23720750e+00   2.43356614e+00  -3.91753050e-01
C     7.440189772725000e+00   1.260377800047366e-01   7.037263696000000e+00 -1.11704188e+00  -3.34265950e-01  -1.10136744e+00
C     1.273014530475000e+00   8.092725714995922e-01   6.846932647999999e+00 -5.74864860e-01   7.00046590e-01  -5.07160000e-03
C     1.138800789750000e+00   5.744347759886737e-01   1.008095403200000e+01  5.10523670e-01  -1.80584900e-01   2.65684440e-01
C     2.392822408950000e+00   1.287513152940815e+00   9.990719256000000e+00 -1.67131895e+00  -5.14649800e-02   8.77971500e-02
C     2.481204786750000e+00   1.117094698519800e-01   6.832821832000000e+00  5.90799170e-01  -6.51145790e-01  -1.45022850e-01
C     3.689149085325000e+00   8.533666553766355e-01   6.796647191999999e+00  1.18187820e-01  -1.61992310e-01  -8.94979600e-02
C     3.592127313900000e+00   5.954108979278461e-01   1.007604810400000e+01  7.00143890e-01  -1.27633255e+00   4.29861620e-01
C     4.799324458649999e+00   1.290093044177137e+00   1.010979324000000e+01  2.56167129e+00   2.96527060e-01  -1.26629420e-01
C     4.898988870300000e+00   1.666962997527828e-01   6.910994904000001e+00  6.66041300e-01  -2.53781260e+00  -6.72070900e-02
C     6.129537169574999e+00   8.358383296989728e-01   6.955666824000000e+00  2.19735861e+00  -1.74417029e+00   1.64750900e-01
C     6.093046911825000e+00   5.132472795852402e-01   1.021618862400000e+01 -1.30670396e+00   1.92858651e+00  -3.09591800e-01
C     7.302941604675000e+00   1.286716014964981e+00   1.015553221600000e+01 -5.03738930e-01  -9.27463750e-01   1.21336340e-01
C     8.682439439325000e+00   2.240739864106544e+00   6.718068976000000e+00 -2.29672490e-01  -9.35724070e-01   8.06078870e-01
C     2.475286272450000e+00   2.998750578247024e+00   6.698603840000000e+00  1.38325528e+00  -5.12564330e-01   2.71601920e-01
C     2.373815964825000e+00   2.683165081763767e+00   9.908568319999999e+00 -5.40950970e-01   1.59415245e+00   7.20380370e-01
C     3.607867756275000e+00   3.444960264001456e+00   9.934315568000001e+00 -3.74961150e-01  -7.94660710e-01   5.99085540e-01
C     3.715048150125000e+00   2.256651755100343e+00   6.699561824000000e+00  1.12038950e-01   1.42389698e+00   3.78340680e-01
C     4.964261022675000e+00   2.963348161009837e+00   6.756593968000000e+00  3.83971320e-01  -4.05547410e-01   4.83875940e-01
C     4.825189802250000e+00   2.758800968154832e+00   1.000496552800000e+01  1.04859587e+00  -2.10970904e+00   8.61686470e-01
C     6.101611061324999e+00   3.453599479769439e+00   1.017113971200000e+01 -2.56810553e+00  -2.33778358e+00  -3.32337610e-01
C     6.188661081975000e+00   2.206589159068094e+00   6.883872424000001e+00 -4.22744680e-01   1.59259092e+00  -5.56968050e-01
C     7.457076624975000e+00   2.860360649937391e+00   6.849935799999999e+00 -1.42370874e+00   3.30598899e+00  -1.79355290e-01
C     7.276530251250000e+00   2.723743932544035e+00   1.017860679200000e+01  5.44834390e-01  -2.20539066e+00  -5.79767570e-01
C     8.481941725350000e+00   3.369473340648215e+00   1.004050219200000e+01  2.36951941e+00   2.04777941e+00   4.23193310e-01
C     9.908580429524999e+00   4.400573265688400e+00   6.869877208000000e+00 -3.84801430e-01   8.51328610e-01   7.26969400e-02
C     3.800022283350000e+00   5.103270532777217e+00   6.978644567999999e+00 -2.13284201e+00   3.37048500e-02  -7.65833420e-01
C     3.646063522875000e+00   4.856855247992148e+00   1.010900512000000e+01 -6.55183900e-01  -1.60553784e+00  -3.07836480e-01
C     4.853965632975000e+00   5.536639809607507e+00   1.012566634400000e+01  6.26847690e-01   1.20900232e+00   1.49593810e-01
C     5.025174488099999e+00   4.398462230170009e+00   6.825825856000000e+00 -2.52893027e+00  -1.26786102e+00   2.37451530e-01
C     6.206187971475000e+00   5.086981879293515e+00   6.843255752000000e+00  1.79078663e+00   2.46564450e-01   2.99770250e-01
C     6.087303326250000e+00   4.805544141890092e+00   1.018461785600000e+01 -2.73678570e-01   3.40967183e+00  -3.21240360e-01
C     7.290567107474999e+00   5.563490044941029e+00   1.019329370400000e+01  5.82397740e-01  -3.29523990e-01  -3.30789340e-01
C     7.435264443900000e+00   4.331443464857308e+00   6.877395288000001e+00 -1.33268350e-01   1.21114730e-01  -3.66156500e-01
C     8.619010010025001e+00   5.100309396070489e+00   6.913697768000000e+00  1.63924596e+00   2.06770580e-01  -1.55502120e-01
C     8.490359823599999e+00   4.819002561697724e+00   1.014863688000000e+01  2.36254752e+00  -2.07222840e-01   4.39606400e-02
C     9.824351638350000e+00   5.496398078960990e+00   1.020656907200000e+01 -3.42776286e+00   1.60173004e+00  -4.77616330e-01
