72
Lattice="7.395 0 0 3.6975 6.40425786098592 0 0 0 13.6 " PBC="1 1 1" Properties=species:S:1:pos:R:3:force:R:3 Energy="-582.01861893"
C     3.697477962900000e+00   6.340737356500748e+00   1.336772573600000e+01  3.66262920e-01   7.89755590e-01   7.39058000e-01
C     1.278556602300000e+00   6.624746211307224e-01   1.341303726400000e+01 -1.94775924e+00  -6.02383400e-02  -2.54885000e-02
C     1.279804323675000e+00   8.097649308438690e-01   3.581876744000000e+00 -2.62214670e-01  -6.21381550e-01  -3.07082870e-01
C     2.490555431475000e+00   1.544520311715381e+00   3.563562304000000e+00  2.02612480e-01  -8.99610540e-01  -8.22788900e-02
C     6.207525616050000e+00   6.349481217842163e+00   1.341674231200000e+01 -2.42434276e+00   7.96931440e-01  -8.62571500e-02
C     3.698175792075000e+00   6.620837692735266e-01   1.338392456000000e+01 -9.42945700e-02   4.40053250e-01   7.40661730e-01
C     3.714833584200000e+00   7.992074477190805e-01   3.520290776000000e+00  4.01357570e-01   1.46627690e-01   2.29917500e-02
C     4.975211390775000e+00   1.475236872738229e+00   3.477112000000000e+00 -1.18725916e+00   4.25999960e-01   8.86651330e-01
C     8.591045706599999e+00   6.362370939551828e+00   1.342978308000000e+01  7.95564990e-01  -1.23021455e+00   4.70267500e-02
C     6.121051185225000e+00   6.090700912193898e-01   1.340890993600000e+01  2.25500754e+00   1.74176893e+00  -2.47358480e-01
C     6.194759109900001e+00   7.487999183584920e-01   3.530298336000000e+00 -2.84071080e-01   2.43053041e+00   1.66730200e-02
C     7.407999707475000e+00   1.458783821955260e+00   3.569156256000000e+00  1.84453175e+00   2.27637021e+00  -2.12838230e-01
C     1.230807678900000e+00   2.086949745006126e+00   1.342785623200000e+01 -6.31977490e-01   4.52866990e-01  -4.10959600e-01
C     2.443767747150000e+00   2.824475095487245e+00   1.343876343200000e+01  9.01337050e-01  -1.10673168e+00   2.97026050e-01
C     2.475996303375000e+00   2.949728097733818e+00   3.552668839999999e+00  1.81394825e+00  -2.38260000e-04  -3.10862260e-01
C     3.724172729700000e+00   3.639942697742551e+00   3.491432664000000e+00  3.90227600e-01   8.66036750e-01   8.02952440e-01
C     3.687463358100000e+00   2.060028550495516e+00   1.345103267200000e+01 -3.94410400e-02   1.98890295e+00  -8.29802190e-01
C     4.936644986775000e+00   2.774948087539828e+00   1.335025340800000e+01 -8.79668190e-01   2.80154430e-01   6.84982780e-01
C     4.948846330049999e+00   2.905484602520901e+00   3.578921056000000e+00  3.04687700e-02  -5.35603570e-01  -1.22539430e+00
C     6.174842082450000e+00   3.588531493090144e+00   3.552126880000000e+00  1.91413119e+00   1.67015249e+00  -6.32936700e-02
C     6.159707253599999e+00   2.044044675643371e+00   1.335091423200000e+01 -7.10590580e-01   5.03579800e-01   3.06503400e-02
C     7.355966675700000e+00   2.797727968705270e+00   1.332082586400000e+01  1.50762567e+00  -6.49091560e-01   4.67368150e-01
C     7.469827010025000e+00   2.935497836768898e+00   3.546249368000000e+00 -2.71337227e+00  -1.89646343e+00   2.18608420e-01
C     8.675952064650000e+00   3.657958259358203e+00   3.556512880000000e+00 -9.74807620e-01  -1.74335320e-01  -2.39398470e-01
C     2.458985843700000e+00   4.239648162906157e+00   1.344431209600000e+01 -1.30228421e+00  -1.84969300e-02   1.24750260e-01
C     3.683556727500000e+00   4.936313195474061e+00   1.340450380800000e+01  2.77982400e-01  -4.17544110e-01  -2.13743600e-02
C     3.769845654750000e+00   5.096538376914785e+00   3.518955800000000e+00 -6.06234950e-01  -1.25878934e+00   6.95905400e-02
C     5.020442390625000e+00   5.788631858094486e+00   3.520692656000000e+00 -1.56114090e+00  -3.05661720e-01   2.01119410e-01
C     4.903597841025000e+00   4.217341556396569e+00   1.336754635200000e+01  8.59164250e-01  -1.33181630e-01   1.77721470e-01
C     6.129426688274999e+00   4.965334410179543e+00   1.338188088800000e+01  8.55914110e-01  -2.33817980e+00  -4.92977950e-01
C     6.207052003275001e+00   5.034571098074318e+00   3.525314208000000e+00 -6.74562700e-02  -1.34048750e-01   2.27918750e-01
C     7.409350995825000e+00   5.780258675198008e+00   3.558198056000000e+00  1.21235083e+00  -8.59576180e-01  -5.52349780e-01
C     7.371488373975000e+00   4.228353165446210e+00   1.330644930400000e+01 -6.34852060e-01  -1.96581040e-01   1.21765143e+00
C     8.587632877124999e+00   4.947137608066455e+00   1.346440269600000e+01  8.19938770e-01  -9.21089980e-01  -9.39365350e-01
C     8.667139812900000e+00   5.058177128503699e+00   3.535938664000000e+00 -1.66325460e-01   1.51635645e+00   4.13902190e-01
C     9.905841728250000e+00   5.791041588199469e+00   3.572578016000000e+00  3.79409300e-02  -2.69275483e+00  -7.03285810e-01
C     3.233792827500000e-02   4.681301155150620e-02   6.739582000000000e+00  1.62698770e-01   1.42075200e-02   4.26009480e-01
C     1.258336084050000e+00   7.620005027446813e-01   6.832155432000000e+00 -7.86962320e-01   5.05484820e-01  -1.47974380e-01
C     1.182257581200000e+00   6.129466525446264e-01   1.025987318400000e+01  1.55213630e-01   1.31310629e+00  -6.91468280e-01
C     2.385682055775000e+00   1.328451026416714e+00   1.019110845600000e+01  2.05176683e+00   6.66655730e-01   5.12978500e-02
C     2.473942379099999e+00   8.899523232960362e-02   6.890678544000000e+00  1.11377795e+00  -2.18743172e+00  -1.07392330e-01
C     3.746847426600000e+00   7.381627022233465e-01   6.907040024000000e+00 -2.36738880e-01  -5.56515490e-01   1.14838590e-01
C     3.661377199800000e+00   6.176852910203977e-01   1.009631455200000e+01 -1.53646472e+00   8.05265290e-01   1.21002597e+00
C     4.877231597100000e+00   1.353724981763154e+00   1.022472221600000e+01  7.42532730e-01  -4.58458190e-01  -8.94977390e-01
C     4.998881158875000e+00   4.110246290290141e-02   6.898887911999999e+00 -2.79687940e-01   1.66942700e-01  -8.54017530e-01
C     6.235624286624999e+00   8.012867181184866e-01   6.778406600000000e+00 -1.80913797e+00  -1.61334326e+00   6.42959050e-01
C     6.135345868125000e+00   6.632727837878142e-01   1.018362260800000e+01 -8.02966530e-01  -9.37450970e-01   3.10671840e-01
C     7.368566461575000e+00   1.364872809377478e+00   1.023866820000000e+01 -6.37713390e-01  -1.62822470e-01   8.61184100e-02
C     8.624147538374999e+00   2.178297581460601e+00   6.848688272000000e+00  8.25877480e-01   6.49609420e-01   2.96314680e-01
C     2.499854643975000e+00   2.855676447653430e+00   6.937282208000000e+00 -1.17947845e+00   1.11652710e-01  -1.18254052e+00
C     2.420252423625000e+00   2.779740393696466e+00   1.024483253600000e+01  3.21066620e-01  -1.42067689e+00  -2.41037090e-01
C     3.643644581400000e+00   3.471631372242634e+00   1.027353152800000e+01  7.66976960e-01   7.49191700e-01  -3.88473360e-01
C     3.715903197000000e+00   2.124986553714024e+00   6.910491159999999e+00  9.40775190e-01   2.40949028e+00   2.25688160e-01
C     4.941924573075000e+00   2.903837235271573e+00   6.902396031999999e+00 -2.65862790e-01  -1.48472978e+00  -2.00148500e-01
C     4.886768336999999e+00   2.774061546124269e+00   1.025330343200000e+01 -8.79483760e-01  -5.18103100e-01  -2.26774600e-02
C     6.095896279274999e+00   3.480271292478981e+00   1.021741724800000e+01  1.42398820e+00  -5.26475220e-01   3.01738340e-01
C     6.187384150350000e+00   2.209579755360978e+00   6.839491136000000e+00  1.03305220e-01   2.35233630e-01  -1.71862730e-01
C     7.409594772000000e+00   2.925067798375523e+00   6.808048208000001e+00 -6.77210500e-02   1.95744490e-01   3.37356740e-01
C     7.368156186975000e+00   2.787737518571405e+00   1.024989540800000e+01 -8.52004800e-02  -4.72725400e-02  -5.52624900e-01
C     8.627103208950000e+00   3.499178134661009e+00   1.020824200800000e+01 -2.51213974e+00  -2.74350000e-04   3.20302970e-01
C     9.860201082374999e+00   4.273132376829116e+00   6.791139328000000e+00  9.98720530e-01   8.13927570e-01   8.21624290e-01
C     3.701450852700000e+00   5.026784096899765e+00   6.775172928000000e+00 -3.48936120e-01  -6.43910750e-01   2.95143570e-01
C     3.651377606850000e+00   4.903235203627161e+00   1.024522625600000e+01 -2.01728020e-01  -3.53698700e-02  -3.06746650e-01
C     4.897521813225000e+00   5.625516435081543e+00   1.022044379200000e+01 -1.49030333e+00  -1.47793152e+00   2.65584600e-01
C     4.927697665349999e+00   4.301086001749337e+00   6.879338999999999e+00  2.75018900e-01   1.39752242e+00  -3.23958780e-01
C     6.163770029624999e+00   5.045763563365925e+00   6.878834032000000e+00 -6.64851510e-01   6.63290980e-01  -7.11550000e-04
C     6.088602036149999e+00   4.881227227661585e+00   1.021183458400000e+01  8.70226210e-01   1.23811512e+00  -4.09068660e-01
C     7.318546607625001e+00   5.605800671089219e+00   1.013996089600000e+01  7.39531580e-01  -1.83638330e-01   4.83962200e-02
C     7.386820205625000e+00   4.368251744779924e+00   6.848808903999999e+00  7.24513160e-01  -1.70852000e+00   8.14095100e-02
C     8.643666603899998e+00   5.010841721638553e+00   6.845959703999999e+00  5.19068960e-01   1.07214559e+00  -8.70100300e-02
C     8.562731065049999e+00   4.915107416848029e+00   1.017336263200000e+01  8.73405080e-01  -4.02692600e-02  -8.40599600e-02
C     9.807702572324999e+00   5.611703219388467e+00   1.017448925600000e+01  2.48096120e-01   1.13835167e+00   1.95010290e-01
