72
Lattice="7.395 0 0 3.6975 6.40425786098592 0 0 0 13.6 " PBC="1 1 1" Properties=species:S:1:pos:R:3:force:R:3 Energy="-582.42337123"
C     3.681218761274999e+00   6.313699668539663e+00   1.353577658400000e+01  1.11996850e-01  -1.30983881e+00  -2.72657760e-01
C     1.216298023350000e+00   5.996151651277789e-01   1.354539613600000e+01  2.76160080e-01  -7.06034900e-01  -2.33498800e-02
C     1.288683019500000e+00   8.735485852985891e-01   3.485015368000000e+00  6.99107340e-01  -1.10745771e+00  -1.55522640e-01
C     2.543972178675000e+00   1.544019242580415e+00   3.524570288000000e+00 -1.15054295e+00   1.82680210e+00  -4.88761820e-01
C     6.152017710750000e+00   6.276692088112447e+00   1.352920683200000e+01 -2.18468310e-01   1.32926234e+00  -9.91340500e-02
C     3.684785332800000e+00   6.048196493202864e-01   1.350993291200000e+01 -2.13493760e-01  -2.78257020e-01   3.08131500e-02
C     3.751977227175000e+00   8.346712177465663e-01   3.491069408000000e+00  9.63863440e-01   2.22193017e+00   1.83644920e-01
C     4.986403094700000e+00   1.560827153291406e+00   3.499342016000000e+00  5.93358440e-01  -5.15666700e-02  -5.05587550e-01
C     8.601393641025000e+00   6.272690899929255e+00   1.352125749600000e+01 -1.99344110e-01   8.00658190e-01  -3.25345530e-01
C     6.139305225075000e+00   5.576409546449742e-01   1.353040784800000e+01 -2.12913400e-02   2.06648894e+00   1.94338410e-01
C     6.252305557874999e+00   8.371331425531074e-01   3.447841672000000e+00 -1.74154391e+00   7.78431160e-01   2.39293210e-01
C     7.453478587724999e+00   1.564386191511944e+00   3.453518584000000e+00  9.20506390e-01   4.14397880e-01   8.22694500e-02
C     1.225779855375000e+00   1.984441976889973e+00   1.355816966400000e+01 -9.75009070e-01   2.74467492e+00  -1.18012970e-01
C     2.453375922750000e+00   2.731517676904817e+00   1.355787209600000e+01 -3.56950280e-01  -3.14797700e-02  -4.08008460e-01
C     2.535381444150000e+00   2.997974254109235e+00   3.485657560000000e+00  1.01387270e-01  -3.97059140e-01   2.86794650e-01
C     3.768570534900000e+00   3.726396848638464e+00   3.517971840000000e+00 -6.61352670e-01  -1.24244180e+00  -6.87080090e-01
C     3.686956356900000e+00   2.035154925307904e+00   1.349892915200000e+01 -8.35780990e-01  -9.56238800e-01   8.05906480e-01
C     4.894060953224999e+00   2.725646061171033e+00   1.358703158400000e+01  1.04031806e+00   4.24877900e-02  -5.14375590e-01
C     4.984177273649999e+00   3.004847047474272e+00   3.471942912000000e+00  1.42230270e-01  -1.92427780e+00   6.26430370e-01
C     6.224496364575000e+00   3.636991679763242e+00   3.498003232000000e+00  1.05584792e+00   3.60437551e+00  -4.01609880e-01
C     6.131373865725000e+00   2.006243991922771e+00   1.356999785600000e+01  4.12736160e-01   2.30991760e-01  -1.28303050e-01
C     7.357807734900000e+00   2.757021865321324e+00   1.354419076800000e+01  9.06587010e-01  -1.64573998e+00   4.21292250e-01
C     7.484402924774999e+00   2.988720037458956e+00   3.467412615999999e+00 -1.72820630e+00  -9.37946260e-01   7.56848000e-03
C     8.681187576750000e+00   3.713400688163166e+00   3.458041808000000e+00  1.17263461e+00  -4.70957570e-01   4.21135580e-01
C     2.439635421150000e+00   4.154275434992483e+00   1.353195185600000e+01 -2.43583080e-01   6.13473380e-01  -3.47378980e-01
C     3.678099883050000e+00   4.887790183031356e+00   1.350194332000000e+01 -1.32361290e-01  -1.19942837e+00   5.89720310e-01
C     3.767545624875000e+00   5.118032283101939e+00   3.449303672000000e+00  4.71271690e-01   8.14624130e-01   2.84503960e-01
C     4.996400210325000e+00   5.845911284224012e+00   3.457028336000000e+00  5.86969490e-01  -3.31265360e-01   1.28890140e-01
C     4.900254043875000e+00   4.131739171796036e+00   1.357030848000000e+01  4.34735800e-01   1.81031763e+00  -3.44601670e-01
C     6.147484834575000e+00   4.883888773185622e+00   1.353197429600000e+01 -6.94572300e-01  -1.36694795e+00   4.69568170e-01
C     6.248856049199999e+00   5.131116117867339e+00   3.481659976000000e+00 -1.21051940e+00  -9.72410750e-01  -4.53487100e-02
C     7.456495119150000e+00   5.876562254469707e+00   3.475424104000000e+00  4.97526140e-01  -3.50764296e+00   2.93720860e-01
C     7.384360517700000e+00   4.189843530380508e+00   1.356051348800000e+01 -1.72457913e+00  -1.71228371e+00  -5.83832810e-01
C     8.570112014550000e+00   4.875051601807187e+00   1.347994477600000e+01  2.59916393e+00  -3.93241160e-01   7.97541150e-01
C     8.687275547474998e+00   5.117764200867919e+00   3.508717312000000e+00  4.10507560e-01   1.32817651e+00  -6.87168590e-01
C     9.946309941374999e+00   5.821246309757479e+00   3.455515744000000e+00 -1.15736918e+00   6.12255000e-03   2.02580890e-01
C     7.431361104074999e+00   9.457660709717221e-02   6.957866079999999e+00  2.22042290e-01   2.64645560e-01  -1.65339620e-01
C     1.279454762025000e+00   8.056303419694530e-01   6.930433656000000e+00 -1.11881936e+00   7.55095360e-01  -3.63892400e-02
C     1.140523528950000e+00   5.778729658633932e-01   1.005916465600000e+01  9.40243100e-01   4.93359100e-01   4.28117910e-01
C     2.392307014425000e+00   1.293105030691274e+00   1.010880329600000e+01 -5.21708050e-01  -6.94400700e-02   2.91379700e-02
C     2.487034745925000e+00   1.160055100670466e-01   6.856871392000000e+00  1.14631530e+00  -1.28569351e+00   1.57138410e-01
C     3.755110377749999e+00   8.006400802023624e-01   6.832404312000000e+00 -1.29099903e+00  -1.62061140e-01   1.93143070e-01
C     3.627926324025000e+00   5.929651758936907e-01   1.016697702400000e+01 -1.73977259e+00  -6.37073840e-01  -5.37862300e-01
C     4.810181945549999e+00   1.288923114351272e+00   1.009243800800000e+01  3.25816044e+00   9.95681320e-01   2.95856290e-01
C     4.974742104075000e+00   1.154580741051738e-01   6.882708399999999e+00  3.82106320e-01  -1.25845825e+00   2.05592720e-01
C     6.198253654125000e+00   8.405062651679694e-01   6.958795368000000e+00  1.34839380e-01  -2.18314266e+00  -5.53057200e-01
C     6.103074938549999e+00   5.702590717787964e-01   1.007616656000000e+01 -1.23639866e+00   1.00629498e+00   4.19145000e-03
C     7.321383773325000e+00   1.312565649050456e+00   1.004934844800000e+01 -5.23640110e-01  -5.54310510e-01  -1.33793750e-01
C     8.655404095800000e+00   2.245336392100402e+00   6.957347511999999e+00  4.89063660e-01  -8.55434720e-01  -7.37398050e-01
C     2.493050948175000e+00   2.944352619856448e+00   6.874547448000000e+00  2.42622020e-01  -1.12317673e+00   5.43937720e-01
C     2.393147456175000e+00   2.711184350327053e+00   1.008456755200000e+01 -4.26862080e-01  -3.50918200e-02   1.49064680e-01
C     3.608023568925000e+00   3.433307332569715e+00   1.006102935200000e+01  7.63814130e-01   3.71545450e-01   1.28562390e-01
C     3.723088733625000e+00   2.195755588386961e+00   6.852739167999999e+00  8.81939800e-01   2.47864679e+00  -9.77719000e-03
C     4.966035342000000e+00   2.966158669571698e+00   6.879250327999999e+00 -5.08286970e-01  -2.08648548e+00  -1.83834800e-02
C     4.849507631174999e+00   2.738803993199875e+00   1.007124132000000e+01 -3.50008850e-01  -1.00403096e+00  -1.29295010e-01
C     6.102867656700000e+00   3.445369560121289e+00   1.004696423200000e+01 -1.20938934e+00  -1.63483746e+00  -6.59254400e-02
C     6.196763376750001e+00   2.219135292343570e+00   6.905423664000000e+00  5.27592700e-02   2.10238546e+00   1.19124050e-01
C     7.440631882800000e+00   2.932550020918518e+00   6.922073464000000e+00 -1.02367999e+00   1.28348293e+00  -3.39979000e-02
C     7.314401784075000e+00   2.740166435017011e+00   1.001219977600000e+01  6.76583890e-01  -1.02507105e+00   8.42314690e-01
C     8.547892073174999e+00   3.415819481801727e+00   1.010038231200000e+01 -1.21698550e-01   1.34087380e+00  -4.28613260e-01
C     9.882888535650000e+00   4.338644028139622e+00   6.940682344000000e+00  9.90429100e-01   1.53045530e+00  -5.65038850e-01
C     3.753015559125000e+00   5.075770713568955e+00   6.925819584000000e+00 -1.90407434e+00   4.67050600e-02   1.19477570e-01
C     3.610105853024999e+00   4.873658867850373e+00   1.003045492000000e+01  8.12590240e-01  -1.60160953e+00   4.89571070e-01
C     4.836089625525000e+00   5.562513395617379e+00   1.007274670400000e+01  7.56191280e-01  -3.24386530e-01  -2.63092720e-01
C     4.963833147975000e+00   4.370050700812797e+00   6.909179168000000e+00  2.12066980e-01   7.40561800e-02  -2.47463970e-01
C     6.183989512575000e+00   5.082355443415451e+00   6.884050312000000e+00  3.43893410e-01   8.29216050e-01  -1.60459360e-01
C     6.080805302775000e+00   4.811782337343782e+00   1.006729596000000e+01 -1.64089570e-01   3.43604614e+00   4.88289230e-01
C     7.302142427024998e+00   5.575279899405817e+00   1.014533140000000e+01  1.82871250e-01  -9.53660310e-01  -2.15434550e-01
C     7.417584477900000e+00   4.391962036527266e+00   6.883775320000000e+00  2.88035840e-01  -1.54861913e+00   1.05615520e-01
C     8.658208686525001e+00   5.067206811873406e+00   6.906460664000000e+00  2.88152450e-01   1.03567653e+00  -2.97564900e-02
C     8.524051628475000e+00   4.864671772795435e+00   1.012308805600000e+01  1.39986884e+00  -6.45570530e-01  -8.27081100e-02
C     9.810378157275000e+00   5.557359248891650e+00   1.007853078400000e+01 -2.46992765e+00   8.77220600e-01   1.79367940e-01
