72
Lattice="7.395 0 0 3.6975 6.40425786098592 0 0 0 13.6 " PBC="1 1 1" Properties=species:S:1:pos:R:3:force:R:3 Energy="-580.1140214"
C     1.105022533627500e+01   6.390034707761305e+00   1.341390399200000e+01  3.74018090e-01  -3.86713450e-01   2.53861520e-01
C     1.241471860500000e+00   6.205267321477224e-01   1.337544278400000e+01 -1.30081301e+00   2.43063067e+00   3.45129000e-01
C     1.236871357050000e+00   7.609576333947589e-01   3.409424120000000e+00 -2.97348750e-01  -1.20492820e-01   5.09477380e-01
C     2.500284589275000e+00   1.390019896375711e+00   3.390656800000000e+00 -5.29805450e-01   2.99516978e+00   6.31625310e-01
C     6.204427961475000e+00   6.363936716556019e+00   1.341966998400000e+01 -3.15991939e+00  -4.98718820e-01   3.10572820e-01
C     3.686566085775000e+00   6.396716846369851e-01   1.339803320000000e+01  5.70723920e-01   2.10776473e+00   4.67333200e-02
C     3.748925680425000e+00   7.725505569303522e-01   3.523083808000000e+00  4.12941860e-01  -3.55750150e-01  -3.36111720e-01
C     4.997604449100000e+00   1.495136374888556e+00   3.564520423999999e+00 -1.40687579e+00  -1.73341350e-01  -1.49122220e-01
C     8.583189813224999e+00   6.362225242685512e+00   1.337765441600000e+01  1.75801266e+00   1.46951111e+00   6.71817380e-01
C     6.085260383550000e+00   6.952458490261284e-01   1.345368276800000e+01  2.67598331e+00  -4.94800510e-01  -7.19738100e-02
C     6.207246750600000e+00   7.480707295585525e-01   3.565401976000000e+00 -1.27157998e+00   9.63773670e-01  -2.80978570e-01
C     7.386928690274999e+00   1.486623002787523e+00   3.457958032000000e+00  2.23832851e+00   1.44008020e-01   2.91700000e-03
C     1.217110142250000e+00   2.077116647487882e+00   1.336180837600000e+01  2.13941330e-01   5.89239860e-01   4.28428890e-01
C     2.478606627450000e+00   2.774649200825502e+00   1.322325239200000e+01 -8.27544970e-01   7.83933000e-01   1.27407345e+00
C     2.474552984250000e+00   2.842231797000196e+00   3.461722240000000e+00  1.71281734e+00  -2.72436380e-01  -2.12224480e-01
C     3.679280901525000e+00   3.585525142322924e+00   3.538744208000000e+00  1.16140169e+00   6.49238490e-01   2.76345800e-01
C     3.704115160275000e+00   2.064541823137194e+00   1.337242630400000e+01 -6.71225570e-01   9.22805530e-01  -3.43043210e-01
C     4.895978550675000e+00   2.819029619071466e+00   1.350846642400000e+01  1.18678242e+00  -3.30811300e-01   2.90009570e-01
C     4.946537611050000e+00   2.924425067056693e+00   3.563528440000000e+00  6.03401150e-01  -8.18300900e-01  -5.55087610e-01
C     6.189804940574999e+00   3.624131033384261e+00   3.494191424000000e+00  7.24570500e-01   4.38363390e-01   3.32217550e-01
C     6.137376609074999e+00   2.076067566007836e+00   5.890432000000000e-03  5.02228740e-01   2.92812573e+00  -4.34597950e-01
C     7.408664259149999e+00   2.863465370105340e+00   1.387349600000000e-02 -4.74559510e-01  -1.84128938e+00  -1.06908664e+00
C     7.459405606274999e+00   2.910881790832416e+00   3.444018712000000e+00 -2.01829836e+00  -1.70762430e-01   2.00125190e-01
C     8.710103468774999e+00   3.593721311532152e+00   3.463070952000000e+00 -2.73050809e+00   3.95920430e-01  -2.88629010e-01
C     2.476289256300000e+00   4.219861952077371e+00   1.326225148000000e+01 -6.32520690e-01   4.62014320e-01   9.88614130e-01
C     3.670719414225000e+00   4.972983655767528e+00   1.340194755200000e+01  1.08417333e+00  -1.34956757e+00  -2.23719300e-01
C     3.677052344325000e+00   5.030103359706025e+00   3.609803392000000e+00  8.38232820e-01  -5.80737710e-01  -6.56258300e-01
C     4.905035059275000e+00   5.780673286851864e+00   3.553138720000000e+00  1.25419315e+00  -2.44613819e+00  -2.56664340e-01
C     4.928749825950000e+00   4.244338257107349e+00   1.352539665600000e+01 -4.13452320e-01   6.91337040e-01  -1.01272990e-01
C     6.186401059050000e+00   4.977610283773328e+00   1.359404374400000e+01 -1.38367740e+00  -8.80221230e-01  -5.41643690e-01
C     6.191582846475000e+00   5.051172855724796e+00   3.530462896000000e+00 -1.08103153e+00   6.06991660e-01  -1.30510180e-01
C     7.429355543100000e+00   5.770057781150864e+00   3.526130752000000e+00 -1.18413240e-01  -1.66491910e+00  -3.84701320e-01
C     7.411542097349999e+00   4.325595737005343e+00   1.358859082400000e+01  7.43146680e-01  -3.14869631e+00  -2.28751360e-01
C     8.647920281849999e+00   5.004400447168122e+00   1.340298115200000e+01 -2.27163730e-01  -3.51825349e+00  -1.78077740e-01
C     8.648906848799999e+00   5.021472917771311e+00   3.482158416000000e+00  1.96534650e-01   1.84544860e-01   5.89155130e-01
C     9.860230255649999e+00   5.733592577321810e+00   3.564088896000000e+00  3.50116800e-01   2.39775660e-01  -1.28199870e-01
C     7.407819898050000e+00   6.023063623657080e-02   7.116037344000000e+00  4.97881100e-02  -1.64970504e+00  -1.29550780e+00
C     1.229641931100000e+00   7.395658751204724e-01   6.887132752000000e+00  1.18982698e+00  -8.73959520e-01  -3.54061070e-01
C     1.168980783075000e+00   6.611300471930154e-01   1.018209274400000e+01  3.38677962e+00  -1.06398420e-01   1.93578130e-01
C     2.443643363250000e+00   1.386087489921935e+00   1.022815186400000e+01 -8.83953620e-01  -4.96387360e-01  -3.38790780e-01
C     2.470124525475000e+00   2.398772419783740e-02   6.719975968000000e+00 -5.86891400e-01  -1.41286810e-01   4.03039500e-01
C     3.663097313775000e+00   7.754465623346443e-01   6.633502136000000e+00  6.85740360e-01  -3.81211140e-01   4.99923130e-01
C     3.665369464500000e+00   6.939967625731140e-01   1.037995873600000e+01 -1.13361730e-01  -9.02097180e-01  -4.77970570e-01
C     4.891640828550000e+00   1.405592169575194e+00   1.029960082400000e+01  9.02628920e-01  -7.98973210e-01  -5.77425630e-01
C     4.869015419325000e+00   5.972950305902580e-02   6.817538831999999e+00  1.92856622e+00  -1.09409787e+00   3.93463270e-01
C     6.151779776624999e+00   7.415232084502242e-01   6.987904263999999e+00 -1.02259857e+00  -1.14296287e+00  -2.89135800e-01
C     6.131700207075000e+00   6.254580747425010e-01   1.029321576000000e+01 -1.67553800e-02   1.29621674e+00  -2.56431440e-01
C     7.389426277575000e+00   1.347473209282801e+00   1.015193896000000e+01 -3.27183526e+00   1.56738541e+00   6.63644800e-01
C     1.284592142475000e+00   2.126769819315141e+00   6.769085703999999e+00 -1.29246382e+00   2.01816898e+00   7.94234360e-01
C     2.476052764200000e+00   2.917391911074841e+00   6.691174567999999e+00 -7.11833900e-02  -2.17967800e-01   2.45298740e-01
C     2.441618871075000e+00   2.786206516687394e+00   1.010001021600000e+01 -6.10307800e-01   7.22240940e-01   2.51805020e-01
C     3.650207348099999e+00   3.525231039890960e+00   1.004980676800000e+01  1.36387574e+00  -2.07299090e-01   7.16335310e-01
C     3.685695361500000e+00   2.193741129077098e+00   6.589454863999999e+00  1.17556518e+00   3.07589710e-01   9.12977540e-01
C     4.961545800525000e+00   2.855269521109005e+00   6.701250399999999e+00 -1.17191801e+00   1.24738519e+00   4.81007090e-01
C     4.895587798875000e+00   2.828129300979583e+00   1.009723812800000e+01 -2.71670500e-01  -7.84399600e-01   7.00482930e-01
C     6.128419822049999e+00   3.540077646632327e+00   1.018350347200000e+01  1.11834920e-01  -1.13063113e+00   1.65970520e-01
C     6.147413620725000e+00   2.130827429010080e+00   6.898639984000000e+00  1.59254056e+00   1.03723191e+00  -4.70844240e-01
C     7.435472354324999e+00   2.829096087746128e+00   6.902822255999999e+00 -7.65178370e-01  -9.56607430e-01  -5.62664680e-01
C     7.344919433099999e+00   2.819839309392706e+00   1.019874893600000e+01  5.59463020e-01  -1.97382545e+00  -4.75743780e-01
C     8.583122777549999e+00   3.487271466532854e+00   1.016660343200000e+01  1.14723830e-01   6.53743270e-01   5.13494090e-01
C     9.871679305575000e+00   4.345406476141732e+00   6.886407871999999e+00  1.20140167e+00  -9.33168450e-01  -3.40190200e-02
C     3.785157113175000e+00   5.005453499288042e+00   7.021099008000000e+00 -3.08121838e+00   1.43981348e+00  -8.84081010e-01
C     3.726484665525000e+00   4.947572585260305e+00   1.016527688800000e+01 -2.68016916e+00  -7.40660600e-01  -1.13265800e-01
C     4.932581101499999e+00   5.651467192398628e+00   1.018156560800000e+01 -4.41006870e-01   1.69088200e-02   4.92001080e-01
C     4.980447642374999e+00   4.323146044331314e+00   6.796906952000001e+00 -1.41261320e-01  -1.85691354e+00   2.40278800e-01
C     6.203842610250000e+00   5.006922700083704e+00   6.755251240000000e+00  6.37979570e-01  -6.67567120e-01   5.40575720e-01
C     6.156756870450000e+00   4.931481567174163e+00   1.030118617600000e+01 -1.19386603e+00   8.64711730e-01  -5.79650780e-01
C     7.336197363375000e+00   5.645294448460267e+00   1.044017790400000e+01  2.43967837e+00   3.42762410e-01  -7.90431470e-01
C     7.431542688300000e+00   4.208977275418516e+00   6.827087936000000e+00 -6.59543660e-01   3.26552444e+00  -2.64533910e-01
C     8.616377685825000e+00   5.007132311443462e+00   6.871725856000000e+00  2.83768120e-01   6.39165590e-01  -1.46145480e-01
C     8.579421690975000e+00   4.896399490915132e+00   1.034708345600000e+01  3.88732440e-01   9.68290430e-01  -3.14816660e-01
C     9.835798617675000e+00   5.607050526053176e+00   1.031942228000000e+01  2.17952330e-01   6.92051950e-01  -5.85285810e-01
