72
Lattice="7.395 0 0 3.6975 6.40425786098592 0 0 0 13.6 " PBC="1 1 1" Properties=species:S:1:pos:R:3:force:R:3 Energy="-581.79414171"
C     3.704787661575000e+00   6.264745777628137e+00   5.000108000000000e-02 -4.03206320e-01  -1.90819661e+00   5.54752060e-01
C     1.213041043500000e+00   5.638098560286192e-01   5.145206400000000e-02  1.05847732e+00  -2.33093860e-01  -1.66662170e-01
C     1.334718521400000e+00   9.173269392631346e-01   3.350759976000000e+00  2.68284020e-01  -1.91680420e-01  -1.36257590e-01
C     2.557793137875000e+00   1.637399470266760e+00   3.221881752000000e+00 -1.66983700e-01   2.59822710e-01   6.12458060e-01
C     6.140016550124999e+00   6.253112058969976e+00   1.344521840000000e-01  8.61610910e-01  -2.98011810e-01  -1.68923070e-01
C     3.697929353700000e+00   5.616641734752048e-01   8.495416800000000e-02 -1.08129124e+00  -1.79444030e-01   2.52172160e-01
C     3.761451960000000e+00   9.005101266337178e-01   3.294410552000000e+00  1.79829020e-01  -6.78253600e-02   1.97458910e-01
C     4.980996795075001e+00   1.593051521608147e+00   3.378159760000000e+00  1.59823687e+00   5.11000390e-01   4.68637690e-01
C     8.601635790300000e+00   6.230344345894469e+00   1.759792400000000e-01  9.08300880e-01   8.08969990e-01  -2.23423640e-01
C     6.180426786450000e+00   5.239792146941352e-01   1.643927200000000e-01 -1.93752683e+00   7.69563990e-01  -5.36771280e-01
C     6.247413247725000e+00   9.259513611954607e-01   3.501491495999999e+00  5.99830240e-01  -1.71555020e+00  -4.59855030e-01
C     7.513518777600000e+00   1.636182725315939e+00   3.396284616000000e+00 -1.92895116e+00  -2.67792752e+00   2.91012810e-01
C     1.222577598525000e+00   1.970808080416976e+00   1.357908483200000e+01  1.36378130e-01   7.75789770e-01   5.13549950e-01
C     2.476318577475000e+00   2.693506933526409e+00   1.352425344000000e+01 -2.07465743e+00   8.89762990e-01   4.02165650e-01
C     2.574200609250000e+00   3.087265235066813e+00   3.247187272000000e+00 -1.68472451e+00  -6.37917290e-01   3.41408900e-01
C     3.794794646925000e+00   3.792210909005119e+00   3.376902168000000e+00  5.79854600e-01  -2.41227065e+00   1.33944390e-01
C     3.685408324575000e+00   1.998938270726397e+00   1.359641898400000e+01  1.88769500e-02  -1.29390504e+00   1.09263460e-01
C     4.898958181049999e+00   2.674329063151746e+00   1.121859920000000e-01  1.19486188e+00   3.13705330e-01   7.02461200e-02
C     5.006578947150000e+00   3.003148125949171e+00   3.429484120000000e+00  5.03814880e-01   1.87318578e+00  -5.01714370e-01
C     6.280984218300000e+00   3.719743465147710e+00   3.420811672000000e+00 -2.64570916e+00   2.36767250e-01  -7.53304500e-02
C     6.131160556950000e+00   1.952912086295571e+00   1.720283040000000e-01  9.57389170e-01   4.46909000e-02  -2.15873540e-01
C     7.378433092424999e+00   2.664674324214903e+00   1.286145200000000e-01 -2.75093740e-01   9.84758840e-01  -3.52095300e-01
C     7.455852641550000e+00   2.993148517726568e+00   3.332293488000000e+00  2.47136427e+00   3.19166016e+00   1.00977000e-02
C     8.686319817674999e+00   3.775570853892638e+00   3.281122672000000e+00  1.21094329e+00  -6.37514470e-01   5.23483520e-01
C     2.410967483474999e+00   4.142738868926058e+00   1.357822490400000e+01  1.94888934e+00  -1.45223823e+00   5.26422770e-01
C     3.692348643000000e+00   4.809213269303243e+00   2.598932800000000e-02 -4.94565120e-01   8.64984610e-01   2.43264830e-01
C     3.803595436425000e+00   5.169621141867382e+00   3.501686520000000e+00  3.93786360e-01   1.13923048e+00  -3.23528570e-01
C     5.029545894450000e+00   5.895402300242256e+00   3.428115280000000e+00  7.71618910e-01  -4.09967760e-01   1.74782400e-02
C     4.922582469900000e+00   4.086786212897389e+00   1.420415280000000e-01 -3.56073220e-01   7.44734200e-01  -2.58264660e-01
C     6.162588900225000e+00   4.811670519001546e+00   2.471329440000000e-01 -1.56139425e+00   1.04788730e+00  -8.99674210e-01
C     6.274576598700000e+00   5.156122439277810e+00   3.381744040000000e+00 -3.86890100e-01   2.93900570e-01   1.13408570e-01
C     7.502095758074999e+00   5.891898594809628e+00   3.351148664000000e+00 -1.29857965e+00   1.12969540e-01   1.56520080e-01
C     7.367472704099999e+00   4.127074118243076e+00   1.817121840000000e-01  3.09560850e-01  -2.13995759e+00   1.12172090e-01
C     8.579506955325000e+00   4.820341243718200e+00   1.657614240000000e-01  7.89111250e-01   3.73343590e-01  -8.20747330e-01
C     8.723862346950000e+00   5.209118569665410e+00   3.416172712000000e+00  4.76896800e-02  -1.96235975e+00  -2.06654630e-01
C     9.972263285474998e+00   5.849562735885470e+00   3.539200080000000e+00 -6.07119180e-01   2.91771171e+00  -6.28153430e-01
C     7.441198968375000e+00   1.145964452526894e-01   6.813567632000000e+00 -1.24474827e+00   5.93810940e-01   8.10215900e-02
C     1.256307339750000e+00   8.474473919643732e-01   6.753585920000000e+00  2.07912470e-01  -1.79931000e-01  -2.26472200e-02
C     1.139331935625000e+00   5.586014652388170e-01   1.018072744000000e+01 -7.40762360e-01  -6.80271870e-01  -3.65319250e-01
C     2.385250483575000e+00   1.260302421932354e+00   9.988283903999999e+00 -1.90431789e+00  -4.17778350e-01   6.69366130e-01
C     2.495967425250000e+00   1.142036721181356e-01   6.790814288000000e+00 -1.98041430e-01   1.80555951e+00  -6.80058200e-02
C     3.762913064100000e+00   7.995323997628969e-01   6.772100280000000e+00 -8.16814460e-01   1.15613896e+00   1.17895600e-01
C     3.572383958025000e+00   5.503753241028042e-01   1.002479514400000e+01  1.82891507e+00  -1.01936993e+00   7.28464940e-01
C     4.807703178525000e+00   1.244759031935819e+00   1.013108744000000e+01  6.16384330e-01   5.91243240e-01  -6.22436800e-02
C     5.005287447374999e+00   1.331525262317250e-01   6.892786408000000e+00 -1.44476712e+00  -7.77949410e-01  -5.77709300e-01
C     6.192499419750000e+00   8.540390384093569e-01   6.854362328000000e+00  1.81857435e+00   2.02631450e-01  -3.79304200e-01
C     6.076847498775000e+00   5.563725273332226e-01   1.025336041600000e+01 -7.94975290e-01   9.28808560e-01  -4.39871460e-01
C     7.298835604874998e+00   1.285499205971581e+00   1.025003739200000e+01  8.20944360e-01  -6.08599190e-01  -2.62026620e-01
C     8.629343930925000e+00   2.287861624929481e+00   6.688171688000000e+00  2.17100410e-01  -1.68838826e+00   2.44953760e-01
C     2.466333922425000e+00   2.931177652501699e+00   6.687257496000000e+00  1.78525419e+00   9.40156710e-01  -7.99634300e-02
C     2.375773125525000e+00   2.653336994610502e+00   9.973591824000000e+00 -6.71463050e-01   2.38820542e+00   7.51532330e-01
C     3.610187087100000e+00   3.400767362425634e+00   1.004549012800000e+01 -1.29592653e+00  -5.37733260e-01   1.67936140e-01
C     3.747455036774999e+00   2.240664806204425e+00   6.688959128000000e+00 -1.55802314e+00  -1.03790030e+00   4.96171160e-01
C     4.944905978250000e+00   2.951614984227109e+00   6.761132559999999e+00  8.40284130e-01   1.63918125e+00   5.52817000e-03
C     4.813231976325000e+00   2.678187180214346e+00   1.011985805600000e+01  1.46789759e+00  -2.38943400e-02   2.09818730e-01
C     6.087788179424999e+00   3.393259843064091e+00   1.021060174400000e+01 -1.82842362e+00   1.14355420e-01   2.22386100e-02
C     6.199609749225000e+00   2.282859771455664e+00   6.773673256000000e+00 -4.86573350e-01  -7.07555370e-01   9.32424100e-02
C     7.421518506975000e+00   3.006283970810320e+00   6.716860752000000e+00 -6.29009770e-01   1.71287880e-01   3.41491020e-01
C     7.313605046774999e+00   2.711581926655001e+00   1.021701659200000e+01 -1.05475360e+00  -1.14539909e+00  -2.36841700e-01
C     8.499223877324999e+00   3.403681235709355e+00   1.010908128000000e+01  2.93851997e+00   3.19015110e-01   8.50496400e-02
C     9.884423811600000e+00   4.346558922343638e+00   6.745928440000000e+00 -9.46743760e-01   1.19199589e+00   4.90904310e-01
C     3.695619636375000e+00   5.090185417160244e+00   6.804882128000000e+00  8.61397790e-01   1.17656240e-01  -1.05639630e-01
C     3.582214168500000e+00   4.824509326861224e+00   1.016332637600000e+01 -2.05448400e-01  -6.02067280e-01  -1.19246400e-01
C     4.787032526625000e+00   5.500422066302163e+00   1.020290400800000e+01  2.28515322e+00   1.99460590e+00  -4.15353300e-02
C     4.934516373000000e+00   4.407603411669058e+00   6.812362672000000e+00 -4.21606570e-01  -1.12176346e+00  -1.99844030e-01
C     6.135103053300000e+00   5.137937549084341e+00   6.843731072000000e+00  1.79232085e+00  -1.67359666e+00  -3.31082110e-01
C     6.054606481650000e+00   4.808385967272888e+00   1.021155265600000e+01 -2.71742940e-01  -4.47642900e-02  -3.77854380e-01
C     7.285214125800000e+00   5.524259674695762e+00   1.015052456000000e+01 -2.49748960e-01   5.22754400e-01   8.30499700e-02
C     7.405096985100000e+00   4.427097972594898e+00   6.788107343999999e+00 -2.13731700e-02   1.24031520e-01   2.06080280e-01
C     8.660817013949998e+00   5.110405772629357e+00   6.848374928000000e+00  1.24445940e-01  -7.67202810e-01  -4.64580120e-01
C     8.524412985150001e+00   4.839230153978221e+00   1.017911312000000e+01  2.95081460e-01  -2.63342680e-01  -4.39814140e-01
C     9.778216451850000e+00   5.568386420287892e+00   1.018845251200000e+01 -1.22446579e+00  -1.53338856e+00   1.20501890e-01
