72
Lattice="7.395 0 0 3.6975 6.40425786098592 0 0 0 13.6 " PBC="1 1 1" Properties=species:S:1:pos:R:3:force:R:3 Energy="-581.1946431"
C     3.682583582475000e+00   6.293828152996184e+00   1.349836679200000e+01  5.35831820e-01   3.26590950e-01   5.83253540e-01
C     1.177381429125000e+00   6.714070878661146e-01   1.354167939200000e+01  1.69218619e+00  -3.47198968e+00  -2.51756760e-01
C     1.326067295775000e+00   8.292890794410221e-01   3.532962032000000e+00 -1.35284246e+00   4.44293370e-01  -1.28948860e-01
C     2.528997044850000e+00   1.581678392202309e+00   3.584436400000000e+00 -5.51304230e-01  -2.06045410e-01   5.26383900e-02
C     6.106309030875000e+00   6.287989391105222e+00   1.347568335200000e+01  1.33923047e+00   1.41166796e+00   2.90011580e-01
C     3.661621604550000e+00   6.223501524456216e-01   1.348461447200000e+01  6.48804150e-01   1.91526400e-02   3.68229630e-01
C     3.715303906200000e+00   8.120023864124173e-01   3.550819104000000e+00  2.05927490e+00   2.08751671e+00  -5.09524860e-01
C     4.973291020200000e+00   1.555212156170072e+00   3.445237544000000e+00  2.48457130e-01  -6.14785150e-01   9.12326790e-01
C     8.644460937824999e+00   6.313574145085608e+00   1.344408728800000e+01 -2.05230308e+00  -6.43849500e-01   7.19507260e-01
C     6.197223123900000e+00   6.231590102133396e-01   1.348247750400000e+01 -2.33849136e+00  -4.01580010e-01  -2.62954230e-01
C     6.230255923350000e+00   8.578060228826088e-01   3.432436136000000e+00 -1.18897353e+00  -4.54940100e-01   4.14200200e-02
C     7.451667848024999e+00   1.523689438344473e+00   3.500312784000000e+00  1.30660049e+00   2.04805681e+00   7.33281900e-02
C     1.213908440025000e+00   2.049611192532704e+00   1.357252936000000e+01 -4.71191960e-01   3.70831260e-01  -2.22602870e-01
C     2.429568681600000e+00   2.782844089183158e+00   2.226320000000000e-03  8.71495200e-01  -2.08405399e+00   1.45679230e-01
C     2.522116662900000e+00   3.032077311469206e+00   3.594791712000000e+00  7.79666650e-01  -2.18005648e+00  -7.41981830e-01
C     3.795397043625000e+00   3.675860273481997e+00   3.443504904000000e+00 -2.05785566e+00   1.28367842e+00   1.06753209e+00
C     3.664027161075000e+00   2.080584617161651e+00   8.870600000000001e-03  4.97063340e-01  -1.94505724e+00  -1.28396981e+00
C     4.914355976100000e+00   2.767040814402665e+00   1.344951287200000e+01 -2.22300000e-01  -1.96892017e+00   6.64579950e-01
C     5.020491308550000e+00   2.984222263121299e+00   3.518570920000000e+00 -2.55766317e+00  -2.19884805e+00  -1.05744311e+00
C     6.189342716100000e+00   3.663262778058484e+00   3.472062048000000e+00  3.22893014e+00   1.94933127e+00   3.94262270e-01
C     6.171444190874999e+00   2.052962156415370e+00   1.343311684800000e+01 -2.13428297e+00  -1.74983576e+00   2.20028850e-01
C     7.361345022225001e+00   2.708546180344205e+00   1.347089724000000e+01  1.62676329e+00   1.26292542e+00  -2.42698400e-01
C     7.440143590949999e+00   2.993720417953465e+00   3.533988152000000e+00 -3.38456260e-01  -2.18449289e+00  -6.53883100e-02
C     8.660086277025000e+00   3.696173682817817e+00   3.578859312000000e+00  1.22256640e+00  -2.12333510e-01  -6.15345490e-01
C     2.468894404200000e+00   4.148817342188719e+00   1.357290730400000e+01 -2.08086536e+00   2.28547432e+00   1.24475030e-01
C     3.684020135174999e+00   4.852871799603228e+00   1.357095434400000e+01  5.73551100e-02   1.08210414e+00  -7.24995730e-01
C     3.769670652075000e+00   5.100704666865608e+00   3.427322536000000e+00  3.68933460e-01   7.85977280e-01  -6.63873500e-02
C     5.022513138524999e+00   5.805249882559928e+00   3.459227456000000e+00 -9.44814480e-01   8.38828840e-01   2.03192420e-01
C     4.896813298275000e+00   4.139277495637885e+00   1.345778371200000e+01  1.09570024e+00   2.06498565e+00   3.40987130e-01
C     6.144962658900000e+00   4.870726678389172e+00   1.342675735200000e+01 -4.65113790e-01  -7.73424240e-01  -4.25577350e-01
C     6.233297117099999e+00   5.109200747470419e+00   3.490411984000000e+00 -5.88789270e-01  -1.23263878e+00   2.95490900e-02
C     7.436359865249999e+00   5.815783029504848e+00   3.535974432000000e+00  1.38614881e+00  -8.45957470e-01  -6.33015190e-01
C     7.374597084074999e+00   4.098732139126225e+00   1.336953780000000e+01 -5.29501410e-01   3.29099484e+00   1.33707129e+00
C     8.574940025175000e+00   4.851797421304634e+00   1.352438236800000e+01  1.95414896e+00   9.53413590e-01  -1.01910702e+00
C     8.699160939375000e+00   5.077225120528962e+00   3.455528800000000e+00 -5.18074890e-01   3.12049448e+00   7.01369220e-01
C     9.935931724425000e+00   5.850865233849036e+00   3.426541488000000e+00 -5.16636100e-01  -2.39093198e+00  -3.33415400e-02
C     7.424925901125000e+00   6.870699172717380e-02   6.814254160000000e+00  5.94713080e-01   9.13732510e-01   2.59604240e-01
C     1.268612397900000e+00   7.846938623864340e-01   6.906961824000000e+00 -6.29380860e-01   1.30913060e+00  -2.33359630e-01
C     1.138558862325000e+00   5.920665304307755e-01   1.012405651200000e+01  1.66910965e+00   4.44200190e-01  -4.78735050e-01
C     2.391118527000000e+00   1.322708904776860e+00   1.017336290400000e+01  1.21532240e-01  -1.13767753e+00  -2.53962700e-01
C     2.490908653650000e+00   9.414553650061561e-02   6.923340440000000e+00  8.87224680e-01  -1.00569672e+00  -1.34870540e-01
C     3.772797332025000e+00   7.986003881165310e-01   6.937395496000000e+00 -1.79756372e+00  -9.36761600e-01  -5.61447000e-03
C     3.658575086400000e+00   5.905797819685765e-01   1.008556429600000e+01 -3.34126655e+00  -2.43011160e-01   6.92694600e-01
C     4.828139445900000e+00   1.282283564057496e+00   1.012781242400000e+01  2.99032480e+00   1.26691301e+00  -7.17130350e-01
C     4.984194836774999e+00   7.980377740635300e-02   6.880311943999999e+00  5.36204690e-01   8.58597500e-02  -3.98790140e-01
C     6.214378155825000e+00   8.144674493053098e-01   6.815231320000000e+00 -6.32220800e-01  -1.34435222e+00   5.40799410e-01
C     6.096266103224999e+00   6.112344742057555e-01   1.002393440000000e+01 -6.85394090e-01  -2.05221980e-01   4.56573370e-01
C     7.328517212174999e+00   1.285811605669992e+00   1.004440498400000e+01 -7.23928180e-01   1.82713049e+00   6.70515480e-01
C     8.635323712800000e+00   2.251971075158205e+00   6.935955391999999e+00  1.24734583e+00  -1.10733672e+00   3.81479060e-01
C     2.501673998850000e+00   2.951100594235794e+00   7.028466128000000e+00 -5.24602640e-01  -2.17019260e+00  -1.29193470e+00
C     2.387975947800000e+00   2.745271461084953e+00   1.021088856800000e+01  9.19953800e-02  -1.53084479e+00  -4.28914980e-01
C     3.621272598825000e+00   3.397951730457485e+00   1.019193411200000e+01  5.71499080e-01   2.50045715e+00  -4.08207680e-01
C     3.733468873275000e+00   2.196120887255295e+00   6.976457552000000e+00  6.63271490e-01   2.02440439e+00   9.34015700e-02
C     4.973406419174999e+00   2.958891822220534e+00   6.946155256000001e+00 -1.03514881e+00  -2.44139931e+00  -2.07348650e-01
C     4.859763793650000e+00   2.696025792185325e+00   1.012402509600000e+01 -6.98037090e-01   1.15085433e+00   1.71345380e-01
C     6.084406002224999e+00   3.449133662678504e+00   1.004117988000000e+01  1.84668430e-01  -1.55159077e+00   7.43872640e-01
C     6.201721058700000e+00   2.204641047869660e+00   6.905158191999999e+00  1.42569340e-01   2.57741980e+00  -2.62236760e-01
C     7.430348802525001e+00   2.974477864574417e+00   6.915440880000000e+00 -4.13282290e-01  -6.96271550e-01  -1.80129970e-01
C     7.322755804649999e+00   2.724346188953189e+00   1.009790520800000e+01  5.40406290e-01   3.86582700e-01  -6.08775140e-01
C     8.569801498499999e+00   3.446471860984152e+00   1.009904284800000e+01 -1.29205260e+00   5.38117910e-01   5.68445670e-01
C     9.869421316275000e+00   4.328924990453864e+00   6.864005543999999e+00  1.75409224e+00   1.14152488e+00   6.52037710e-01
C     3.715524166274999e+00   5.069472766389432e+00   6.852139136000000e+00 -8.45310450e-01  -5.42883960e-01  -1.27926140e-01
C     3.583353848925000e+00   4.876735857581789e+00   1.011508119200000e+01  1.91247517e+00  -1.03582428e+00  -2.37986590e-01
C     4.825064567925000e+00   5.595850759907608e+00   1.005792107200000e+01  9.38215250e-01  -1.92999388e+00   6.75224310e-01
C     4.920651043800000e+00   4.356043115893669e+00   6.901592408000000e+00  1.80436404e+00   1.83296040e-01  -1.27550600e-02
C     6.176647386825000e+00   5.040552674915558e+00   6.893834968000000e+00  1.07371990e-01   2.58736480e+00   8.32990000e-02
C     6.087220908975000e+00   4.839921621699364e+00   1.007013183200000e+01 -2.41005050e-01   2.20413812e+00  -2.75042200e-01
C     7.350745768724999e+00   5.573759912845325e+00   1.005379456000000e+01 -1.79406416e+00  -3.94276790e-01   1.33522300e-01
C     7.444235836050000e+00   4.417295487429225e+00   6.901159247999999e+00 -1.55382719e+00  -2.83966544e+00   1.49654100e-02
C     8.677135967174999e+00   5.045252119333226e+00   6.871246999999999e+00 -4.27284620e-01   2.17390452e+00  -9.23861900e-02
C     8.560500511199999e+00   4.886119184070525e+00   1.006875034400000e+01  4.11251040e-01  -8.60168530e-01  -1.67918500e-02
C     9.789536754824999e+00   5.617447070177943e+00   1.005173008000000e+01 -6.06028910e-01  -1.35279416e+00   2.57057620e-01
