72
Lattice="7.395 0 0 3.6975 6.40425786098592 0 0 0 13.6 " PBC="1 1 1" Properties=species:S:1:pos:R:3:force:R:3 Energy="-581.82007319"
C     3.687925175850000e+00   6.357391372895363e+00   1.336673973600000e+01  9.89094980e-01  -5.51344750e-01   5.87744110e-01
C     1.281401236950000e+00   6.600378010149924e-01   1.339835048800000e+01 -1.88573658e+00   1.26629840e-01   1.55175600e-01
C     1.278292637775000e+00   8.084844635273407e-01   3.564953992000000e+00  9.69208000e-03  -5.84104470e-01  -1.77347300e-01
C     2.477522594400000e+00   1.551651901140541e+00   3.547792832000000e+00  1.18179850e+00  -1.84559968e+00  -1.01418910e-01
C     6.227455695674999e+00   6.346248412517014e+00   1.341823001600000e+01 -3.61406558e+00   1.14719087e+00  -2.06375060e-01
C     3.701533380900000e+00   6.539020096444836e-01   1.336721546400000e+01 -6.14644870e-01   1.32290058e+00   8.88454780e-01
C     3.720430563900000e+00   8.107784046502140e-01   3.515818008000000e+00 -5.12175290e-01  -1.14625557e+00   1.49541410e-01
C     4.979763641850000e+00   1.471726891132898e+00   3.490732264000000e+00 -1.61896332e+00   3.68458460e-01   6.70112620e-01
C     8.569078156574999e+00   6.363275284804239e+00   1.342830544000000e+01  2.71618200e+00  -1.01806914e+00  -5.91044200e-02
C     6.124318259249999e+00   6.053100873872053e-01   1.340859808800000e+01  1.46516339e+00   1.93124064e+00  -8.15248900e-02
C     6.179599248975000e+00   7.534985302226382e-01   3.535850808000000e+00  1.09137053e+00   1.16644138e+00   1.45981830e-01
C     7.415351187900000e+00   1.461685655234204e+00   3.559802040000000e+00  5.86477660e-01   1.40477162e+00  -2.38677470e-01
C     1.224811221300000e+00   2.083707397336765e+00   1.341596194400000e+01  1.48208930e-01   6.01564010e-01  -4.05062750e-01
C     2.464857880425000e+00   2.825558119533950e+00   1.340276178400000e+01 -5.96668220e-01  -8.43275380e-01   5.09349180e-01
C     2.486335844475000e+00   2.937863185366910e+00   3.538602224000000e+00  3.51698830e-01   1.25957635e+00  -2.04391370e-01
C     3.699101720025000e+00   3.648259715297598e+00   3.502201824000000e+00  2.30153660e+00   6.63134100e-02   6.98345810e-01
C     3.678854912550000e+00   2.062058700237136e+00   1.343934904800000e+01  6.87246730e-01   1.80907417e+00  -9.73493420e-01
C     4.933532061525000e+00   2.771293433749441e+00   1.336056560800000e+01 -6.80984070e-01   7.23687710e-01   8.07374230e-01
C     4.945751855325000e+00   2.877994902040058e+00   3.585076552000000e+00  2.24105920e-01   1.60705473e+00  -1.17007822e+00
C     6.190526507700000e+00   3.585283765844181e+00   3.555033744000000e+00  4.86337000e-02   1.03048047e+00  -1.00866700e-01
C     6.164393391150000e+00   2.040419225268824e+00   1.338315738400000e+01 -1.09661157e+00   5.16519550e-01  -1.80826400e-01
C     7.353455111850000e+00   2.786050316838188e+00   1.334596995200000e+01  1.61197307e+00   5.74186070e-01   3.83276080e-01
C     7.448777290425000e+00   2.912706235811573e+00   3.532139640000000e+00 -6.24441850e-01  -3.00652130e-01   2.84937440e-01
C     8.687545686824999e+00   3.668629225932271e+00   3.543768048000000e+00 -1.80356727e+00  -1.26695522e+00  -2.55565360e-01
C     2.456041450500000e+00   4.252196153416412e+00   1.341575128000000e+01 -8.60317820e-01  -7.99683070e-01   1.25089350e-01
C     3.685417605300000e+00   4.922140060489252e+00   1.338542708800000e+01  8.35727600e-02   1.07223722e+00   1.57435190e-01
C     3.761796530025000e+00   5.097304646367734e+00   3.529861504000000e+00 -1.48303770e-01  -1.33253001e+00   1.04218760e-01
C     5.037553496250000e+00   5.791159426544092e+00   3.528956560000000e+00 -2.97614499e+00  -2.99162280e-01   8.67443100e-02
C     4.904880134024999e+00   4.228811710308986e+00   1.338990679200000e+01  9.40369850e-01  -1.04739150e+00  -5.75268200e-02
C     6.137655659400000e+00   4.971967236002567e+00   1.340677963200000e+01  4.69106360e-01  -2.31445604e+00  -4.19024790e-01
C     6.197771093400000e+00   5.036398937310141e+00   3.526601312000000e+00  9.74183500e-01  -7.37017330e-01   2.71312120e-01
C     7.409016926700000e+00   5.759987469921485e+00   3.560113752000000e+00  1.13977750e+00   8.95838210e-01  -6.37640960e-01
C     7.362130075425000e+00   4.257073187904537e+00   1.333601842400000e+01  1.41277510e-01  -1.87198765e+00   1.00020026e+00
C     8.594071185975000e+00   4.963206275292666e+00   1.345089449600000e+01  8.39248900e-02  -1.41519742e+00  -7.83870950e-01
C     8.676309391049999e+00   5.070179988584911e+00   3.535248056000000e+00 -9.60255380e-01   4.25589100e-02   4.57779160e-01
C     9.896775532200000e+00   5.768512049473774e+00   3.586998096000000e+00  7.30395370e-01  -3.49935660e-01  -8.13829670e-01
C     5.380945867500000e-02   3.834145925429820e-02   6.787376616000000e+00 -1.76793219e+00   5.99611750e-01   1.49284870e-01
C     1.252217424075000e+00   7.515634196676606e-01   6.837702600000000e+00 -3.08960430e-01   1.40346629e+00  -6.40853200e-02
C     1.192961917650000e+00   6.136447166513664e-01   1.025664386400000e+01 -8.73467650e-01   1.19500162e+00  -6.09820460e-01
C     2.386530927825000e+00   1.339297789869039e+00   1.019528542400000e+01  2.11926607e+00   1.24490100e-01  -8.40107500e-02
C     2.463646135725000e+00   7.868482547305380e-02   6.867517744000000e+00  1.91166465e+00  -1.12542905e+00  -7.08623100e-02
C     3.752990859825000e+00   7.362910578637614e-01   6.863858664000000e+00 -5.59148720e-01  -4.65455500e-01   3.09543640e-01
C     3.650946848099999e+00   6.344029657381417e-01   1.012222568000000e+01 -3.71638820e-01  -3.95092790e-01   1.25769318e+00
C     4.884220574625000e+00   1.361856660095732e+00   1.024474604000000e+01 -1.43094090e-01  -9.37895640e-01  -1.11087593e+00
C     5.006030459999999e+00   4.816091570330040e-02   6.900792319999999e+00 -9.86677940e-01  -3.57366090e-01  -8.59697370e-01
C     6.220342334250001e+00   7.966571441540713e-01   6.809998312000000e+00 -1.58589110e-01  -1.02703519e+00   4.79583610e-01
C     6.144782073000000e+00   6.559069266101353e-01   1.019832502400000e+01 -1.21093610e+00  -2.45015260e-01   3.55003750e-01
C     7.364243344575000e+00   1.363443250937968e+00   1.023603945600000e+01  4.64352360e-01  -3.92752000e-03   5.31350600e-02
C     8.617706974050000e+00   2.191499254570626e+00   6.845699808000000e+00  1.11581997e+00  -7.88117160e-01   2.14702050e-01
C     2.487216404100000e+00   2.842633472053175e+00   6.908754032000000e+00 -1.28137490e-01   6.90079880e-01  -1.04909928e+00
C     2.429453319600000e+00   2.760732876580879e+00   1.022074258400000e+01 -4.11480220e-01   5.20690160e-01  -3.40455600e-02
C     3.662670696225000e+00   3.465348346983924e+00   1.025209412000000e+01 -1.10575890e+00   1.29310383e+00  -4.14825550e-01
C     3.736148710350000e+00   2.127692608830188e+00   6.863337920000000e+00 -9.69860200e-01   1.31697328e+00   3.65504510e-01
C     4.920934679025000e+00   2.878508267350115e+00   6.877136480000000e+00  1.54119943e+00   5.53113700e-01  -9.58100700e-02
C     4.858748977799999e+00   2.776879419582669e+00   1.023492806400000e+01  1.92952491e+00  -5.14328660e-01   1.56322800e-01
C     6.104994051975000e+00   3.495115337517204e+00   1.021549665600000e+01  6.04064200e-01  -1.30768329e+00   2.72751060e-01
C     6.193726767899999e+00   2.222055633927730e+00   6.846100327999999e+00 -6.61693230e-01  -1.14051900e+00  -2.35050480e-01
C     7.415284263149999e+00   2.916877136828055e+00   6.811347296000000e+00 -5.25207890e-01   1.07485627e+00   3.39630950e-01
C     7.388137218149999e+00   2.801246083718082e+00   1.024042232800000e+01 -1.57674261e+00  -6.48439340e-01  -4.09146640e-01
C     8.608067850374999e+00   3.511455161021208e+00   1.020551996800000e+01 -4.71786230e-01  -9.73549570e-01   3.25864010e-01
C     2.470866280950000e+00   4.263082495182311e+00   6.801109080000000e+00  1.05637210e-01   1.23784153e+00   7.30857620e-01
C     3.693121050750000e+00   5.035178670017497e+00   6.797362008000000e+00  5.91882980e-01  -1.65154003e+00   3.28994150e-01
C     3.667654408575000e+00   4.913323382735968e+00   1.023200841600000e+01 -1.14902973e+00  -5.03338780e-01  -1.87839810e-01
C     4.894240023150000e+00   5.618660100659207e+00   1.022177441600000e+01 -9.57941670e-01  -4.89307290e-01   2.14192900e-01
C     4.933025947725000e+00   4.299956354705412e+00   6.879219184000000e+00 -3.79308990e-01   1.21142174e+00  -4.21734220e-01
C     6.162703744574999e+00   5.064442990351345e+00   6.865930896000000e+00 -7.16959060e-01  -9.53973650e-01   9.06800300e-02
C     6.089662922850000e+00   4.886007878068918e+00   1.022502604000000e+01  9.54613790e-01   6.33999880e-01  -3.47250960e-01
C     7.326289727250000e+00   5.580679265165005e+00   1.018653083200000e+01 -2.59547940e-01   2.10452465e+00  -2.25201710e-01
C     7.386446018625000e+00   4.362786479207356e+00   6.842285664000000e+00  6.13566840e-01  -1.22875886e+00   7.90854800e-02
C     8.632540826400000e+00   5.010620134316597e+00   6.851102271999999e+00  1.32162155e+00   6.87124190e-01  -7.76621500e-02
C     8.540787437850000e+00   4.914474676171460e+00   1.020324224000000e+01  2.60269904e+00   2.41336030e-01  -1.65850820e-01
C     9.814315329225000e+00   5.628765827434550e+00   1.019278370400000e+01 -9.23159000e-02   1.45930000e-02   1.17654440e-01
