72
Lattice="7.395 0 0 3.6975 6.40425786098592 0 0 0 13.6 " PBC="1 1 1" Properties=species:S:1:pos:R:3:force:R:3 Energy="-581.03089774"
C     3.687073863450000e+00   6.238985995280439e+00   5.457408000000000e-02 -5.42454930e-01   1.01579996e+00  -7.02043550e-01
C     1.224412852650000e+00   5.460878655932700e-01   1.356025971200000e+01 -4.58644370e-01   9.69186720e-01   5.50336130e-01
C     1.330709987700000e+00   8.815267535702629e-01   3.314351280000000e+00 -8.76243920e-01   6.55206980e-01   5.18102630e-01
C     2.532669475800000e+00   1.621936453706369e+00   3.191253736000000e+00  1.31450055e+00  -7.55264440e-01   4.50252330e-01
C     6.155472654750000e+00   6.262397144143140e+00   9.781609600000001e-02 -1.06681761e+00  -9.86564000e-01  -1.02305270e-01
C     3.656360616675000e+00   5.768915133463483e-01   1.130361280000000e-01  1.41387752e+00  -2.02359230e-01  -9.10264480e-01
C     3.790781047649999e+00   9.231724896674280e-01   3.296241384000000e+00 -5.87890640e-01  -1.85437238e+00   7.02220980e-01
C     5.034613133324999e+00   1.609980921090742e+00   3.489137120000000e+00 -1.60442325e+00  -2.53746890e-01  -1.20333559e+00
C     8.608693615275000e+00   6.264202184220982e+00   1.523753520000000e-01 -1.68292340e-01  -2.94117290e-01  -7.08747300e-01
C     6.132937501500000e+00   5.812977067966068e-01   1.000648560000000e-01  8.69106110e-01  -1.98202390e+00   1.96213400e-01
C     6.234527016525000e+00   8.894468352231462e-01   3.564615488000000e+00  9.12568460e-01  -6.16138300e-02  -4.37810250e-01
C     7.466713382249999e+00   1.590685980882399e+00   3.415735608000000e+00  8.07774570e-01   5.23799400e-01  -1.32604420e-01
C     1.198954086150000e+00   2.012118169359699e+00   1.350981105600000e+01  8.59014530e-01  -1.87825121e+00   1.80267020e-01
C     2.422565986350000e+00   2.703856278270748e+00   1.340363993600000e+01  1.34639577e+00   8.87015300e-02   6.34965200e-01
C     2.550036707250000e+00   3.036227398647643e+00   3.224712184000000e+00  2.03284620e-01   2.49240800e-02   9.11937090e-01
C     3.764868154200000e+00   3.723414641923376e+00   3.467143608000000e+00  1.05955058e+00   1.29307397e+00  -9.25820140e-01
C     3.675051959850000e+00   1.983775998115111e+00   1.347783038400000e+01  1.97500380e-01   4.38166610e-01   1.60075625e+00
C     4.922276132025000e+00   2.694373301529710e+00   1.298385200000000e-01 -6.54053640e-01  -1.78932880e-01  -9.03088170e-01
C     5.001571496850000e+00   3.016003777007021e+00   3.391128040000000e+00  7.98337780e-01   1.10795953e+00   1.25108012e+00
C     6.244209659775000e+00   3.763037080834832e+00   3.430704856000000e+00 -1.48297170e-01  -2.68567028e+00  -2.29860350e-01
C     6.161055214200000e+00   1.960633443827058e+00   1.937178560000000e-01 -6.48856140e-01   1.78806979e+00  -4.91139770e-01
C     7.394184479400000e+00   2.683859623528684e+00   1.279488000000000e-01 -1.15931712e+00   9.15811820e-01   5.88919630e-01
C     7.484184994124999e+00   3.034136600584089e+00   3.341040464000000e+00  4.49514300e-02  -2.88542700e-01   1.11766080e-01
C     8.742568184324998e+00   3.742094517206846e+00   3.271963344000000e+00 -1.83814495e+00   5.25557670e-01   8.37072100e-01
C     2.467456668300000e+00   4.128557600533767e+00   1.349984810400000e+01 -1.16430362e+00  -6.02072020e-01  -9.95677000e-02
C     3.675472291650000e+00   4.831001451139064e+00   1.355755766400000e+01  9.85695690e-01   1.44118470e-01   7.11537230e-01
C     3.809721306525000e+00   5.187702795424149e+00   3.584733016000000e+00 -1.36247990e+00  -1.42738288e+00  -6.39021720e-01
C     5.047162596224999e+00   5.880819869137614e+00   3.498809303999999e+00 -9.94965350e-01  -1.52588180e-01  -4.35671820e-01
C     4.910870638650000e+00   4.131088947495510e+00   1.215557120000000e-01 -4.17414470e-01  -1.09466660e+00  -3.32515320e-01
C     6.123377874075000e+00   4.815577372466461e+00   2.311825920000000e-01  1.39343495e+00   1.21914926e+00   3.62583300e-02
C     6.243576241050000e+00   5.135151825000397e+00   3.427729992000000e+00  4.51013890e-01   1.69983959e+00  -2.77362330e-01
C     7.467824739825000e+00   5.837371846793488e+00   3.341054472000000e+00  5.84208100e-01   2.57199042e+00   6.24799940e-01
C     7.370098335824999e+00   4.107972202366633e+00   3.062592160000000e-01  1.21066721e+00   1.84085240e-01  -2.42866165e+00
C     8.639390777925000e+00   4.825868758677166e+00   3.656346400000000e-02 -1.93252619e+00   5.13689410e-01   1.54768630e+00
C     8.711422588874999e+00   5.176153612969739e+00   3.444434872000000e+00  5.89647200e-02  -1.36085421e+00  -6.87216070e-01
C     9.930396419025000e+00   5.873152307372150e+00   3.564370552000000e+00  1.16769076e+00   3.40859120e-01  -8.06670500e-02
C     7.420708865400000e+00   1.169665970440968e-01   6.946701976000000e+00  4.99096850e-01  -1.95088570e-01  -4.05046580e-01
C     1.244423500800000e+00   8.405187534707964e-01   6.793364016000000e+00  8.52303440e-01  -1.05105594e+00   1.91895440e-01
C     1.135271636925000e+00   5.624756569886454e-01   1.010073292000000e+01 -3.13120950e-01  -1.76517570e-01   7.21620500e-01
C     2.343529446525000e+00   1.267188664238898e+00   9.939570200000000e+00  1.19486635e+00   1.34619580e-01   7.34169700e-01
C     2.500764524775000e+00   1.187430741318822e-01   6.805366560000000e+00 -6.22976340e-01   6.58020750e-01   5.41845100e-02
C     3.722553483525000e+00   8.244094192071738e-01   6.788257216000000e+00  5.58335700e-01   4.66325660e-01  -1.29445280e-01
C     3.591991171950000e+00   5.467492973450508e-01   1.007176981600000e+01  7.59869850e-01   7.80853360e-01  -4.90660210e-01
C     4.884981926850000e+00   1.283517408376804e+00   1.007176764000000e+01 -3.21247997e+00  -9.75457910e-01   7.84989840e-01
C     4.966113248325000e+00   1.056644268153474e-01   6.906740416000000e+00 -6.19823200e-02   1.19392241e+00   4.87978100e-02
C     6.217450371600000e+00   8.203623765377041e-01   6.962271392000000e+00 -1.50535817e+00   1.23771999e+00  -1.02650810e+00
C     6.055574006474999e+00   5.686368092202798e-01   1.026723540800000e+01  9.90781580e-01  -6.18864960e-01  -4.45429600e-01
C     7.300166076299999e+00   1.268130282272053e+00   1.025279288800000e+01  2.52570870e-01   2.21321010e-01  -9.02776220e-01
C     8.662534095974999e+00   2.233239837726698e+00   6.706030256000000e+00 -6.84344900e-01   1.55777897e+00  -9.34014700e-02
C     2.507256188550000e+00   2.951891391996347e+00   6.610498008000000e+00 -1.02369227e+00   1.12120926e+00   1.60904785e+00
C     2.355759704250000e+00   2.703944272773744e+00   9.889513224000000e+00  2.54507050e-01  -2.02653800e-02   9.00638800e-01
C     3.595357228049999e+00   3.415611279378699e+00   9.937596296000001e+00  3.31338120e-01  -7.03415800e-01   8.23963710e-01
C     3.723507845250000e+00   2.266083625863658e+00   6.685608768000000e+00  1.70909360e-01  -1.67609754e+00   5.92372500e-02
C     4.954996455750000e+00   2.942028450636475e+00   6.742540136000000e+00 -9.47196300e-02   1.90864473e+00   3.66812070e-01
C     4.832936915174999e+00   2.689551920042387e+00   1.007746916800000e+01 -3.46971030e-01   2.76855850e-01  -3.10516390e-01
C     6.032297985149999e+00   3.381604285886627e+00   1.022640208800000e+01  1.90558294e+00   1.65057072e+00  -6.63137030e-01
C     6.182480082150000e+00   2.280264830213370e+00   6.807197120000000e+00  9.60796780e-01  -1.90381883e+00   4.26347100e-01
C     7.413137161874999e+00   2.995779322812877e+00   6.771030231999999e+00  5.56572240e-01  -2.07683477e+00   1.13479190e-01
C     7.305933251925000e+00   2.687354491085464e+00   1.017789374400000e+01 -5.14940860e-01   5.49939060e-01   4.67446660e-01
C     8.551916654024998e+00   3.431892247752969e+00   1.009546523200000e+01 -9.17901680e-01  -1.82780742e+00  -5.36676200e-01
C     9.888694461075000e+00   4.394893073222052e+00   6.853726392000000e+00 -3.57813590e-01  -1.07778539e+00  -1.02771443e+00
C     3.712991378775000e+00   5.088942863050247e+00   6.891546768000000e+00  7.15225090e-01   3.53981820e-01   6.21859300e-02
C     3.619675722525000e+00   4.808986494532420e+00   1.011829500800000e+01 -1.31842641e+00   1.36813277e+00   4.28924480e-01
C     4.855335223949999e+00   5.544320884357055e+00   1.020466289600000e+01 -1.29417196e+00   1.46282140e-01  -7.53529820e-01
C     4.948227516449999e+00   4.382632441761975e+00   6.826921880000000e+00  5.99064210e-01   8.71681900e-02  -1.44685360e-01
C     6.200373985500000e+00   5.118534697131055e+00   6.867039976000000e+00 -1.00297368e+00  -1.48053597e+00  -3.30749450e-01
C     6.060178244399999e+00   4.854156429687364e+00   1.018685968000000e+01  1.47863040e-01  -2.25683134e+00   3.53500080e-01
C     7.284868224674999e+00   5.532008762663783e+00   1.018052425600000e+01  9.82758030e-01   7.46694130e-01  -2.56925050e-01
C     7.413062805149999e+00   4.374371717633518e+00   6.838757960000001e+00  7.23331100e-01   2.12861888e+00  -6.64140500e-02
C     8.660809323149998e+00   5.111840326389998e+00   6.891263072000000e+00 -4.55432530e-01  -1.28031287e+00  -1.37926720e-01
C     8.548947228750000e+00   4.825385941677101e+00   1.015262440000000e+01 -1.60199770e+00   6.81362370e-01   3.70100380e-01
C     9.729431747774999e+00   5.539781610428467e+00   1.022092428000000e+01  2.70402589e+00   7.18061000e-03  -5.19125540e-01
