26
Lattice="8.88768389401873 1.33226762955019e-15 0 4.44384194700937 7.69696003302603 0 0 0 30 " PBC="1 1 1" Properties=species:S:1:pos:R:3:force:R:3 Energy="-204.47723514"
C     1.238175372120554e+01   6.579239667736325e+00  -1.171769999999839e-02  1.94694809e+00   6.24030717e+00  -9.10095500e-02
C     8.728818588750181e+00   6.337118551221423e+00   6.285510000000000e-02 -2.28398849e+00  -2.28428562e+00  -9.75611740e-01
C     1.002333258840038e+01   5.912396140407607e+00   5.171550000000000e-02  1.28638075e+00   3.44807643e+00   1.66014781e+00
C     1.037540614206611e+01   4.642485865649951e+00   2.457999000000000e-01  7.93606660e-01  -3.80796143e+00  -9.94640210e-01
C     6.284708584906188e+00   5.806125829635004e+00  -1.695446999999994e-01  1.13783382e+00   1.83994280e-01   1.40239027e+00
C     7.701885020538194e+00   5.351825309909103e+00   1.503600000000000e-03 -3.53359685e+00   1.83959140e-01  -4.06911500e-01
C     7.927670318599423e+00   3.953041677615543e+00   8.027490000000001e-02  3.78295448e+00   7.48920750e-01  -3.74061520e-01
C     9.413956006652278e+00   3.626836660644913e+00   1.731957000000000e-01 -3.40404989e+00  -2.27615796e+00  -1.40388620e-01
C     9.713447622643674e+00   2.193057183213353e+00   5.206890000000000e-02  2.83487250e+00   5.54087181e+00  -5.22518310e-01
C     3.834435861081519e+00   5.319240691439699e+00  -1.407509999999945e-02  2.24343312e+00  -5.22462673e+00   1.19316457e+00
C     5.195650506286645e+00   4.878976117115705e+00   3.263970000000000e-02  2.28860752e+00  -1.52880899e+00  -1.38785785e+00
C     5.552347744045437e+00   3.400541263647694e+00   6.001110000000000e-02  9.32470910e-01   6.79736970e-01   8.16689990e-01
C     6.935991926010246e+00   2.953236356953860e+00  -3.639539999999997e-02  4.82628270e-01  -5.76929320e-01   4.21972910e-01
C     7.385211686186520e+00   1.512092582104797e+00  -9.089849999999799e-02 -4.55893480e+00   3.69287647e+00   2.43056515e+00
C     8.764736426805820e+00   1.276464236223201e+00  -8.827110000000005e-02 -3.55623349e+00  -2.53522505e+00   2.07840800e-01
C     2.858354109436143e+00   4.308036172973585e+00   1.649226000000000e-01  3.99703000e-02  -1.70673430e+00  -1.45790130e+00
C     3.187950888239946e+00   2.949148116633925e+00  -1.135052999999999e-01  1.01493669e+00  -3.31044681e+00   3.42793011e+00
C     4.583134661139147e+00   2.386839851347849e+00   2.527188000000000e-01 -2.30332159e+00   1.61618777e+00  -3.62546178e+00
C     4.931044423687013e+00   9.749314397807343e-01   1.374006000000000e-01 -1.08967665e+00   2.20415388e+00   6.52363510e-01
C     6.241345971774103e+00   6.052142762469089e-01   2.560248000000000e-01  4.72484781e+00  -8.44974290e-01  -2.66509590e+00
C     1.101620699660992e+01   6.911105721839420e+00   1.109079000000000e-01  8.03811100e-01   1.63485834e+00  -3.14732700e-02
C     2.178817751018314e+00   1.874239785449117e+00  -1.272978000000009e-01  2.60149458e+00   5.28611510e-01  -4.71746820e-01
C     2.613303375572493e+00   5.039159707448844e-01  -3.307634999999998e-01  1.06748162e+00  -4.38964840e-01   2.10349839e+00
C     8.437890167230492e+00   7.648562853814565e+00  -7.022339999999971e-02 -3.42292975e+00   4.94835131e+00  -5.67731070e-01
C     4.678443742485754e+00   7.656666290303749e+00  -9.355770000000163e-02 -2.02512002e+00  -4.08343617e+00  -3.53555710e-01
C     6.038074957960740e+00   7.265203983171569e+00  -2.110434000000012e-01 -1.80442669e+00  -3.03235430e+00  -2.50598340e-01
