26
Lattice="8.88768389401873 1.33226762955019e-15 0 4.44384194700937 7.69696003302603 0 0 0 30 " PBC="1 1 1" Properties=species:S:1:pos:R:3:force:R:3 Energy="-206.75240306"
C     1.280151574316813e+01   7.011687671271453e+00  -3.449586000000018e-01 -1.33225400e+00  -1.04012898e+00  -4.32440280e-01
C     9.070777337152414e+00   6.823941959797287e+00  -4.848324000000019e-01 -1.65516560e+00   2.61745883e+00   2.33256637e+00
C     1.042206359517107e+01   6.458533631457856e+00  -5.855034000000003e-01 -1.34146668e+00  -2.45141423e+00  -1.01905687e+00
C     1.077265526077260e+01   5.048834786206553e+00  -6.187595999999971e-01 -1.59033907e+00   7.34363930e-01   5.47750690e-01
C     6.700875360980701e+00   6.237210547609617e+00  -2.932050000000075e-02 -2.71122568e+00   7.55453090e-01  -2.63464500e-02
C     8.028020136580263e+00   5.896520159740929e+00  -2.829566999999997e-01  1.46206821e+00  -1.86303636e+00  -1.08906894e+00
C     8.407982264578807e+00   4.520726038573774e+00  -4.814639999999990e-01 -1.93465413e+00  -1.94957150e+00   9.28090650e-01
C     9.733874943192564e+00   4.057836250241595e+00  -4.211810999999983e-01  1.00208365e+00   2.08521958e+00  -1.14358375e+00
C     1.007113663835131e+01   2.721314790053113e+00  -2.552868000000004e-01 -2.92945470e-01  -3.16603861e+00   1.44598638e+00
C     4.257864674683518e+00   5.593006473665140e+00  -3.529571999999987e-01  2.93776180e-01   2.05128204e+00  -6.22077190e-01
C     5.650143819311358e+00   5.244905298740367e+00  -1.914677999999981e-01  1.77594750e-01  -1.67452049e+00  -9.70526180e-01
C     6.006181102153702e+00   3.844677485836379e+00  -4.530387000000005e-01 -4.89738850e-01  -1.32408020e-01   3.11516040e-01
C     7.407413343996136e+00   3.452185787269786e+00  -5.131161000000013e-01 -1.48111589e+00   1.86379279e+00   5.21070920e-01
C     7.737291506863619e+00   2.080555259661261e+00  -4.524858000000016e-01 -1.42946070e+00  -1.16563971e+00   2.34296300e-01
C     9.046779120841205e+00   1.681807933799886e+00  -1.291970999999990e-01 -6.58331500e-02   1.12042909e+00  -1.48845617e+00
C     3.203460253244526e+00   4.656601705496970e+00  -6.461193000000023e-01  2.47030488e+00  -2.02269912e+00   2.47378730e+00
C     3.542195792975136e+00   3.246780401611590e+00  -3.291965999999995e-01  5.63740810e-01  -1.61638370e-01  -1.33098074e+00
C     4.927028969287369e+00   2.794273119633478e+00  -4.514735999999999e-01  1.88842900e-02   5.82207217e+00   1.11653470e+00
C     5.267149787947718e+00   1.507948230946243e+00  -3.139706999999987e-01  1.61444880e+00  -3.27430878e+00  -1.36427397e+00
C     6.672296387929634e+00   1.057309616924215e+00  -5.364002999999968e-01 -1.32949500e+00   3.63063279e+00   7.91957450e-01
C     1.138850158762949e+01   7.425972773375788e+00  -6.486795000000001e-01  4.12830986e+00  -7.28315710e-01   1.69057910e+00
C     2.526889226138336e+00   2.253839383843860e+00  -1.011233999999988e-01  7.02454580e-01   2.08243655e+00  -9.90461570e-01
C     2.891546940231282e+00   8.769718446309229e-01   6.623400000000001e-03 -1.44847961e+00   1.03132422e+00   4.20524260e-01
C     4.229659162194165e+00   5.434280071804882e-01  -1.991898000000027e-01  2.03507471e+00  -2.66481743e+00  -9.64655490e-01
C     4.241712462878201e-01   2.923473982818657e-01  -2.602770000000021e-02  2.65828658e+00   6.69807400e-02   1.81365490e-01
C     6.286269885515098e+00   7.622536814986725e+00   1.618305000000000e-01 -2.48534700e-02  -1.56690851e+00  -1.55409802e+00
