26
Lattice="8.88768389401873 1.33226762955019e-15 0 4.44384194700937 7.69696003302603 0 0 0 30 " PBC="1 1 1" Properties=species:S:1:pos:R:3:force:R:3 Energy="-207.14680114"
C     1.296446111774724e+01   7.272276565803935e+00  -3.554028000000002e-01  1.82475744e+00   6.66135230e-01  -8.15526960e-01
C     9.232924197797828e+00   7.123622713717335e+00  -3.547425000000004e-01  7.79649650e-01  -1.31808416e+00   4.39304970e-01
C     1.060997696233506e+01   6.698151850510203e+00  -7.769940000000020e-02 -8.70828860e-01   6.35865180e-01  -9.77295610e-01
C     1.095068334598831e+01   5.319172573343434e+00  -1.420301999999971e-01 -1.97084580e-01  -3.66578200e-01   1.18928660e-01
C     6.897635839791895e+00   6.529409548502105e+00  -7.552386000000020e-01 -1.57152208e+00  -3.08935877e+00   1.34373440e+00
C     8.222984325551549e+00   6.113443045479217e+00  -4.626242999999981e-01  5.84938340e-01   1.77844096e+00  -4.71987390e-01
C     8.599893489720111e+00   4.775597015439171e+00  -3.146123999999979e-01 -1.06712902e+00  -1.53113393e+00   1.39181740e-01
C     9.933086334166854e+00   4.373385595746694e+00  -2.757173999999978e-01  2.89371630e-01  -2.37927044e+00  -9.28143790e-01
C     1.024185664770393e+01   2.944124310822345e+00  -6.006725999999993e-01  5.15535480e-01   2.23801616e+00   1.15115376e+00
C     4.440357443498110e+00   5.917458584958539e+00  -3.341022000000002e-01  1.06087530e+00  -3.22376000e+00  -1.94375480e-01
C     5.872436791941809e+00   5.503982972140559e+00  -5.346683999999975e-01 -1.42398704e+00  -5.81841720e-01   7.06592440e-01
C     6.215622794906453e+00   4.039570902272804e+00  -3.348212999999980e-01 -3.35890630e-01   3.35097792e+00  -6.09718100e-01
C     7.637265958366962e+00   3.735337165586210e+00  -2.635772999999979e-01 -2.67966179e+00  -2.07373989e+00  -6.20473090e-01
C     7.913932713402964e+00   2.283534717457202e+00  -2.940857999999977e-01  3.89261880e-01   2.76006788e+00  -5.04713610e-01
C     9.273292232419594e+00   1.950816378969985e+00  -6.062897999999990e-01 -1.90708986e+00  -1.91923353e+00   5.25550960e-01
C     3.379250552914536e+00   4.838480717066669e+00  -1.821219000000021e-01  2.76290583e+00   2.14415045e+00  -7.08848160e-01
C     3.707482094581278e+00   3.456933887973093e+00  -3.665562000000016e-01  2.90085762e+00   2.12054042e+00  -8.40624500e-02
C     5.143698526590544e+00   3.089688603152902e+00  -3.853550999999982e-01 -4.13948400e-02   4.87403080e-01   5.12371580e-01
C     5.523813878261176e+00   1.716699100281480e+00  -3.521514000000003e-01 -2.57388163e+00   1.71976888e+00  -1.26403040e-01
C     6.840325651028887e+00   1.348374701665083e+00  -2.297832000000000e-01  2.23155135e+00  -3.90209710e-01   1.03948400e-02
C     1.162726241641830e+01   7.675566175657414e+00  -1.501859999999979e-01 -1.71218850e-01  -2.38402900e-01  -2.34149590e-01
C     2.708588902462902e+00   2.550423804683041e+00  -6.384095999999992e-01 -9.27209700e-02  -1.90412715e+00  -6.49573620e-01
C     3.073368600014821e+00   1.169836401657204e+00  -8.769567000000009e-01  1.02765305e+00   2.40296510e-01   1.97420961e+00
C     4.469858640372433e+00   7.902201778287959e-01  -5.054151000000005e-01 -1.51538708e+00  -6.88141860e-01  -9.85042060e-01
C     6.789175966330453e-01   5.367084841046978e-01  -7.299432000000010e-01 -3.48527870e-01   5.24463360e-01   8.31955040e-01
C     2.047987532410023e+00   1.618894675845873e-01  -8.919452999999997e-01  4.28967550e-01   1.03775625e+00   1.56934950e-01
