26
Lattice="8.88768389401873 1.33226762955019e-15 0 4.44384194700937 7.69696003302603 0 0 0 30 " PBC="1 1 1" Properties=species:S:1:pos:R:3:force:R:3 Energy="-206.74840979"
C     1.265602009768375e+00   1.606821686160417e+00   3.801116100000000e+00  3.00745512e+00   4.57089880e-01   1.69300190e+00
C     3.745636653340988e+00   1.071580396576637e+00   3.711716400000000e+00 -2.18933489e+00  -1.41122443e+00   2.00519665e+00
C     5.080368489643185e+00   1.459171440692129e+00   3.667661100000000e+00  1.46275442e+00  -3.62323080e-01  -7.63000400e-02
C     6.129855709829521e+00   4.502885562798639e-01   3.593927100000000e+00 -3.65109020e-01   1.97523055e+00  -1.09515306e+00
C     7.474429856190770e+00   9.031946177571298e-01   3.516405900000000e+00  8.75497150e-01  -2.77109690e-01   9.45502120e-01
C     1.291196152477187e+01   7.582123002714006e+00   3.561157200000000e+00  1.03701955e+00  -9.81695830e-01   1.25805080e+00
C     9.847965251283916e-01   2.154854784526854e-01   3.783449700000000e+00 -1.92356232e+00   2.11957353e+00  -5.50171800e-01
C     6.484285793535566e+00   7.024032594554769e+00   3.897000000000000e+00 -3.11576040e-01  -3.79816332e+00  -1.96968570e-01
C     7.859863380765963e+00   7.314727378548594e+00   3.805821300000000e+00 -2.68839080e-01   4.83529959e+00  -4.99417660e-01
C     8.879800207480303e+00   6.403360821358012e+00   3.631694700000000e+00  6.01337420e-01   2.13690748e+00  -4.76073550e-01
C     1.026129352604794e+01   6.791365807983917e+00   3.450630600000000e+00 -2.55680589e+00  -2.21546070e-01   4.41969990e-01
C     1.119761062325491e+01   5.777290939183415e+00   3.369854100000000e+00  2.36049590e+00   6.42185000e-03   2.17414984e+00
C     3.634079648324378e+00   6.202902656759098e+00   3.661083900000000e+00  2.27547128e+00  -3.97296310e-01  -1.46334255e+00
C     4.706596501707239e+00   5.218672134718119e+00   3.818733600000000e+00  1.31483952e+00   1.86842680e-01  -3.03526540e-01
C     6.125173459109815e+00   5.600545030257724e+00   3.920645400000000e+00 -9.37981110e-01   1.09034775e+00  -1.54946350e-01
C     7.205154944898510e+00   4.649996328338424e+00   3.877329300000000e+00 -4.27445378e+00  -8.91594100e-02  -1.27075188e+00
C     8.463748926310153e+00   5.129015712170270e+00   3.626540700000000e+00  3.92997480e+00  -5.92703186e+00   1.20905781e+00
C     9.529395911067049e+00   4.071001284616107e+00   3.702758700000000e+00  1.39815790e-01  -1.13206851e+00   3.28332810e-01
C     1.093255918045976e+01   4.404327836884896e+00   3.646554600000000e+00 -2.92083268e+00   6.27794930e-01  -1.43472897e+00
C     3.028521970707973e+00   3.423844810743323e+00   3.658261500000000e+00  1.13627322e+00  -1.79346906e+00   2.32961330e+00
C     4.441642067962756e+00   3.816474053985652e+00   3.724156500000000e+00 -2.31469100e+00   5.39821230e-01  -2.99340500e-02
C     5.445820497835615e+00   2.838178426915005e+00   3.719488200000000e+00  9.25804960e-01   4.33068660e-01  -3.76778410e-01
C     6.814948515156104e+00   3.278144744037837e+00   3.679356600000000e+00  1.36994735e+00  -1.14176019e+00   1.38360713e+00
C     7.875559827135161e+00   2.277696650244048e+00   3.695718000000000e+00 -3.08503928e+00  -1.94973850e-01  -4.77775620e-01
C     9.206226614556041e+00   2.628790865046087e+00   3.874136099999999e+00 -4.19615060e-01   2.42775718e+00  -1.73604295e+00
C     2.656960524151307e+00   2.014312219828669e+00   3.976269600000000e+00  1.13115369e+00   8.91666280e-01  -3.62657034e+00
