26
Lattice="8.88768389401873 1.33226762955019e-15 0 4.44384194700937 7.69696003302603 0 0 0 30 " PBC="1 1 1" Properties=species:S:1:pos:R:3:force:R:3 Energy="-205.16880781"
C     4.266755425940556e+00   7.311117042476922e+00  -3.419498999999995e-01 -2.23595033e+00   2.02076031e+00  -4.61371320e-01
C     9.343844314844205e+00   7.314475226138011e+00  -3.020370000000021e-01 -3.37351900e-02  -5.53874555e+00  -2.54339783e+00
C     1.065835431455189e+01   6.919246257675949e+00  -7.522691999999971e-01  5.63013400e-02  -4.80345909e+00   1.66154666e+00
C     1.101891253992989e+01   5.415743021147031e+00  -7.557179999999981e-01  1.44627652e+00   1.73955694e+00   1.69302156e+00
C     6.948884580347544e+00   6.544308784940977e+00  -6.159389999999831e-02  1.84208040e-01   4.13615956e+00  -1.32784207e+00
C     8.331485837173442e+00   6.292752119064500e+00  -3.309171000000006e-01 -8.65487800e-02  -2.00864510e+00   1.55971642e+00
C     8.696357922193721e+00   4.903427819739010e+00  -4.054043999999983e-01 -9.95695490e-01  -9.96628910e-01  -9.04901880e-01
C     1.003019534589147e+01   4.465639434426267e+00  -5.837094000000000e-01 -3.14827360e-01  -1.14629772e+00   1.30786964e+00
C     1.036927928282572e+01   3.048344074473356e+00  -2.284469999999992e-01 -4.40043840e-01   2.32325660e+00  -9.69141510e-01
C     4.610521883615269e+00   5.962485416286038e+00  -5.146325999999988e-01 -1.72798196e+00   2.50447700e-01   1.52769713e+00
C     5.953061460876314e+00   5.639373037855461e+00  -3.730602000000012e-01  9.84315440e-01  -3.80400268e+00   4.42028820e-01
C     6.337994203788229e+00   4.177696698491169e+00  -4.437422999999967e-01 -1.48131578e+00   3.95146192e+00   4.85716970e-01
C     7.672328982342694e+00   3.841856703924585e+00  -4.038710999999999e-01  7.81621510e-01   3.54291475e+00  -3.01767360e-01
C     7.956490188036114e+00   2.534777886151658e+00  -4.536051000000008e-01  2.57818877e+00  -4.78318820e+00   1.41891470e-01
C     9.371375467650372e+00   2.099340460310479e+00  -2.639235000000006e-01 -2.52232622e+00  -1.99828003e+00   1.07294186e+00
C     3.517349740523093e+00   4.976264691290102e+00  -4.516485000000010e-01  7.74517200e-02   2.25856453e+00  -2.63214249e+00
C     3.884783167196565e+00   3.637636727080608e+00  -3.730907999999999e-01  2.67779070e-01  -7.44534850e-01   1.67857739e+00
C     5.324907336054584e+00   3.264228794242797e+00  -3.665808000000013e-01 -3.65484236e+00  -2.91895777e+00  -1.47475459e+00
C     5.541443532522851e+00   1.807603969746194e+00  -5.613396000000002e-01  1.28736182e+00   3.24923360e+00   1.95884018e+00
C     6.951619095218227e+00   1.510229763838336e+00  -5.802440999999980e-01 -2.19710900e-01  -2.46249562e+00   5.09495760e-01
C     7.286866218970350e+00   2.088269922699330e-02  -5.657412000000015e-01  3.10348225e+00   4.56194090e+00   9.28490000e-02
C     2.818461205984646e+00   2.691368227664392e+00  -5.454300000000245e-02  2.37916639e+00  -1.11746010e+00  -1.17044998e+00
C     3.151180850247890e+00   1.287855044341199e+00   7.110960000000000e-02 -1.60348850e-01   5.10622220e-01  -1.14929817e+00
C     4.493112954250866e+00   8.659343269783026e-01  -2.640336000000012e-01 -8.16325900e-02   5.05059680e+00   5.16728770e-01
C     7.939128055713991e-01   6.530131677292119e-01   7.163100000000000e-03 -3.75541706e+00   1.84025322e+00  -2.46716306e+00
C     2.089487994741247e+00   3.255607814161196e-01   4.996080000000000e-02  4.56422383e+00  -3.11307345e+00   7.53308620e-01
