26
Lattice="8.88768389401873 1.33226762955019e-15 0 4.44384194700937 7.69696003302603 0 0 0 30 " PBC="1 1 1" Properties=species:S:1:pos:R:3:force:R:3 Energy="-207.0478409"
C     1.256227146877143e+01   6.696376007892081e+00   5.926500000000000e-02  2.66527990e-01   4.30837390e-01  -5.36793000e-01
C     8.858679426713927e+00   6.567551603021969e+00  -5.846699999999316e-03 -3.64944997e+00   1.07234770e+00   4.56449900e-01
C     1.015900970450657e+01   6.221569247254253e+00  -2.353416000000017e-01  9.75414250e-01  -4.95219300e+00  -6.35372600e-02
C     1.054489076330385e+01   4.781905905697361e+00  -2.334204000000000e-01 -1.17855039e+00   8.71613620e-01   2.29982520e-01
C     6.401081562598088e+00   5.917686722853828e+00   4.188186000000000e-01  1.13750175e+00   1.57761216e+00  -1.47014468e+00
C     7.788946372419855e+00   5.613322137846724e+00   4.789019999999999e-02  4.12419800e-02  -1.86795057e+00   1.07676666e+00
C     8.181026101944365e+00   4.229954900736453e+00  -6.923100000000204e-02 -1.21552665e+00  -9.59800510e-01  -1.50138360e-01
C     9.547114130864744e+00   3.801774707598759e+00  -8.969429999999790e-02 -1.79640430e+00   7.17363800e-01   1.90249070e-01
C     9.783244870755684e+00   2.446206888907240e+00   1.791402000000000e-01  2.85626139e+00  -2.13520193e+00   1.90979460e-01
C     4.024453253938963e+00   5.324486554548145e+00  -9.171779999999785e-02 -1.18640790e-01   1.15595430e+00   1.69868308e+00
C     5.356927706936663e+00   4.983521231267185e+00   1.935696000000000e-01  1.94153176e+00  -2.93164161e+00  -1.93984171e+00
C     5.772508961196486e+00   3.567309680256098e+00  -1.447442999999993e-01  3.70302510e-01   3.77997470e-01   2.52809439e+00
C     7.180567388647066e+00   3.169322044349685e+00  -1.020606000000015e-01 -1.20505179e+00   1.51817792e+00  -1.80635100e-02
C     7.517941379655753e+00   1.777367770751544e+00  -4.891710000000060e-02 -2.30521030e+00  -7.41714600e-02  -2.24209950e-01
C     8.824231249414737e+00   1.388783741822583e+00   2.156799000000000e-01  1.20680960e-01   3.70161300e-01  -2.39550310e-01
C     2.976523954584104e+00   4.366643135730014e+00  -1.848869999999998e-01  2.16521449e+00  -1.57725391e+00   2.24510700e-01
C     3.351654115460128e+00   2.956911732337785e+00  -4.541700000000759e-03 -4.09830170e-01   5.84984300e-02   1.01163443e+00
C     4.780443465513864e+00   2.534228015327115e+00   5.098020000000000e-02 -2.18702032e+00   3.72983820e+00  -1.90978594e+00
C     5.069699491544301e+00   1.204817622571149e+00  -5.384040000000212e-02  1.16882684e+00  -2.11605682e+00   8.41977300e-01
C     6.467193884592517e+00   7.830456874456322e-01  -1.503602999999991e-01 -7.34595440e-01   7.97272070e-01   3.96825190e-01
C     1.119762493327202e+01   7.079682462237272e+00  -1.830366000000012e-01  2.43531334e+00   3.53028480e+00   6.84375860e-01
C     2.284437297791221e+00   2.003679716212828e+00   2.860602000000000e-01  1.02939098e+00   1.05926325e+00  -1.19113644e+00
C     2.660484489909573e+00   6.225178890599522e-01   3.958608000000000e-01 -1.34599400e-02  -7.25974300e-02   2.49032580e-01
C     4.033373330131530e+00   2.364698545216750e-01   1.842384000000000e-01  3.87992390e-01   2.49754700e-01  -7.50746300e-01
C     4.682191012229971e+00   7.693758787353922e+00   3.555282000000000e-01  9.85607400e-01  -3.74895500e-02  -1.60522030e-01
C     6.084796001304300e+00   7.326918670509711e+00   5.485254000000001e-01 -1.06806798e+00  -7.92620330e-01  -1.12509166e+00
