26
Lattice="8.88768389401873 1.33226762955019e-15 0 4.44384194700937 7.69696003302603 0 0 0 30 " PBC="1 1 1" Properties=species:S:1:pos:R:3:force:R:3 Energy="-205.7760215"
C     1.385971201170031e+00   1.662773813463298e+00   3.927758400000000e+00 -2.06218713e+00   7.83483840e-01  -1.46094759e+00
C     3.743355184875182e+00   1.054271934678775e+00   3.879754500000000e+00  2.05959213e+00   3.62867931e+00  -6.30677220e-01
C     5.104018083228246e+00   1.481962139340959e+00   3.670855200000000e+00 -3.43990090e-01   1.82466432e+00  -6.47886200e-02
C     6.128631164796424e+00   5.322871963242654e-01   3.414409800000000e+00 -8.36953890e-01  -8.99950480e-01   7.78031510e-01
C     7.487810886427026e+00   9.062527739162495e-01   3.413786400000000e+00  3.65808160e-01  -9.95413720e-01   1.34453271e+00
C     1.289953485400355e+01   7.535685703461010e+00   3.617280900000000e+00  1.86357333e+00   2.95726939e+00  -8.59592220e-01
C     9.672779669656002e-01   2.019496815135277e-01   3.759636900000000e+00  2.17247056e+00   2.68700549e+00   1.86499366e+00
C     6.539948691135315e+00   6.982425522568599e+00   3.948642900000000e+00 -2.74174015e+00   8.79251190e-01  -1.17767676e+00
C     7.899469033307431e+00   7.443259991663967e+00   3.812063699999999e+00 -1.74851926e+00  -3.90652678e+00   9.10852670e-01
C     8.924683055595914e+00   6.453684392699755e+00   3.682312800000000e+00 -1.96331149e+00  -1.77909805e+00  -9.74770890e-01
C     1.023024111395114e+01   6.815927423196450e+00   3.449981700000000e+00  1.69441844e+00   5.68620520e-01  -6.76949450e-01
C     1.127093539295103e+01   5.796709214795102e+00   3.323070600000000e+00 -1.25238940e+00   6.42674260e-01   1.45216595e+00
C     3.683807528401748e+00   6.200834560568637e+00   3.535342800000000e+00  2.16423459e+00   1.83148470e-01   3.12686170e-01
C     4.766818025762397e+00   5.289395190136172e+00   3.761739900000000e+00 -2.32272735e+00   1.22611914e+00  -1.03626965e+00
C     6.078988876421456e+00   5.624419306939576e+00   3.931903800000000e+00  2.97735381e+00   1.71244975e+00  -5.51731070e-01
C     7.053214700632053e+00   4.657706911987678e+00   3.782843400000000e+00  5.11267244e+00  -2.00754632e+00  -7.01914810e-01
C     8.559987344829523e+00   5.021446847271005e+00   3.592257300000000e+00 -3.52593929e+00   3.51439176e+00   1.59009135e+00
C     9.600305497141447e+00   4.147330189963212e+00   3.630798900000000e+00  1.22310210e-01  -5.38139815e+00   4.58896350e-01
C     1.098850341775038e+01   4.450984037681145e+00   3.567670800000000e+00  1.22305050e-01  -1.12306467e+00   1.32239290e-01
C     3.217212654566445e+00   3.450192120682816e+00   3.773708700000000e+00 -6.53009227e+00   1.47219938e+00  -9.51367130e-01
C     4.464934643373253e+00   3.973647209311857e+00   3.603272700000000e+00  7.70589880e-01  -3.66207171e+00   1.74291298e+00
C     5.420663464278107e+00   2.957221611948593e+00   3.709621500000000e+00  5.70059900e-01  -3.93901403e+00  -9.04443250e-01
C     6.769310658305471e+00   3.245420887561491e+00   3.677869500000000e+00  8.02055000e-01   1.85754123e+00   3.06475790e-01
C     7.782589409896847e+00   2.253959841268330e+00   3.638701500000000e+00  3.42947725e+00   1.58374580e+00  -2.02522320e-01
C     9.226626915378647e+00   2.696699527029171e+00   3.770630400000000e+00 -2.38284150e-01  -8.40596880e-01  -2.67045860e-01
C     2.780068233170186e+00   2.098922823259251e+00   3.950803500000000e+00 -6.60786260e-01  -9.86563060e-01  -4.33181580e-01
