26
Lattice="8.88768389401873 1.33226762955019e-15 0 4.44384194700937 7.69696003302603 0 0 0 30 " PBC="1 1 1" Properties=species:S:1:pos:R:3:force:R:3 Energy="-207.61202027"
C     7.482602842033627e-01   8.681540532813543e-01   3.360873900000000e+00 -2.58088282e+00   3.67888336e+00   8.78018720e-01
C     3.072246307154415e+00   2.813052624532274e-01   3.444813000000000e+00  1.71979193e+00   3.58571554e+00  -3.15291830e-01
C     4.487834958644824e+00   7.280875455610251e-01   3.438573000000000e+00 -2.27553883e+00   1.41973641e+00   4.46010970e-01
C     9.924633615543932e+00   7.479112970270910e+00   3.573807900000000e+00  1.33347660e+00  -2.79858714e+00  -1.66495991e+00
C     6.876547583690251e+00   1.383993461778312e-01   3.430443900000000e+00 -9.67847900e-01  -1.14580057e+00   1.08161723e+00
C     1.233885558196392e+01   6.812940694826408e+00   3.423920400000000e+00 -2.42498190e+00   9.45604200e-02   4.85916100e-02
C     4.747247258245943e+00   7.269303461053148e+00   3.357550800000000e+00  3.21645637e+00  -3.69378023e+00   4.96144610e-01
C     5.775470428069402e+00   6.221113587220477e+00   3.421171800000000e+00  1.84108313e+00   2.04845391e+00  -8.86155050e-01
C     7.212290289897177e+00   6.655576193073857e+00   3.379092300000000e+00 -2.12774685e+00  -2.77594043e+00   8.28745640e-01
C     8.251999235823769e+00   5.638153608477908e+00   3.425681100000000e+00 -1.53332038e+00   8.54591820e-01  -7.37108570e-01
C     9.575543611150211e+00   6.022084748099134e+00   3.474386700000000e+00  2.30071481e+00   1.57413292e+00   5.84849110e-01
C     1.062143945159484e+01   5.017792099739960e+00   3.457919700000000e+00 -3.55368780e-01   4.91509460e-01   3.69502880e-01
C     1.199316076171980e+01   5.397147242684151e+00   3.475588500000000e+00  4.39175100e-02   1.27336577e+00  -3.10590140e-01
C     4.115918319100611e+00   4.397191369484280e+00   3.453842100000000e+00 -2.19295470e-01   2.77524723e+00  -7.57949620e-01
C     5.479060792409978e+00   4.867723931247848e+00   3.387110700000000e+00 -4.10583390e-01  -1.89406451e+00   1.06472897e+00
C     6.511557693934709e+00   3.859440178204319e+00   3.459769200000000e+00  1.56780999e+00   2.39338088e+00  -2.16933288e+00
C     7.906579711630544e+00   4.287629376785246e+00   3.312096300000000e+00 -1.01553725e+00  -2.09363050e+00   2.08448290e+00
C     8.907792321351289e+00   3.250802371105666e+00   3.450696300000000e+00  7.56954530e-01   1.45827055e+00  -5.43560440e-01
C     1.029403232968517e+01   3.627556018529317e+00   3.469863900000000e+00 -9.42118480e-01   9.58093790e-01  -1.09221541e+00
C     2.415624311772950e+00   2.644112048833804e+00   3.307892400000000e+00 -1.12094352e+00   2.49603572e+00   1.44850493e+00
C     3.737678933551022e+00   3.066945009899456e+00   3.338529600000000e+00  1.22239800e+00   3.34119860e-01   2.82439670e-01
C     4.773633010867862e+00   2.172820028024076e+00   3.379784400000000e+00  2.43855806e+00  -4.03650057e+00  -5.11024370e-01
C     6.192371013083186e+00   2.524919388836433e+00   3.313465500000000e+00 -1.19922787e+00  -1.68595177e+00   2.02238754e+00
C     7.218614717964401e+00   1.497874141780578e+00   3.472737000000000e+00 -7.26682000e-03   1.04359214e+00  -1.34385369e+00
C     8.598157989813441e+00   1.891592120019150e+00   3.451172400000000e+00 -7.93596360e-01  -1.18339933e+00  -3.81603920e-01
C     2.053013074037001e+00   1.349343210145658e+00   3.430628100000000e+00  1.53309569e+00  -5.17203471e+00  -9.22378980e-01
