26
Lattice="8.88768389401873 1.33226762955019e-15 0 4.44384194700937 7.69696003302603 0 0 0 30 " PBC="1 1 1" Properties=species:S:1:pos:R:3:force:R:3 Energy="-206.96634017"
C     8.471371451043951e-02   9.201538685784309e-02   3.320492100000000e+00 -1.57225770e+00  -1.10707602e+00   1.11194908e+00
C     6.857261447558095e+00   7.210189884387543e+00   3.760309200000000e+00  1.84001118e+00  -2.23695938e+00  -7.20613010e-01
C     8.256728151510995e+00   7.610813575165031e+00   3.751661700000000e+00  1.15020379e+00  -1.08640167e+00  -4.25562190e-01
C     9.359506235368002e+00   6.597763171744523e+00   3.663458700000000e+00 -2.58559777e+00   1.20845963e+00   1.10925685e+00
C     1.068498310427298e+01   7.030816695125210e+00   3.454187700000000e+00  2.90332410e-01   8.25051400e-02  -2.32854520e-01
C     1.165752897842555e+01   5.988460424268879e+00   3.350233200000000e+00 -2.88429700e-01   4.20771270e-01  -1.58441420e-01
C     4.143673535065480e+00   6.336893415140546e+00   3.231671400000000e+00  1.23067569e+00   2.79078920e+00   4.20707890e-01
C     5.211587545888790e+00   5.430003640812214e+00   3.272737800000000e+00 -2.65232870e-01  -2.80555520e+00   3.44049490e-01
C     6.572610306493341e+00   5.751139132028685e+00   3.557480100000000e+00 -2.03004670e+00   4.78654687e+00   6.90623790e-01
C     7.575191797394028e+00   4.879343569987538e+00   3.813468000000000e+00  2.06514317e+00  -3.30021859e+00  -1.31783780e+00
C     8.971138045297208e+00   5.245374736332597e+00   3.902807399999999e+00  2.78334480e-01  -5.44463050e-01  -1.47619984e+00
C     9.965891664055178e+00   4.191653596113568e+00   3.733695600000000e+00 -1.49097523e+00   1.21287800e+00   6.68977520e-01
C     1.125230262954186e+01   4.620150365217295e+00   3.447930600000000e+00  4.11688092e+00  -4.23192360e-01  -5.70325700e-02
C     3.504369455101163e+00   3.661218904129323e+00   3.365777100000000e+00 -3.44412377e+00  -1.40573160e+00   8.42989080e-01
C     4.854192445283381e+00   3.971933712069978e+00   3.249467100000000e+00 -8.63715800e-01   4.98188029e+00   3.55764000e-02
C     5.858723716268058e+00   3.088133509348441e+00   3.279742500000000e+00  3.74550581e+00  -2.96757296e+00   6.93211070e-01
C     7.295661162124984e+00   3.478397553743151e+00   3.504370800000000e+00 -3.15082896e+00   7.11230970e-01   5.20083560e-01
C     8.248242409790441e+00   2.477741949906953e+00   3.578067000000000e+00  1.68226726e+00  -1.05845299e+00  -3.82468000e-02
C     9.610214819434818e+00   2.823784649841304e+00   3.783403499999999e+00  1.99622369e+00  -4.44373940e-01  -1.20968816e+00
C     1.837450967093880e+00   1.837385201433471e+00   3.679464300000000e+00 -4.36032218e+00   8.58770360e-01   9.70571910e-01
C     3.139640771055022e+00   2.271286160113462e+00   3.617353800000000e+00  2.87975232e+00   1.13658360e-01  -8.57285720e-01
C     4.217609196409023e+00   1.269002649230919e+00   3.600904800000000e+00 -1.97967311e+00   4.72342880e-01  -3.32864180e-01
C     5.552768441432400e+00   1.661076094989481e+00   3.333050700000000e+00 -5.47679580e-01   2.19297076e+00   7.11679760e-01
C     6.584869307831108e+00   7.576487981306442e-01   3.344318700000000e+00  5.02426430e-01  -3.51194444e+00  -1.86045660e-01
C     7.958615498947811e+00   1.092494268491752e+00   3.345021300000000e+00 -4.29857540e-01   3.04542860e-01   1.59413210e-01
C     1.396790266864184e+00   4.589957423138014e-01   3.691703400000000e+00  1.23098376e+00   7.54595600e-01  -1.26641775e+00
