26
Lattice="8.88768389401873 1.33226762955019e-15 0 4.44384194700937 7.69696003302603 0 0 0 30 " PBC="1 1 1" Properties=species:S:1:pos:R:3:force:R:3 Energy="-207.68099463"
C     1.223500455070264e+01   6.272143431614573e+00  -2.862518999999999e-01 -1.32286196e+00   9.33334870e-01  -4.00823720e-01
C     8.399287755498122e+00   6.060064088883964e+00  -5.397737999999990e-01  1.72801200e+00   4.67179940e-01   1.86678233e+00
C     9.820931585483095e+00   5.676046512401601e+00  -3.586248000000012e-01 -3.69042700e-01   1.65573913e+00  -2.01718848e+00
C     1.017567233301378e+01   4.297707776248529e+00  -3.671511000000010e-01 -1.68867947e+00  -6.79713500e-02   7.62067590e-01
C     6.070111857654569e+00   5.474242688280642e+00  -2.353346999999992e-01 -2.33421594e+00  -9.81639740e-01   5.93021500e-02
C     7.364917951015271e+00   5.017906014748404e+00  -3.231506999999993e-01  2.50211311e+00   4.26143302e+00  -1.31585985e+00
C     7.746267624264704e+00   3.706738033020340e+00  -3.475569000000007e-01  2.27274380e-01  -1.57242927e+00   1.49440866e+00
C     9.101119087796846e+00   3.338026939132036e+00  -2.427966000000019e-01  1.62629102e+00  -2.47305725e+00  -1.72460364e+00
C     9.472433054916511e+00   1.854908254576970e+00  -3.270074999999970e-01 -1.38120837e+00   4.66989199e+00   1.16628607e+00
C     3.671031037581275e+00   4.900967332526220e+00  -2.446826999999985e-01 -1.10406528e+00  -1.17859387e+00  -1.43016750e-01
C     5.012622565554306e+00   4.504786019199646e+00  -1.205961000000002e-01  7.38341730e-01   2.51672590e-01  -6.69669060e-01
C     5.369308560465356e+00   3.137770434885908e+00  -1.680413999999999e-01 -1.90721415e+00  -9.99192200e-02  -4.60196660e-01
C     6.701993251596940e+00   2.752880484953744e+00  -2.336832000000015e-01  1.06693594e+00  -2.01718864e+00  -3.09143370e-01
C     7.021693860990020e+00   1.348234463053336e+00  -2.801378999999997e-01  1.43767623e+00   7.86735050e-01   1.93998070e-01
C     8.422900150782777e+00   9.361630836232291e-01  -2.563791000000002e-01 -8.32000490e-01  -2.82486630e-01  -5.75690980e-01
C     2.624459909607429e+00   3.892881314385860e+00  -3.547356000000015e-01  1.34588313e+00  -3.99266880e-01   1.23428221e+00
C     2.962031562687199e+00   2.472246936202335e+00  -2.376885000000009e-01 -2.28485510e-01   2.89118466e+00  -1.22459248e+00
C     4.313966843854981e+00   2.157732831821272e+00  -3.037145999999993e-01  1.77478418e+00  -9.43164860e-01   1.33804114e+00
C     4.695964073706002e+00   7.747699160213762e-01  -3.160565999999996e-01 -2.75789442e+00   1.18548810e-01  -1.34900660e+00
C     6.001014467061609e+00   3.737511402855484e-01  -3.548547000000006e-01  3.19005394e+00  -4.28726960e-01   3.92078300e-02
C     1.088777885331421e+01   6.719115906604713e+00  -4.531448999999981e-01 -2.53801025e+00  -2.45258811e+00   1.47367461e+00
C     1.939143934837295e+00   1.525190345048647e+00  -3.133464000000004e-01 -8.51555910e-01  -1.74341429e+00  -5.13601920e-01
C     2.213748125114174e+00   1.368541044822084e-01  -4.614077999999999e-01  4.02143606e+00   5.20768130e-01   5.07179150e-01
C     8.114774019914385e+00   7.507506901882379e+00  -5.184171000000006e-01 -2.35249822e+00  -2.57075008e+00   6.47144710e-01
C     4.337755044174084e+00   7.266332126603166e+00  -2.475167999999996e-01  5.53399040e-01  -1.05088230e+00  -3.16833470e-01
C     5.702620527725830e+00   6.820994562892999e+00  -3.398070000000004e-01 -5.44468100e-01   1.70559125e+00   2.37852470e-01
