26
Lattice="8.88768389401873 1.33226762955019e-15 0 4.44384194700937 7.69696003302603 0 0 0 30 " PBC="1 1 1" Properties=species:S:1:pos:R:3:force:R:3 Energy="-207.61083603"
C     7.169215109543301e-01   9.276630997532992e-01   3.383528400000000e+00 -2.21123697e+00  -3.64524866e+00  -3.88838960e-01
C     3.020168079075612e+00   2.884191777609549e-01   3.570189900000000e+00  2.78501527e+00  -6.34119410e-01  -5.34798390e-01
C     4.429329557489317e+00   6.840480032965747e-01   3.584873400000000e+00 -9.36937300e-02  -1.95368756e+00   9.30900540e-01
C     9.907390353284258e+00   7.303363201912300e+00   3.709480500000000e+00 -1.46465952e+00   3.80394484e+00  -5.67833320e-01
C     6.834235675875986e+00   6.111193839819250e-02   3.557141700000000e+00 -1.53862024e+00  -1.42423900e-01   5.88705860e-01
C     1.231503334516092e+01   6.854228496910533e+00   3.527912700000000e+00  1.23197303e+00  -2.90017292e+00  -9.86538350e-01
C     4.786466785242310e+00   7.215418660244723e+00   3.348573600000000e+00  5.26420700e-01   1.04427731e+00   5.86239700e-01
C     5.805914522675705e+00   6.247895698432065e+00   3.330293700000000e+00  4.27801370e-01  -2.60612551e+00  -6.51538750e-01
C     7.190229414204947e+00   6.569785799609877e+00   3.466412400000000e+00 -1.26454955e+00   1.54483836e+00   1.22981476e+00
C     8.172072783379814e+00   5.570731856186322e+00   3.739390200000000e+00 -1.66636336e+00   3.98027160e-01  -1.87964495e+00
C     9.481611990881911e+00   5.971744166475725e+00   3.812744100000000e+00  4.15608868e+00   2.27476500e-02  -2.57415230e-01
C     1.058937131054463e+01   5.042292831998656e+00   3.707766000000000e+00  1.18166960e-01  -9.06626250e-01  -5.96303160e-01
C     1.199604419303765e+01   5.448597264126285e+00   3.497341500000000e+00 -1.51464075e+00  -1.50593134e+00   6.54667360e-01
C     4.090578243602145e+00   4.375774347292005e+00   3.329133300000000e+00  6.24635740e-01   2.26073155e+00  -2.22335620e-01
C     5.503275376013230e+00   4.818628409878891e+00   3.179392800000000e+00 -1.78178597e+00  -4.18049220e-01   1.38154110e+00
C     6.509676793355748e+00   3.801990530358001e+00   3.247330500000000e+00 -9.11400620e-01   3.94823090e-01   2.94960540e-01
C     7.860130942479498e+00   4.220590933103155e+00   3.463087500000000e+00 -8.26490740e-01  -1.30690444e+00   3.60069400e-01
C     8.851549591210123e+00   3.224010253846040e+00   3.490423800000000e+00  6.73243090e-01  -4.02448510e-01  -4.94714580e-01
C     1.021769521287368e+01   3.644912509457767e+00   3.591504900000000e+00  2.83655370e-01   1.69185820e-01   1.41694540e-01
C     2.325715523895941e+00   2.643279237758558e+00   3.541992000000000e+00  2.25470523e+00   9.34558450e-01  -6.16804780e-01
C     3.722693676330573e+00   2.999156959280042e+00   3.404728800000000e+00 -4.24577320e-01   1.64322534e+00   8.36882070e-01
C     4.778022015734892e+00   2.067575029297068e+00   3.512720700000000e+00 -1.41162339e+00  -1.90714126e+00  -1.02141526e+00
C     6.103066320998600e+00   2.398503901546911e+00   3.339198300000000e+00  3.44233992e+00   1.58891216e+00   3.65938480e-01
C     7.178211218069356e+00   1.414337187304581e+00   3.431207400000000e+00 -1.31818111e+00   1.08858917e+00  -8.24647030e-01
C     8.548103176221293e+00   1.796858705665913e+00   3.304113900000000e+00 -1.16167408e+00   3.52391624e+00   1.40068888e+00
C     2.025480495770915e+00   1.283597701809405e+00   3.478720500000000e+00  1.06545196e+00  -8.88981700e-02   2.70725170e-01
