26
Lattice="8.88768389401873 1.33226762955019e-15 0 4.44384194700937 7.69696003302603 0 0 0 30 " PBC="1 1 1" Properties=species:S:1:pos:R:3:force:R:3 Energy="-205.99811448"
C     4.431121141293339e+00   7.588950822017419e+00  -1.029863999999989e-01  3.22020100e-01   4.04092901e+00   5.19058840e-01
C     9.469219760926629e+00   7.523147663450541e+00  -5.530320000000088e-02  2.56244196e+00  -1.22989113e+00   5.13985240e-01
C     1.091935750542696e+01   7.083735065632268e+00   1.140834000000000e-01 -1.21990956e+00   1.18763796e+00  -5.10638980e-01
C     1.119164734281584e+01   5.690730003050832e+00   1.428423000000000e-01  4.67014337e+00   2.45960959e+00  -6.54551070e-01
C     7.154726938972534e+00   6.883920597800662e+00  -1.419587999999976e-01 -3.94118750e-01  -1.48837249e+00   1.87417510e-01
C     8.471021274535900e+00   6.487921702426800e+00  -9.615090000000137e-02  2.64582004e+00   3.28408660e-01   2.57542900e-02
C     8.861422387209048e+00   5.112163064245385e+00  -5.019120000000044e-02 -1.97639200e-02   5.76390400e-01   1.08975650e-01
C     1.024509252128083e+01   4.772637611277236e+00   5.683230000000000e-02 -3.32835858e+00  -3.28450214e+00  -5.36970740e-01
C     1.060523604741362e+01   3.400131092647696e+00  -3.673530000000014e-02 -2.30695066e+00  -2.99504787e+00  -5.90040130e-01
C     4.815025623749495e+00   6.330311744618894e+00   3.838170000000000e-02 -3.16708150e-01  -7.46501345e+00  -3.10851080e-01
C     6.208994539200376e+00   5.864375268598040e+00   5.230200000000000e-03 -3.04819712e+00  -6.16027490e-01  -3.79661160e-01
C     6.498835019229824e+00   4.390886404675706e+00   2.518680000000000e-02  1.81071962e+00   6.58690179e+00  -5.38343220e-01
C     7.889358135308863e+00   4.095409191536842e+00  -8.698319999999882e-02 -1.38542725e+00  -3.56958320e-01   1.06267911e+00
C     8.162220472872139e+00   2.727976124111076e+00  -1.468530000000001e-02  2.80906323e+00  -4.00328990e-01  -8.81255100e-02
C     9.543325932404462e+00   2.330351015022075e+00  -9.493439999999964e-02  1.41462872e+00  -3.06344900e-01  -1.21610660e-01
C     3.704758909380570e+00   5.216748818345822e+00   2.669010000000000e-02  1.68244050e-01   7.30236368e+00   7.84187520e-01
C     4.059270088121993e+00   3.970200664549624e+00  -1.421025000000000e-01  2.30549608e+00  -5.14286873e+00   8.61244660e-01
C     5.466381266209378e+00   3.550357356698824e+00  -6.998700000000468e-03 -1.69063367e+00  -3.07240385e+00  -2.19615190e-01
C     5.863421167659973e+00   2.144660853693522e+00   7.059600000000001e-02 -6.56179182e+00   8.49857520e-01  -1.13924592e+00
C     7.141166996340612e+00   1.771677946988568e+00   1.158552000000000e-01  3.79869938e+00  -3.02188466e+00  -7.50206700e-01
C     7.558381318070407e+00   3.456205216767053e-01   6.344909999999999e-02 -3.31473991e+00   4.79878690e-01   6.15988800e-02
C     3.054073572748966e+00   2.931019158796865e+00  -1.520180999999994e-01 -1.36159882e+00   3.63085120e+00   3.60798620e-01
C     3.314197193030088e+00   1.621132413035395e+00  -1.648619999999994e-01  2.62704568e+00  -4.56877343e+00  -5.62724510e-01
C     4.725869885997490e+00   1.201770473064872e+00  -1.190727000000003e-01  3.62795720e-01   1.31746690e-01   9.52914120e-01
C     1.043117196160426e+00   8.540102734694268e-01  -2.095002000000008e-01 -4.85995119e+00   4.63619054e+00   6.98241960e-01
C     2.316667104865065e+00   5.224190778090029e-01  -2.225642999999984e-01  4.31103147e+00   1.73765173e+00   2.65728470e-01
