26
Lattice="8.88768389401873 1.33226762955019e-15 0 4.44384194700937 7.69696003302603 0 0 0 30 " PBC="1 1 1" Properties=species:S:1:pos:R:3:force:R:3 Energy="-205.19581182"
C     1.221062630040528e+01   6.328515735965492e+00  -2.648294999999976e-01 -4.55712070e-01  -8.51852760e-01   6.83676280e-01
C     8.507482064243938e+00   6.112497627878732e+00  -4.883975999999990e-01 -2.67211215e+00   3.01982462e+00   6.35939220e-01
C     9.837011805386053e+00   5.785803469098195e+00  -6.384957000000000e-01 -1.67754790e-01  -3.45859377e+00   1.53189337e+00
C     1.010703475010851e+01   4.372086810711232e+00  -5.115380999999992e-01  3.11317788e+00   3.16611560e-01   9.61314640e-01
C     6.125070895216592e+00   5.568013674751728e+00  -2.282349000000004e-01 -3.99993754e+00   1.62215049e+00   1.37296064e+00
C     7.442447217421335e+00   5.179107681984711e+00  -2.844413999999986e-01  2.70283351e+00  -2.49539910e-01  -8.69935180e-01
C     7.849642853109348e+00   3.847937533257086e+00  -2.779032000000008e-01 -2.12838921e+00  -5.58161884e+00   5.04165560e-01
C     9.190824392157861e+00   3.349120952471277e+00  -4.065960000000004e-01 -1.81050317e+00   1.15885810e+00   2.45558160e-01
C     9.595847789013018e+00   1.997472579766234e+00  -2.280888000000019e-01 -4.66280473e+00  -1.32533174e+00  -5.51470000e-04
C     3.594036587714235e+00   4.987517800793162e+00  -1.210929000000007e-01  3.45901274e+00  -2.24324405e+00  -8.95758350e-01
C     5.065512550312255e+00   4.607048599854229e+00  -1.966448999999990e-01 -1.57390157e+00  -3.09032565e+00   1.55367179e+00
C     5.378388396033465e+00   3.064506151144350e+00  -6.409980000000104e-02  2.23535617e+00   3.33863942e+00  -1.38112289e+00
C     6.833966914040805e+00   2.717567294153706e+00  -8.666850000000181e-02 -2.66245113e+00   1.81799904e+00  -1.28936319e+00
C     7.065439929842706e+00   1.313931113409234e+00  -2.561289000000002e-01  4.74194825e+00   2.21864865e+00   1.15944401e+00
C     8.522627207506030e+00   9.593827338545311e-01  -1.787738999999995e-01 -2.21042961e+00   2.58598988e+00  -6.75630150e-01
C     2.560117255510707e+00   3.978241216875362e+00  -1.640207999999994e-01  2.36675232e+00   2.50348240e-01  -2.25521061e+00
C     2.997931762067669e+00   2.610662292057028e+00  -3.576060000000005e-01  8.31343930e-01  -1.00121593e+00   1.97378444e+00
C     4.379956741290350e+00   2.082340184692218e+00  -2.759079000000000e-01 -3.78687930e-01   2.67753660e+00  -1.01570301e+00
C     4.728915161693863e+00   7.219473726666928e-01  -5.931999000000019e-01  8.24582340e-01   1.95680668e+00   3.28142276e+00
C     6.123059742254263e+00   3.136371897248457e-01  -3.447816000000010e-01 -2.89901621e+00   1.63708604e+00  -1.38180365e+00
C     1.087240573757777e+01   6.665129890771895e+00  -3.610895999999997e-01 -7.62887700e-02   1.49586172e+00  -1.11336534e+00
C     2.012976591267681e+00   1.603682250103381e+00  -2.184866999999997e-01  1.29975526e+00   4.01714970e-01  -6.98465750e-01
C     2.339255064407360e+00   2.340883381187927e-01  -1.485221999999986e-01 -7.29227210e-01  -6.61853500e-02  -1.31752520e-01
C     8.144672188538307e+00   7.535153458674936e+00  -3.538136999999999e-01 -7.90561650e-01  -3.31632339e+00  -1.19681482e+00
C     4.314810021765965e+00   7.299823677872904e+00  -1.949237999999980e-01  2.41806439e+00   1.03038277e+00   8.52028060e-01
C     5.683074111310125e+00   7.025819289886533e+00  -4.484400000000122e-02  3.22495095e+00  -4.34422738e+00  -1.85038198e+00
