26
Lattice="8.88768389401873 1.33226762955019e-15 0 4.44384194700937 7.69696003302603 0 0 0 30 " PBC="1 1 1" Properties=species:S:1:pos:R:3:force:R:3 Energy="-207.44434999"
C     9.713384837717154e-01   1.229171958650073e+00   3.227217000000000e+00 -1.18928045e+00  -2.16309503e+00   3.67733950e-01
C     3.358673606640806e+00   5.621651787991190e-01   3.329224200000000e+00  5.50545770e-01   9.99548670e-01   5.45350410e-01
C     4.718911718123998e+00   9.616097722696113e-01   3.622945500000000e+00 -5.40793800e-01   1.10676101e+00  -1.36604159e+00
C     1.016561498768473e+01   7.683280376877882e+00   3.853050300000000e+00 -1.05667053e+00   1.13505290e-01  -3.74544320e-01
C     7.092200656537241e+00   3.573292142439416e-01   3.736525500000000e+00 -1.23901638e+00   2.65797059e+00  -7.89196480e-01
C     1.254314379575884e+01   7.173127020633485e+00   3.529127700000000e+00  2.95708124e+00  -4.07455138e+00   2.90613910e-01
C     5.014197998352936e+00   7.510120866478168e+00   3.214388700000000e+00  1.35638189e+00   1.41630996e+00   2.15105020e-01
C     6.085742983498163e+00   6.519330071464418e+00   3.130019700000000e+00 -1.58071777e+00  -5.00118900e-02   1.00847622e+00
C     7.436461896696510e+00   6.894079045648256e+00   3.316899900000000e+00  1.00008393e+00  -1.33132010e-01  -2.05255810e-01
C     8.470968570184814e+00   5.894304127978692e+00   3.536939700000000e+00 -2.03187977e+00   1.33565977e+00   5.59729000e-01
C     9.762201148598180e+00   6.288845527001273e+00   3.896295600000000e+00  1.88982129e+00   2.19466916e+00  -8.28053540e-01
C     1.084316472351033e+01   5.420821629314026e+00   3.868017300000000e+00  1.82037870e+00  -4.35603111e+00  -7.07518170e-01
C     3.400506116099626e+00   5.740354074665048e+00   3.703116900000000e+00 -3.07961526e+00   1.43639969e+00  -5.04322500e-01
C     4.355064029106639e+00   4.748937054983259e+00   3.437072700000000e+00  1.27387982e+00  -4.17964900e-01  -3.77124500e-02
C     5.740826146688580e+00   5.142360778439885e+00   3.243376200000000e+00 -3.33172250e-01  -5.91336110e-01   1.32719980e-01
C     6.780601928009169e+00   4.142093948054802e+00   3.305469600000000e+00 -1.88542065e+00  -3.83175800e-02   3.68209500e-01
C     8.098629717961879e+00   4.551872249152772e+00   3.505134600000000e+00  1.73727157e+00  -1.34060022e+00  -5.50863500e-01
C     9.155002937887778e+00   3.566492032192111e+00   3.532051200000000e+00 -1.67671513e+00  -5.34346430e-01   5.16327380e-01
C     1.050095236442073e+01   3.967922056502342e+00   3.672843600000000e+00  3.70821730e-01   1.12348684e+00  -7.34243570e-01
C     2.599274656994138e+00   2.996800688906058e+00   3.385816500000000e+00  2.98272975e+00  -1.04805789e+00   6.37804070e-01
C     4.029506478642239e+00   3.342301753763098e+00   3.424175400000000e+00 -2.27838355e+00   1.81895243e+00  -3.50871530e-01
C     5.034789025503537e+00   2.392922066133155e+00   3.387456900000000e+00  7.08342640e-01  -2.47059082e+00   1.23674271e+00
C     6.401524922657371e+00   2.759518805101218e+00   3.409418700000000e+00  1.09020043e+00  -1.57994510e-01  -1.14314520e-01
C     7.432615170443695e+00   1.737171628508474e+00   3.497491800000000e+00 -1.23836978e+00   1.01572273e+00   6.20733520e-01
C     8.778262015790324e+00   2.156633859868188e+00   3.452752200000000e+00  2.08145704e+00   1.06884536e+00  -8.21012820e-01
C     2.359379625667487e+00   1.580013867102329e+00   3.190360500000000e+00 -1.68896048e+00   1.08819835e+00   8.84405150e-01
