32
Lattice="9.772 0 0 4.886 8.46280024578153 0 0 0 30 " PBC="1 1 1" Properties=species:S:1:pos:R:3:force:R:3 Energy="-257.77219957"
C    -8.406635542317119e-03   1.044361974533059e-02   2.999943895348563e+00  7.76645290e-01  -8.88284240e-01  -2.00444100e-02
C     1.221360679748717e+00   7.168361960127507e-01   2.991537765488819e+00 -5.96341200e-02  -2.16494980e-01   9.05856100e-02
C     2.444215335801613e+00   7.164118907929427e-03   2.987419859515751e+00  7.20900000e-04  -1.57550500e-01   1.47709000e-01
C     3.674019756339991e+00   6.994428092591936e-01   2.994725942252748e+00 -4.41812720e-01   7.71395500e-01  -1.63803000e-03
C     4.888930377387430e+00   1.153920062397091e-02   2.987722971814673e+00  3.22923650e-01  -1.01644684e+00   1.86392390e-01
C     6.118352274410722e+00   7.065102041674860e-01   2.989990181034648e+00 -7.68771770e-01   6.74402370e-01   3.43089100e-02
C     7.324580813943196e+00   1.533316254042808e-02   2.992082673868982e+00  5.12760240e-01  -1.20679692e+00   5.77589500e-02
C     8.552350946257326e+00   7.079109997010886e-01   2.992923535207529e+00 -2.49313700e-01  -1.05818980e-01   1.35347860e-01
C     1.229778109544334e+00   2.127032035061325e+00   3.006490771138302e+00 -2.15165950e-01  -1.15891630e-01  -1.84699600e-02
C     2.448019023998547e+00   2.835823064433715e+00   3.009963056461506e+00  2.69546350e-01  -5.51740330e-01   3.66668700e-02
C     3.670880616394692e+00   2.118637720475516e+00   3.011756558673271e+00 -5.21353530e-01  -3.08087900e-01  -1.15531530e-01
C     4.881495673504369e+00   2.819595786861996e+00   3.004281731458460e+00  3.77503200e-02   1.11799700e-02   4.38318000e-03
C     6.101664564837869e+00   2.127002663385371e+00   2.998340240107108e+00  5.28671150e-01  -4.72301480e-01  -9.43792200e-02
C     7.324945915787462e+00   2.825984318006246e+00   2.990352557660265e+00  5.15987810e-01  -4.03307060e-01   1.44900910e-01
C     8.561595615740654e+00   2.106210707879372e+00   3.010149277570906e+00 -7.66710220e-01   8.31361460e-01  -1.70332210e-01
C     9.773220337477648e+00   2.819310254449686e+00   3.013349033461598e+00  2.03402060e-01   1.10820690e-01  -8.56905000e-02
C     2.452385800243326e+00   4.238631754288369e+00   3.007780778221648e+00 -5.95882250e-01  -3.47973700e-02  -1.79186440e-01
C     3.669189693241450e+00   4.939023252856218e+00   2.986607936660652e+00 -2.53423760e-01  -3.41271730e-01   1.32834490e-01
C     4.872243308398285e+00   4.219529253919090e+00   2.995973913786838e+00  1.17933554e+00   7.49722080e-01  -4.63177200e-02
C     6.116945607339120e+00   4.930335542811810e+00   2.990867578700692e+00 -9.62037420e-01  -7.96418900e-02   1.67716500e-02
C     7.335120230874879e+00   4.233915459954515e+00   2.993224505718458e+00 -1.13780250e-01  -2.39123800e-01   3.61479000e-02
C     8.552189284369907e+00   4.932071420301972e+00   3.005069855672018e+00  1.47008270e-01   3.79969440e-01  -1.68272680e-01
C     9.774113073371574e+00   4.232131734567250e+00   2.996119055621879e+00 -1.48397880e-01  -2.36361270e-01   1.21958530e-01
C     1.099012038055334e+01   4.930228333215029e+00   2.989120601782234e+00  4.32022170e-01   6.30275450e-01   8.41690400e-02
C     3.656253512501592e+00   6.334759546819066e+00   2.987057118299735e+00  4.14548480e-01   8.14457770e-01   1.44183950e-01
C     4.887732214729152e+00   7.040069164820218e+00   3.005743850738265e+00 -6.52923280e-01   8.16694710e-01  -1.91081830e-01
C     6.097692536741792e+00   6.339904102952975e+00   2.994398410503945e+00  9.52139440e-01   2.78680760e-01   1.17472280e-01
C     7.333422678353675e+00   7.063171265890245e+00   3.007143236947619e+00 -4.35129390e-01  -6.08266150e-01  -2.56350720e-01
C     8.554448326905819e+00   6.345508479241443e+00   2.993336501600981e+00 -2.65857630e-01   7.13278100e-02   2.58895880e-01
C     9.774124003978969e+00   7.045359023721415e+00   3.011401541246379e+00 -1.39718690e-01   9.24182120e-01  -3.53774830e-01
C     1.099222175469406e+01   6.356429300764869e+00   2.987944335530844e+00 -9.23744100e-02  -9.69677080e-01   1.79330660e-01
C     1.220791662095949e+01   7.045071972395201e+00   3.002926864379735e+00  3.88825300e-01   8.87390030e-01  -2.28747970e-01
