32
Lattice="9.868 0 0 4.934 8.54593868454484 0 0 0 30 " PBC="1 1 1" Properties=species:S:1:pos:R:3:force:R:3 Energy="-257.99724065"
C     1.091865671288124e-02   7.315459722695510e-03   2.992499919115456e+00 -2.78603050e-01  -7.08799190e-01   1.46685930e-01
C     1.246232775622081e+00   7.077269380429604e-01   3.006809818031008e+00 -3.73591190e-01   5.49300530e-01  -1.48298580e-01
C     2.464448478189841e+00  -3.591413751178961e-03   2.998399704408107e+00  4.49816970e-01  -1.85715890e-01   8.65536300e-02
C     3.702082171279286e+00   7.002552634270537e-01   2.996784501158327e+00 -2.68074320e-01   8.35756630e-01   5.78355600e-02
C     4.932773553746619e+00   6.546003773079640e-03   2.998249346500625e+00  4.32293080e-01  -7.99092180e-01  -1.61539500e-02
C     6.169663807672035e+00   7.152301950344458e-01   3.008708114991564e+00  7.62693000e-03   6.34123700e-02  -1.26702990e-01
C     7.402700363196833e+00  -1.287788610584950e-02   2.996253310439305e+00  8.07553000e-03   8.16404030e-01   1.88737450e-01
C     8.642217231459632e+00   7.068694708836695e-01   3.006558695652770e+00 -2.38139750e-01   1.79000880e-01  -1.84172760e-01
C     1.244782190740438e+00   2.139925182495200e+00   3.000856677835818e+00 -6.33419440e-01  -2.32630120e-01   7.97705800e-02
C     2.465123506718623e+00   2.855140981768538e+00   3.005424009070740e+00  2.38965720e-01  -2.17061840e-01  -2.16862100e-02
C     3.698065018501663e+00   2.137773715929780e+00   3.005735293593090e+00  3.34793410e-01  -2.92151270e-01  -9.82669400e-02
C     4.946075763399127e+00   2.844814702720587e+00   2.995590975595261e+00 -1.04898589e+00   2.09197230e-01   6.69670800e-02
C     6.164572704138480e+00   2.151272112621347e+00   3.004116611156351e+00  5.96612260e-01  -1.02314194e+00   2.34770000e-04
C     7.399764981512151e+00   2.852047411644475e+00   3.004536434422568e+00  1.06301290e-01  -2.35072690e-01  -3.61797900e-02
C     8.634962681681859e+00   2.136259372684199e+00   2.998693447144940e+00 -6.32038700e-02  -7.49328400e-02   1.10170720e-01
C     9.865864869699202e+00   2.850907657279506e+00   3.002494726565347e+00  4.36662590e-01  -6.76604400e-02  -8.93743100e-02
C     2.456291125782025e+00   4.273882104221734e+00   3.002692152671216e+00  7.75605980e-01   1.01038830e-01  -1.17092440e-01
C     3.706311552177835e+00   4.978159888779970e+00   2.990229944673651e+00 -6.41208210e-01   8.62846900e-02   1.68598410e-01
C     4.933435570096127e+00   4.266037997894234e+00   2.992599898912066e+00  4.21175240e-01   3.91791110e-01   5.32039200e-02
C     6.174196792097413e+00   4.985482731857694e+00   3.009375868015739e+00 -5.60920500e-01  -5.26760000e-03  -1.07131860e-01
C     7.394334959362036e+00   4.266551493957700e+00   3.005641370841315e+00  4.92504620e-01   4.06509840e-01   8.79136700e-02
C     8.631434814671438e+00   4.984303159105703e+00   3.011008698188844e+00  1.18332500e-01  -1.98248190e-01  -1.52124720e-01
C     9.873972888576963e+00   4.278560495401164e+00   2.995141533177211e+00 -3.99738730e-01  -1.22343150e-01   8.84492800e-02
C     1.110548598091802e+01   4.991819399632650e+00   2.992849192711390e+00 -1.70030150e-01  -3.69496120e-01   1.55748170e-01
C     3.687443920458677e+00   6.404176160530073e+00   3.007449638824246e+00  8.07056170e-01   2.52750000e-03  -1.71964470e-01
C     4.931712091424804e+00   7.113125820864039e+00   2.993770475596820e+00 -1.38698230e-01   5.69189400e-01   9.76570900e-02
C     6.169325905042373e+00   6.416149845062091e+00   3.005707262002049e+00 -1.86236790e-01  -5.76129530e-01   4.87155000e-03
C     7.397873697497319e+00   7.120778981522746e+00   3.009943753252266e+00  2.37644640e-01   4.66884300e-02  -1.29875610e-01
C     8.631973162396097e+00   6.403389282250015e+00   2.999772343518904e+00  2.09950520e-01   2.14235120e-01   5.42547000e-02
C     9.876974666076860e+00   7.108989078882530e+00   2.990289582403860e+00 -4.04282400e-01   6.28184220e-01   1.65379440e-01
C     1.111095497596088e+01   6.405687451558197e+00   3.010795305250751e+00 -5.19561870e-01   2.18346460e-01  -2.17041050e-01
C     1.233060713802976e+01   7.120848622437146e+00   3.006815577700321e+00  2.51276930e-01  -2.10124290e-01   3.03373000e-03
