32
Lattice="9.748 0 0 4.874 8.44201563609071 0 0 0 30 " PBC="1 1 1" Properties=species:S:1:pos:R:3:force:R:3 Energy="-257.66997007"
C    -6.844587527267874e-03  -4.981450272923713e-03   2.995570760135715e+00  8.71603410e-01   1.33514440e-01  -8.86550200e-02
C     1.222195721116276e+00   6.945106802239609e-01   2.992600434168650e+00 -2.25986380e-01   3.23072200e-02   8.76560600e-02
C     2.443471863513791e+00  -1.121112846055081e-02   3.001998928935345e+00 -3.21769790e-01   1.25625050e-01   5.86822700e-02
C     3.658164962599917e+00   6.924830408674613e-01   3.014099772324686e+00 -3.06038050e-01   4.07809490e-01  -1.60969040e-01
C     4.863270686280871e+00  -1.320285750948825e-02   3.005337956420721e+00  9.44422310e-01   9.10739460e-01   8.63705300e-02
C     6.093374265789314e+00   7.123838382193557e-01   3.010041602585100e+00  6.65290700e-02  -9.89561420e-01  -1.47958510e-01
C     7.321683376460450e+00   8.901316179477283e-04   2.992170764824421e+00 -6.26110270e-01  -9.03324900e-02   8.05744800e-02
C     8.534930386978587e+00   7.002294133219079e-01   2.993307599218415e+00 -2.24344380e-01   3.25904630e-01   5.72082900e-02
C     1.211127627920373e+00   2.103857985949389e+00   2.997946832742592e+00  7.04977800e-01  -2.16971130e-01   1.48470300e-02
C     2.434927450692800e+00   2.806122081692025e+00   3.012183634390259e+00 -1.98768020e-01   5.90564200e-01  -2.39975110e-01
C     3.645178907051264e+00   2.107113535638629e+00   3.001462841531441e+00  8.80626820e-01  -1.16786860e-01   2.11651850e-01
C     4.878236517090522e+00   2.814470566610610e+00   3.011592384847016e+00 -1.90451950e-01   4.88271700e-02  -1.87920220e-01
C     6.106120197110979e+00   2.111197591422906e+00   3.000624218011003e+00 -7.03423630e-01   1.58823770e-01   1.80312300e-01
C     7.316106352460730e+00   2.816574571921387e+00   3.009763247337425e+00  3.28221940e-01   4.54478300e-02  -6.17351200e-02
C     8.538231948219131e+00   2.111637086692149e+00   3.008639794899385e+00 -3.95614540e-01  -2.27594560e-01  -1.39744400e-01
C     9.753291621204987e+00   2.803838613500543e+00   2.994248412612731e+00 -2.76479500e-01   6.46530990e-01   1.67394610e-01
C     2.446197488876740e+00   4.227777520104141e+00   2.992698471571566e+00 -4.22451180e-01  -5.78373340e-01   2.75045710e-01
C     3.662437209849650e+00   4.927740998293935e+00   3.007170482916097e+00 -1.08725000e-02  -3.98855420e-01  -1.89449690e-01
C     4.887270233412303e+00   4.228613822406309e+00   2.997880413282652e+00 -4.70291870e-01  -6.52521310e-01   8.29033300e-02
C     6.100062709155294e+00   4.923487370173384e+00   2.989237924187174e+00 -3.72672170e-01   1.75973870e-01   1.25285390e-01
C     7.309548471961236e+00   4.225557682312417e+00   3.000684000518488e+00  2.91301410e-01  -2.00044400e-01  -7.96010400e-02
C     8.521822814290296e+00   4.934051069144006e+00   2.990086114286283e+00  6.91286450e-01  -8.74113830e-01   1.34764940e-01
C     9.748507899311118e+00   4.216752843179827e+00   3.008488105992179e+00 -1.26489370e-01   2.08433090e-01  -1.56831590e-01
C     1.096683211631293e+01   4.926751972348103e+00   3.007339336981162e+00  8.48846000e-03   1.23984460e-01  -4.09730100e-02
C     3.645552388599555e+00   6.320419460244361e+00   2.992892703432759e+00  1.10241229e+00   7.68575490e-01   4.75169000e-02
C     4.887645291139756e+00   7.038043148385372e+00   2.992375907274657e+00 -1.48631796e+00  -5.04586670e-01   4.96143900e-02
C     6.080470828920581e+00   6.327453872726130e+00   3.001531190324405e+00  1.26296178e+00   1.84794980e-01  -1.02323610e-01
C     7.317753448074339e+00   7.026489067044563e+00   3.004959886777338e+00 -5.53944860e-01   1.00256500e-02  -1.08228600e-01
C     8.533386386650564e+00   6.327717769308234e+00   2.988572470568387e+00 -2.15665920e-01   2.07850210e-01   1.23723580e-01
C     9.746772525200804e+00   7.033126566554107e+00   3.001314648582871e+00 -1.48594430e-01   3.87149000e-03  -1.79243000e-03
C     1.095787749025714e+01   6.344106109357672e+00   3.010281897598809e+00  6.27151060e-01  -7.97386350e-01  -1.16670870e-01
C     1.219049619533289e+01   7.027463959011307e+00   2.994400642006240e+00 -5.03696030e-01   5.37524310e-01   3.92766100e-02
