32
Lattice="10.088 0 0 5.044 8.73646427337742 0 0 0 30 " PBC="1 1 1" Properties=species:S:1:pos:R:3:force:R:3 Energy="-256.90353813"
C    -2.409216515968341e-03  -6.359330233525330e-03   2.994495591965911e+00  5.76512640e-01   4.89449570e-01   4.86423500e-02
C     1.275017005688207e+00   7.260023840479869e-01   2.997224395402097e+00 -5.32913970e-01   1.31009660e-01   3.96041800e-02
C     2.527775800122712e+00  -7.943281680853276e-03   3.005489821097465e+00 -1.07292890e-01   6.10701850e-01  -7.51781800e-02
C     3.790618787583924e+00   7.300006458067225e-01   3.006209633880347e+00 -3.31152070e-01  -2.92841740e-01  -1.80327960e-01
C     5.034420536004728e+00  -6.621344343871025e-03   2.985576842159211e+00  7.71202880e-01   3.37651630e-01   1.98298420e-01
C     6.311038283669743e+00   7.344938845237936e-01   3.004756440616841e+00 -4.35047030e-01  -5.52000240e-01  -1.25862040e-01
C     7.573692087851836e+00   6.828480482283634e-03   2.994397593796198e+00 -3.67191330e-01  -3.48004510e-01   1.56635350e-01
C     8.828239591518971e+00   7.219406887595640e-01   3.002441930279677e+00  3.88536100e-02   2.07740010e-01  -1.19265520e-01
C     1.270522165107355e+00   2.192855432974144e+00   2.998783417964607e+00 -4.08075610e-01  -5.56828650e-01   1.30360900e-02
C     2.526407286118594e+00   2.906757839469712e+00   3.007435337761340e+00 -3.20796800e-02   2.89295710e-01  -2.12099320e-01
C     3.781764567584526e+00   2.182459140951323e+00   2.992475767492376e+00  3.15642980e-01  -7.83149400e-02   1.96193950e-01
C     5.046692273543797e+00   2.901189291339079e+00   2.996619394337626e+00 -2.90914600e-01   7.92991340e-01   7.25064000e-02
C     6.296308480681462e+00   2.179265788424554e+00   3.011904761967501e+00  5.07384900e-01   3.16200800e-02  -2.06631310e-01
C     7.570400453784075e+00   2.900102730262713e+00   2.991456483261745e+00 -4.63164390e-01   3.01492200e-01   2.01838840e-01
C     8.816883725837473e+00   2.178716904941920e+00   2.996558618911322e+00  7.41783740e-01   1.04608170e-01  -3.35302800e-02
C     1.008849700141154e+01   2.917577263688898e+00   2.992343754920429e+00  5.29591500e-02  -1.06136670e-01   1.12177180e-01
C     2.525252981152005e+00   4.359259602384557e+00   2.990692993722579e+00 -2.01031800e-01   4.95423880e-01   2.17109870e-01
C     3.773642445154810e+00   5.098364590180179e+00   3.009468722268071e+00  4.78710670e-01   5.08135000e-02  -1.93999390e-01
C     5.049275700215098e+00   4.378724995659015e+00   3.001809699124932e+00 -4.07050240e-01  -6.06395310e-01  -7.01369000e-03
C     6.306797562401293e+00   5.095653749870890e+00   2.997612707617105e+00  7.71990500e-02  -1.64660170e-01   9.31935200e-02
C     7.568904968782798e+00   4.357876424936794e+00   3.000501082660228e+00 -1.57581310e-01   5.77401200e-02  -1.56980350e-01
C     8.815281951250302e+00   5.089397008310064e+00   2.987316493696651e+00  5.94732120e-01   4.61283170e-01   2.64244600e-01
C     1.009593663450012e+01   4.376539169521096e+00   3.004685055819288e+00 -5.34895720e-01  -2.16780980e-01  -2.41990520e-01
C     1.135046030433342e+01   5.108498014681790e+00   2.993816322588545e+00  1.84923410e-01  -5.79136700e-01   1.02465850e-01
C     3.770930172902644e+00   6.563163136355097e+00   2.999623213247640e+00  5.35105210e-01  -4.33545500e-01   7.63501300e-02
C     5.046171553389049e+00   7.289496295955405e+00   2.995869689196863e+00 -1.73368350e-01  -7.05556380e-01   5.61864400e-02
C     6.307890954218589e+00   6.542093680304912e+00   3.004390460263431e+00 -1.35201020e-01   6.88422830e-01  -1.29478270e-01
C     7.563594134286445e+00   7.288741726353743e+00   2.995882320151783e+00  1.32618510e-01  -6.21334130e-01   1.45813810e-01
C     8.825100695917765e+00   6.561237851168097e+00   3.003511003534304e+00 -1.45432400e-01  -5.97658970e-01  -2.46485060e-01
C     1.008724469919137e+01   7.275121015545894e+00   2.984980039878951e+00 -1.18128900e-01   2.12365310e-01   1.85673180e-01
C     1.134950591886762e+01   6.554129150561171e+00   3.003586284115400e+00  2.61135400e-02   5.37223500e-02  -1.43155600e-01
C     1.261010257224540e+01   7.277283805294760e+00   3.005104740832688e+00 -1.93221110e-01   5.42863490e-01  -1.07972650e-01
