2
Lattice="2.495 0 0 1.2475 2.16073338244217 0 0 0 30 " PBC="1 1 1" Properties=species:S:1:pos:R:3:force:R:3 Energy="-16.11139088"
C     0.000000000000000e+00   0.000000000000000e+00   3.000000000000000e+00 -0.00000000e+00   0.00000000e+00  -0.00000000e+00
C     1.247500000000000e+00   7.202444608140581e-01   3.000000000000000e+00  0.00000000e+00  -0.00000000e+00   0.00000000e+00
