32
Lattice="10.024 0 0 5.012 8.68103864753521 0 0 0 30 " PBC="1 1 1" Properties=species:S:1:pos:R:3:force:R:3 Energy="-257.51807166"
C     4.109496102233006e-05   1.770929726915583e-04   2.998818356411554e+00 -1.49524400e-02  -1.79124200e-02   1.80141600e-02
C     1.252176833270500e+00   7.238841914107345e-01   3.000836745537766e+00  2.48762800e-02   2.74403200e-02  -1.57417700e-02
C     2.505516257346498e+00   9.863943776865936e-04   3.000555188917591e+00 -8.60640000e-03  -3.21920200e-02  -4.19288000e-03
C     3.758222987019237e+00   7.235557816379596e-01   2.999629442676791e+00  3.29129500e-02   3.89482700e-02   1.35852500e-02
C     5.011202822361065e+00   7.157180152320832e-04   3.001166500955364e+00  3.25500000e-05  -7.03863000e-02  -1.21510700e-02
C     6.264329278276508e+00   7.223762922473613e-01   3.000259492346262e+00  3.64008400e-02   7.42005900e-02   6.62791000e-03
C     7.518573855849762e+00  -5.607454957858594e-04   3.000464377659923e+00 -4.27213100e-02  -2.25839500e-02  -5.04684000e-03
C     8.771044775890338e+00   7.222883895453915e-01   2.999092500309331e+00  1.71472000e-03   7.97967300e-02   2.82324000e-03
C     1.252215540369902e+00   2.171498422544095e+00   3.000051787484093e+00  3.76159600e-02  -4.42998300e-02   1.18667000e-03
C     2.506197446575901e+00   2.894268005738427e+00   3.000105156201208e+00 -6.80153000e-03  -2.31975200e-02   3.23390000e-04
C     3.760035362815535e+00   2.171031309782179e+00   2.999756912563718e+00 -6.57839900e-02  -2.25636900e-02  -5.88510000e-04
C     5.011642204203109e+00   2.894814458225469e+00   2.999608140734199e+00  6.57939000e-02  -7.06369800e-02   6.06903000e-03
C     6.265914940139694e+00   2.171087337830573e+00   3.000095632591814e+00 -4.29584100e-02  -6.88309100e-02  -9.89100000e-03
C     7.519058708247654e+00   2.892669998256695e+00   2.999004735817861e+00 -3.18998500e-02   8.86623300e-02   1.79399400e-02
C     8.771504977283012e+00   2.171238204435839e+00   2.999146858114051e+00 -1.70337100e-02  -1.00552520e-01  -3.59641000e-03
C     1.002343758479751e+01   2.894111812951724e+00   2.999158743628795e+00  2.35801700e-02  -6.44780000e-03   8.45910000e-04
C     2.506504636068342e+00   4.340488337634453e+00   3.000452778487050e+00 -2.69702900e-02   1.92161400e-02  -8.16290000e-03
C     3.759053999769968e+00   5.062794963178459e+00   2.999308185128376e+00  2.45008700e-02   4.78409800e-02   1.56540800e-02
C     5.012188463947691e+00   4.339568130519885e+00   3.000000292484785e+00 -3.81128000e-02   4.52110800e-02  -1.32905300e-02
C     6.264092851978057e+00   5.062818548915337e+00   2.999193761967875e+00  5.67249700e-02   4.25228200e-02   2.51272400e-02
C     7.517855574537569e+00   4.341465557603123e+00   3.001125855907237e+00  3.03374000e-03  -7.45292600e-02  -2.55111900e-02
C     8.770945287546473e+00   5.063841776133977e+00   3.000344046311730e+00  3.71640000e-04  -1.26458000e-02  -8.81292000e-03
C     1.002356046763907e+01   4.339560974468734e+00   2.998875059096968e+00  3.47502600e-02   7.49583000e-02   1.65603200e-02
C     1.127734497258396e+01   5.064721749394854e+00   3.000426672613356e+00 -3.96505800e-02  -5.63097300e-02  -9.44002000e-03
C     3.759380329864911e+00   6.510589955423975e+00   3.000392427912516e+00 -3.32755500e-02  -2.94869100e-02  -5.91316000e-03
C     5.011271158716145e+00   7.234599643790292e+00   3.000074236237275e+00  6.82291300e-02  -3.78590100e-02  -1.45396000e-03
C     6.265622792046845e+00   6.509760940332218e+00   3.000713011756039e+00 -4.23390000e-02   5.40817200e-02  -1.47605800e-02
C     7.518469228546167e+00   7.234687739658260e+00   2.999992147498109e+00 -7.95382000e-03  -3.64550900e-02   5.04453000e-03
C     8.772191254984346e+00   6.510036025868637e+00   2.999496345146590e+00 -7.10674800e-02   3.35919800e-02   1.42136600e-02
C     1.002331750566734e+01   7.233066584172929e+00   3.001012352221776e+00  2.20497500e-02   8.27240900e-02  -1.07798800e-02
C     1.127594773946792e+01   6.511047669628505e+00   3.000327901839301e+00  4.25786300e-02  -2.72088900e-02   9.86383000e-03
C     1.252969412248133e+01   7.232979054919793e+00   3.000857601846099e+00  1.49608000e-02   4.49032700e-02  -4.54553000e-03
