32
Lattice="10.156 0 0 5.078 8.79535400083476 0 0 0 30 " PBC="1 1 1" Properties=species:S:1:pos:R:3:force:R:3 Energy="-256.27879313"
C     8.464843821690920e-04  -4.482996143201096e-04   2.999694898000046e+00 -3.62878100e-02   3.64813200e-02   9.76633000e-03
C     1.269008869153758e+00   7.331152827944409e-01   3.000504337457110e+00  4.01865800e-02  -3.30500000e-04  -7.89730000e-03
C     2.538181029478250e+00  -2.744960086666444e-04   2.999499249692131e+00  5.18211700e-02   5.48493400e-02   2.28150600e-02
C     3.809093933574630e+00   7.340476614296327e-01   3.000904184473381e+00 -4.10623600e-02  -6.51742400e-02  -2.97750400e-02
C     5.077754249880811e+00  -1.129433948718222e-03   2.998925107658334e+00  2.75133200e-02   8.11088900e-02   2.95205700e-02
C     6.348564013477724e+00   7.330416400937001e-01   2.999915849905529e+00 -4.57317400e-02  -3.68464100e-02   5.56983000e-03
C     7.616354124274908e+00  -6.624664948565226e-05   3.000441654094706e+00  6.78915900e-02  -2.81686000e-03  -6.45345000e-03
C     8.887713501296700e+00   7.341413530984985e-01   3.000060987562815e+00 -6.52427000e-02  -7.35073000e-02   3.95033000e-03
C     1.270486514422531e+00   2.199656870109923e+00   3.000750805043749e+00 -4.38554200e-02  -3.17939900e-02  -1.62370300e-02
C     2.539168667235724e+00   2.932109378691316e+00   2.999740241722051e+00 -5.65031000e-03  -2.53391000e-02   7.43414000e-03
C     3.808683182568952e+00   2.199212181502480e+00   2.999171546073373e+00  1.27708900e-02   1.79848600e-02   1.53605900e-02
C     5.077885961862351e+00   2.932704861564152e+00   2.999879890345193e+00  4.04141500e-02  -5.50706100e-02   2.70501000e-03
C     6.348375663953779e+00   2.197755660555627e+00   3.001247479805184e+00 -5.31425900e-02   6.83742000e-02  -2.40098000e-02
C     7.616186683763963e+00   2.932115910254996e+00   2.999184617009253e+00  4.89645200e-02  -2.74073300e-02   2.71706600e-02
C     8.885932124670171e+00   2.198731535909107e+00   3.000634213977468e+00  3.99165400e-02   2.75965400e-02  -2.21154300e-02
C     1.015658169244381e+01   2.931995707126308e+00   2.998898474572966e+00 -2.46537400e-02   1.51600500e-02   3.03986300e-02
C     2.537958366520271e+00   4.396627467194035e+00   3.000645983491385e+00  5.80324000e-02   5.85967700e-02  -2.31980800e-02
C     3.808088413934823e+00   5.130111249725165e+00   2.999497185246355e+00  2.30799000e-02  -4.72603000e-03   8.25561000e-03
C     5.079230745721053e+00   4.397749053799755e+00   2.999860466748162e+00 -4.75956600e-02   7.91614000e-03   4.37933000e-03
C     6.348183120736860e+00   5.130502403459203e+00   3.001064161481608e+00  1.70038500e-02   2.39770800e-02  -1.08927600e-02
C     7.618177714094467e+00   4.397840668753590e+00   3.000367915681583e+00 -7.88979800e-02  -2.55117300e-02  -8.89059000e-03
C     8.885653241671111e+00   5.129713941409973e+00   2.999307733484148e+00  4.56021800e-02   5.12847500e-02   1.28829900e-02
C     1.015512161875022e+01   4.398043604605200e+00   3.000755399684264e+00  6.38725600e-02  -6.93664000e-03  -3.08818100e-02
C     1.142658815356497e+01   5.131682847189311e+00   2.998852077280020e+00 -8.37454200e-02  -6.95883800e-02   3.22662900e-02
C     3.808196946700670e+00   6.595581029429000e+00   2.999743493584885e+00  5.10212000e-03   2.14250000e-02   1.68665000e-03
C     5.078249706783752e+00   7.329628438162509e+00   3.000368428119033e+00  3.82266000e-03  -3.43661700e-02  -6.99271000e-03
C     6.348657941259228e+00   6.596825598340271e+00   3.000612793459414e+00 -5.46332900e-02  -1.43229700e-02   4.62939000e-03
C     7.617186436763035e+00   7.329962694974863e+00   3.000886277221484e+00  6.50715000e-03  -2.20323400e-02  -1.91450600e-02
C     8.885804096904437e+00   6.595962167211811e+00   2.999246215308605e+00  4.64017700e-02   3.54557200e-02   2.03021700e-02
C     1.015655440805503e+01   7.330393315856170e+00   3.001179792306076e+00 -4.76540700e-02  -8.40652700e-02  -2.41269000e-02
C     1.142620478572820e+01   6.596076296596536e+00   3.000912033954779e+00 -3.10655400e-02   3.06833000e-02  -1.42436600e-02
C     1.269393709052513e+01   7.328316343252456e+00   2.999989690371086e+00  6.03153200e-02   4.89419000e-02   5.76603000e-03
