32
Lattice="10.096 0 0 5.048 8.74339247660769 0 0 0 30 " PBC="1 1 1" Properties=species:S:1:pos:R:3:force:R:3 Energy="-256.8180213"
C    -1.068056110863384e-03   1.382335825476544e-03   2.996167599951721e+00 -2.10058970e-01   1.79294100e-01   1.54627510e-01
C     1.263823098922253e+00   7.300334613596106e-01   2.989484721148055e+00 -2.77209100e-02   1.33410410e-01   7.48418200e-02
C     2.524759341855082e+00  -5.676442281277280e-03   2.998522708780254e+00 -3.92557100e-01   5.99685930e-01  -7.88547600e-02
C     3.773835337640071e+00   7.358330985968575e-01   2.988277192566428e+00  7.17087120e-01  -6.01987080e-01   1.80718960e-01
C     5.058753511256569e+00  -1.043487672917297e-02   3.008150961098721e+00 -7.51237240e-01   7.34598080e-01  -2.22399330e-01
C     6.302855154331994e+00   7.347069830829397e-01   2.997112621593331e+00  2.46647130e-01  -2.01421930e-01   2.48153980e-01
C     7.572690259137285e+00   6.627865985715260e-03   3.011676467342601e+00 -3.31038780e-01  -1.63056240e-01  -9.72504600e-02
C     8.820280622751140e+00   7.246097933094638e-01   3.015134813288322e+00  7.64936530e-01   2.85356860e-01  -2.58575110e-01
C     1.270203295823492e+00   2.193751090641558e+00   2.992252711685411e+00 -7.66294800e-01  -3.34196450e-01   2.14457200e-02
C     2.513359546844942e+00   2.921031045091680e+00   2.995406192421461e+00  5.09685830e-01  -2.88241500e-02   2.85755000e-03
C     3.775236369738024e+00   2.183491902136123e+00   2.993718311908135e+00  4.44974600e-02   2.19044980e-01  -1.03729700e-02
C     5.041680095073503e+00   2.912747804964116e+00   3.000580607794411e+00  2.22214900e-02  -4.42326500e-02  -4.14274400e-02
C     6.298553369460481e+00   2.191295609002409e+00   3.012032334139817e+00  5.00549410e-01  -9.09998900e-02  -1.22088370e-01
C     7.576730909109736e+00   2.918969371948668e+00   3.010764039952381e+00 -3.04383680e-01   7.63283400e-02  -1.69879190e-01
C     8.843050781107639e+00   2.184443180397529e+00   2.989151982793718e+00 -8.81080100e-01  -8.67085400e-02   3.16224350e-01
C     1.008119176803166e+01   2.909612340048181e+00   2.999842237822117e+00  9.11049230e-01   5.00007910e-01  -1.41519090e-01
C     2.527948103140792e+00   4.377679195470002e+00   3.002372183918696e+00 -1.68906000e-03  -2.21316360e-01  -1.35944740e-01
C     3.790951056610874e+00   5.097111702586625e+00   2.993055735019074e+00  7.66631600e-02  -8.50776000e-03   3.06283200e-02
C     5.055703470631675e+00   4.362068940036453e+00   2.987353635482516e+00 -4.22452800e-01   4.51954510e-01   1.59783870e-01
C     6.305738996713793e+00   5.105897876569257e+00   3.000661707346236e+00  2.70797590e-01  -2.48762440e-01  -6.21836500e-02
C     7.568586300603401e+00   4.383172729155923e+00   2.998338368821485e+00  1.13502820e-01  -3.41389970e-01   1.37335930e-01
C     8.830612190344992e+00   5.112928079890906e+00   3.005882796734400e+00  2.02826710e-01  -2.08729110e-01  -2.20779660e-01
C     1.008956670727917e+01   4.376729069771390e+00   2.995746993094087e+00  1.22606070e-01  -2.18649850e-01   7.05980300e-02
C     1.136675911175933e+01   5.099393421291651e+00   2.993244922984529e+00 -3.87381040e-01  -8.17691300e-02   1.28986250e-01
C     3.791426467965684e+00   6.552663400162351e+00   2.998300891658789e+00 -1.44342240e-01   3.89438150e-01   3.56150300e-02
C     5.041328299685775e+00   7.296996589511236e+00   3.009828943931614e+00  5.42833450e-01  -5.71540880e-01  -1.38166820e-01
C     6.318390242525789e+00   6.557404943943169e+00   3.005926211476571e+00 -8.27879890e-01   3.96295190e-01   1.28790000e-02
C     7.557349777329918e+00   7.297719605606868e+00   3.005582982130212e+00  1.01030921e+00  -6.95942770e-01  -1.40284080e-01
C     8.843362349361916e+00   6.563047454384185e+00   2.984732817398700e+00 -7.40832210e-01   2.18012960e-01   2.92976680e-01
C     1.009594181579646e+01   7.285433846320386e+00   3.000034453151547e+00  4.79838720e-01  -2.56740270e-01  -8.34027000e-03
C     1.136781903767554e+01   6.545505744400105e+00   3.005971878662962e+00 -1.74117730e-01   6.95813830e-01  -1.50733540e-01
C     1.262668026261044e+01   7.293138623588630e+00   2.998293508403749e+00 -1.72985380e-01  -4.74465780e-01   1.31126520e-01
