32
Lattice="9.672 0 0 4.836 8.37619770540309 0 0 0 30 " PBC="1 1 1" Properties=species:S:1:pos:R:3:force:R:3 Energy="-257.24098379"
C     6.714844287674972e-04  -6.346253299555822e-04   3.000784105491975e+00 -2.58988300e-02   3.60801600e-02  -9.45607000e-03
C     1.210126181560868e+00   6.991592249436795e-01   2.999887440280255e+00 -8.31418600e-02  -1.09915380e-01   9.01500000e-03
C     2.418263664674957e+00   6.662231123145193e-04   3.000342421067627e+00  1.06851100e-02  -8.14463800e-02  -6.67894000e-03
C     3.627536840078972e+00   6.968921937655348e-01   2.999512650820610e+00 -5.48291800e-02   7.56277300e-02   6.62911000e-03
C     4.834932483205371e+00   8.633733591758470e-04   2.999692561039401e+00  1.00508890e-01  -7.35396400e-02  -6.61709000e-03
C     6.045434872346916e+00   6.974271603677292e-01   2.999631451378239e+00 -9.12910900e-02   3.92160600e-02   1.13586000e-02
C     7.252813760078056e+00  -3.425489134193832e-04   3.001085909731298e+00  6.39329300e-02   3.75552500e-02  -1.42156100e-02
C     8.462317879804081e+00   6.975797637741652e-01   3.001010173629350e+00  6.92245900e-02  -3.08015200e-02  -3.19138000e-03
C     1.207868143065452e+00   2.092997800761341e+00   3.000313926519843e+00  8.90694800e-02   1.07901910e-01  -1.34841000e-03
C     2.418903880905850e+00   2.790877976441740e+00   3.000596223759052e+00 -6.28591400e-02  -2.24951000e-03   1.31292000e-03
C     3.627756449951485e+00   2.093023511135617e+00   3.000378308999056e+00 -2.88610400e-02   1.54635600e-02   5.01610000e-04
C     4.836022395999803e+00   2.792017259841668e+00   3.001101578282444e+00 -2.39990800e-02  -3.41315800e-02  -3.34245000e-03
C     6.043791029097171e+00   2.093437620849771e+00   3.000513178615190e+00  9.08958700e-02   1.19418900e-02   2.98670000e-04
C     7.253575839396385e+00   2.791526678990766e+00   3.000472587104274e+00  1.82221100e-02  -3.97128200e-02   5.47530000e-04
C     8.464012058127018e+00   2.093431568598687e+00   2.999898651506175e+00 -1.07824900e-01   9.20837000e-03   8.73731000e-03
C     9.671402736307064e+00   2.791774129699836e+00   3.000252774887632e+00  4.69703800e-02   3.05408600e-02   4.85769000e-03
C     2.418658611840908e+00   4.187054077208794e+00   3.000449953721475e+00 -2.58481500e-02   6.15843000e-03  -1.29874700e-02
C     3.627116692915503e+00   4.885239978427372e+00   2.999029785284038e+00 -2.71495000e-03   4.48915700e-02   1.61520600e-02
C     4.835384761916675e+00   4.187256872851674e+00   3.001030054651407e+00  6.98087200e-02   3.90058900e-02  -1.22680400e-02
C     6.045435493927733e+00   4.885480987424908e+00   3.000166564540682e+00 -3.99554100e-02   1.13175100e-02   1.42931300e-02
C     7.254136936300369e+00   4.187065731277463e+00   3.000821415178186e+00 -1.75576500e-02   1.20123600e-02  -1.16780600e-02
C     8.462771062533346e+00   4.885256626203317e+00   2.999252644701856e+00  1.35660300e-02   2.82561100e-02   2.03910100e-02
C     9.671977367851424e+00   4.188611527638481e+00   3.001172581190721e+00  2.78097100e-02  -3.80058700e-02  -2.47797100e-02
C     1.088190623376120e+01   4.886113010943475e+00   2.999049194025477e+00 -2.62910600e-02  -6.04098000e-03   1.68268700e-02
C     3.627999148567301e+00   6.281821645845740e+00   2.999338889486343e+00 -8.81261100e-02   1.69878900e-02  -7.94606000e-03
C     4.836900540243152e+00   6.979285468997129e+00   2.999362567227250e+00 -3.59874900e-02   4.58160000e-02   1.70538500e-02
C     6.045230675375262e+00   6.282302843921070e+00   3.001109704181935e+00  1.58005000e-02  -8.05322200e-02  -1.60647200e-02
C     7.253886932707736e+00   6.979267575126906e+00   3.000630052642423e+00  1.55159000e-03   8.34103800e-02   1.01568000e-03
C     8.462278551193627e+00   6.281364193861567e+00   2.999847951354590e+00  5.63233400e-02   3.01290600e-02  -4.81060000e-03
C     9.671613750621287e+00   6.981294572519075e+00   2.999136837054398e+00  1.29684000e-03  -8.39654600e-02   4.63747000e-03
C     1.088183314253233e+01   6.282557903098791e+00   2.999055299267736e+00 -8.29924400e-02  -2.88043000e-03  -5.26790000e-03
C     1.208900439705979e+01   6.981292659718384e+00   2.999260811319245e+00  1.22512280e-01  -9.82992000e-02   7.02401000e-03
