2
Lattice="2.472 0 0 1.236 2.14081479815513 0 0 0 30 " PBC="1 1 1" Properties=species:S:1:pos:R:3:force:R:3 Energy="-16.12954485"
C     0.000000000000000e+00   0.000000000000000e+00   3.000000000000000e+00 -0.00000000e+00   0.00000000e+00  -0.00000000e+00
C     1.236000000000000e+00   7.136049327183773e-01   3.000000000000000e+00  0.00000000e+00  -0.00000000e+00   0.00000000e+00
