2
Lattice="2.524 0 0 1.262 2.18584811915192 0 0 0 30 " PBC="1 1 1" Properties=species:S:1:pos:R:3:force:R:3 Energy="-16.05776868"
C     0.000000000000000e+00   0.000000000000000e+00   3.000000000000000e+00 -0.00000000e+00   0.00000000e+00   0.00000000e+00
C     1.262000000000000e+00   7.286160397173076e-01   3.000000000000000e+00  0.00000000e+00  -0.00000000e+00  -0.00000000e+00
