32
Lattice="9.744 0 0 4.872 8.43855153447557 0 0 0 30 " PBC="1 1 1" Properties=species:S:1:pos:R:3:force:R:3 Energy="-257.76833033"
C    -5.211728904349840e-04   1.115945160040284e-03   3.000658482302885e+00  4.87701200e-02  -8.28937400e-02  -1.52743700e-02
C     1.219186015327533e+00   7.025017189381640e-01   2.999115529930984e+00 -6.37833700e-02   2.30159400e-02   8.99961000e-03
C     2.436994798582378e+00  -1.050796570207735e-03   2.998965510511619e+00 -3.18991400e-02   4.95968400e-02   8.03285000e-03
C     3.654106050503591e+00   7.022124055824022e-01   2.999713509999694e+00  3.12594700e-02   3.85804700e-02  -7.60830000e-03
C     4.872410613231063e+00  -1.725442610393497e-04   2.998889077565037e+00 -4.01392400e-02  -2.88852800e-02   1.01890400e-02
C     6.089255280668593e+00   7.030826903759217e-01   2.998934428505457e+00  4.11638100e-02  -1.24880700e-02  -2.63217000e-03
C     7.307506873898989e+00   1.080684872199067e-03   2.999470927780554e+00  9.42120000e-04  -9.10910900e-02   8.69037000e-03
C     8.525434101479405e+00   7.029866133670355e-01   3.000794112621593e+00  2.28160500e-02   6.88399600e-02  -8.81000000e-03
C     1.218016322815536e+00   2.109076325647120e+00   2.999610698668153e+00  7.48574300e-02  -1.09300900e-02  -9.79869000e-03
C     2.437155813430230e+00   2.812081477446594e+00   2.999372175012516e+00 -7.28573900e-02   2.76936300e-02   4.65545000e-03
C     3.654463958888173e+00   2.109355149952238e+00   2.999906073815255e+00  1.74142000e-03  -3.67620200e-02  -5.90900000e-03
C     4.872426848068440e+00   2.811841351242841e+00   2.999352064552788e+00  2.80152000e-03   4.35777700e-02  -1.15948000e-03
C     6.090054709827353e+00   2.108588251840494e+00   2.999001816597031e+00 -1.97920900e-02   3.58154300e-02   1.09027000e-02
C     7.306986545702047e+00   2.812418853638233e+00   3.001000960682062e+00  7.76991900e-02   4.29477400e-02  -1.30919100e-02
C     8.526808727671646e+00   2.110247079155859e+00   2.999925102292724e+00 -6.34363000e-02  -3.30135100e-02   6.07892000e-03
C     9.744894802166355e+00   2.812312856827671e+00   2.998980865532995e+00 -3.46913700e-02   3.43859200e-02   1.84873100e-02
C     2.435145479157802e+00   4.219263020976816e+00   2.999521842264007e+00  8.52989600e-02  -6.99918100e-02   1.86073000e-03
C     3.653517104102837e+00   4.921288389653831e+00   3.000193572761469e+00  2.31493300e-02   7.03690300e-02  -7.65624000e-03
C     4.872531822803865e+00   4.219049861079793e+00   2.999178980791903e+00 -4.99297400e-02  -2.95635900e-02   7.76148000e-03
C     6.089294307069175e+00   4.923122054802278e+00   2.999653571931751e+00  4.15855300e-02  -6.67595000e-03   4.63220000e-04
C     7.307724856568383e+00   4.219894325025600e+00   3.000895075427402e+00 -1.19804500e-02  -4.16197900e-02  -8.60967000e-03
C     8.526608086045094e+00   4.922238548774629e+00   2.999805314543908e+00 -3.51116100e-02  -2.31089600e-02   1.47719000e-02
C     9.744130510672342e+00   4.219191683770527e+00   3.000880782416724e+00  2.85489200e-02  -3.24887900e-02  -2.19193100e-02
C     1.096278861517885e+01   4.921450767484785e+00   2.999563125284124e+00 -8.32235600e-02   5.02923000e-02   7.73203000e-03
C     3.653806060337272e+00   6.329306680238671e+00   3.000320366214248e+00  1.08843700e-02  -7.35518400e-02  -6.60231000e-03
C     4.872036951923209e+00   7.031769519418879e+00   2.998884880711578e+00 -4.48511700e-02   7.99913500e-02   1.61048100e-02
C     6.088871942106018e+00   6.329596355677126e+00   2.999221046505746e+00  6.54064200e-02  -1.20278500e-02  -3.38870000e-04
C     7.307763467086939e+00   7.032919323874311e+00   2.999851497072274e+00  1.78973100e-02  -1.12861220e-01  -8.36739000e-03
C     8.526103568479675e+00   6.327732914781616e+00   2.999834789232183e+00 -2.49362700e-02   7.85323600e-02   3.89809000e-03
C     9.743912610882299e+00   7.031684740389345e+00   3.000289474668293e+00 -2.78451000e-03  -1.02706900e-02  -1.25935500e-02
C     1.096134472269226e+01   6.328065226799257e+00   2.999695266712999e+00  6.25327100e-02   2.10880700e-02   5.18955000e-03
C     1.218032541543058e+01   7.031785379831234e+00   3.000126672530445e+00 -5.79384900e-02   4.34974900e-02  -3.44679000e-03
