32
Lattice="9.684 0 0 4.842 8.3865900102485 0 0 0 30 " PBC="1 1 1" Properties=species:S:1:pos:R:3:force:R:3 Energy="-257.33734603"
C     2.680888683393563e-03   1.154109155078482e-03   3.003294339159646e+00 -1.94756000e-01  -4.58068900e-02  -4.53462000e-03
C     1.212369215039479e+00   6.980878130974122e-01   3.002476353307865e+00  5.00130000e-02   1.69202800e-02  -3.26390000e-02
C     2.422954661913206e+00  -2.505392870987485e-03   2.996633899876020e+00  4.36763800e-02   5.80438600e-02   8.23902800e-02
C     3.633697471308995e+00   7.013755615051375e-01   3.001940961555306e+00 -9.76078300e-02  -3.33727480e-01  -5.98364700e-02
C     4.843455426943073e+00  -3.276170347679178e-03   2.997809527344362e+00 -1.06864780e-01   2.11364450e-01   6.16388000e-03
C     6.052640695143849e+00   6.965386313534041e-01   2.998239523694607e+00 -9.73239600e-02   2.42214430e-01   5.57891000e-03
C     7.258693078154728e+00   2.751506166198237e-03   3.002207615786519e+00  3.36116370e-01  -3.32871040e-01  -4.71324600e-02
C     8.473350839445208e+00   6.984810735882431e-01   3.001168394948942e+00 -4.66274400e-02   1.26969570e-01   1.66240000e-04
C     1.210858991204283e+00   2.096710411637328e+00   3.000662466289449e+00  3.66824500e-02  -1.05134710e-01   1.26004300e-02
C     2.422085065105896e+00   2.793331527646541e+00   3.003980247260234e+00 -1.49755690e-01   1.87854160e-01  -5.86845600e-02
C     3.627075661048015e+00   2.094107250720161e+00   3.001438412075356e+00  4.12786230e-01   2.09933180e-01   2.16070800e-02
C     4.843264078460039e+00   2.796846556105363e+00   3.000287557981281e+00 -1.07914550e-01  -2.32199940e-01   2.13779000e-03
C     6.055151633129332e+00   2.098156058793095e+00   2.997229797480630e+00 -1.90256920e-01  -1.68392910e-01   5.23972500e-02
C     7.263802432992629e+00   2.795058167728363e+00   3.003310410099711e+00 -1.06222380e-01   2.12363630e-01  -6.12173900e-02
C     8.471474920750854e+00   2.100262797963291e+00   2.997605541407743e+00  1.62262130e-01  -3.46530670e-01   3.13943400e-02
C     9.684356892407051e+00   2.792166544861579e+00   2.996755104677251e+00 -3.21530300e-02   2.15208620e-01   3.09756300e-02
C     2.423253176173062e+00   4.194185154085425e+00   2.996743443492898e+00 -1.54703820e-01  -9.71975600e-02   3.82372400e-02
C     3.630897115169458e+00   4.891839507150618e+00   2.996697667220729e+00  1.41043700e-01  -8.46997900e-02   2.83481800e-02
C     4.842714663009131e+00   4.190337570873128e+00   3.002698755632342e+00 -7.13058000e-02   2.35049680e-01  -3.35240300e-02
C     6.050060999127373e+00   4.895955733754498e+00   3.002482627424328e+00  4.86766900e-02  -2.16579480e-01  -4.40009000e-03
C     7.260032313403936e+00   4.194713205674099e+00   3.002319826695655e+00  6.80274400e-02   2.53186600e-02   8.94257000e-03
C     8.472226586743471e+00   4.893136085770406e+00   3.000559518610011e+00  5.46441600e-02  -2.23513800e-01   1.57692900e-02
C     9.683010936852320e+00   4.191058304304047e+00   3.000765312658271e+00  9.93217900e-02   1.01363420e-01  -2.43774900e-02
C     1.089570785516375e+01   4.894251007298775e+00   3.000189720480519e+00 -1.02716010e-01  -2.35205080e-01   5.97752000e-03
C     3.632004030327569e+00   6.287400944109967e+00   2.998802870637939e+00 -8.84222400e-02   1.76844290e-01  -6.83814000e-03
C     4.841689043266197e+00   6.989508819228446e+00   3.003317853411664e+00 -3.81827800e-02   3.27796700e-02  -3.07800100e-02
C     6.050462198955334e+00   6.291781674874291e+00   3.000281713093062e+00  1.11655350e-01  -1.82065700e-02   3.68617800e-02
C     7.265120918712551e+00   6.985129293819505e+00   3.001453350040854e+00 -8.60261000e-02   1.46526730e-01  -4.64971200e-02
C     8.475371532251060e+00   6.287438698211467e+00   2.999948841516575e+00 -9.00576600e-02   1.01828890e-01  -2.73535000e-03
C     9.682613753798142e+00   6.988860954561976e+00   2.997252766760629e+00  9.84217300e-02  -8.82203600e-02   4.73361300e-02
C     1.089439458319731e+01   6.290131023661566e+00   3.003555925404311e+00 -8.32018800e-02  -1.79288100e-02  -8.47352800e-02
C     1.210239395013784e+01   6.985673074201816e+00   2.997062356426169e+00  1.80771440e-01   2.45631570e-01   7.10474400e-02
