32
Lattice="9.724 0 0 4.862 8.42123102639988 0 0 0 30 " PBC="1 1 1" Properties=species:S:1:pos:R:3:force:R:3 Energy="-257.64761261"
C    -4.669101301686959e-04   4.714068619118605e-05   3.000652231615199e+00  4.58001800e-02   2.52720600e-02  -2.54197300e-02
C     1.216203095609631e+00   7.026700885738688e-01   2.999241336903033e+00 -7.10783900e-02  -6.50236700e-02   2.22779300e-02
C     2.430439667252095e+00  -9.256905258509324e-06   3.000581304967234e+00  2.98514400e-02  -1.71137700e-02  -1.62970300e-02
C     3.645758428291681e+00   7.009907128947808e-01   3.000094386634596e+00  2.14344000e-02   9.51437600e-02   5.90809000e-03
C     4.861471903184809e+00   6.343448226623620e-04   2.999440123541141e+00  1.41426500e-02  -2.05007500e-02   5.85960000e-03
C     6.076998045927142e+00   7.028933599987207e-01   3.001004524026922e+00  2.80816700e-02  -9.92715000e-02  -1.36113400e-02
C     7.293165733049181e+00  -3.526808741742054e-05   3.000373655325047e+00 -3.71978300e-02   1.56981900e-02  -3.61513000e-03
C     8.508589046067824e+00   7.029743934595705e-01   2.999129659369696e+00 -1.91755700e-02  -9.15369900e-02   2.60985200e-02
C     1.216655555518511e+00   2.105598400819271e+00   3.000536001970931e+00 -6.74544300e-02   2.19890000e-02  -1.76152000e-02
C     2.430501799542014e+00   2.807320429608261e+00   3.000609294832573e+00  8.45136300e-02   2.64569400e-02  -4.34590000e-03
C     3.646843661170551e+00   2.106336797586059e+00   3.000945003216850e+00 -4.20489800e-02  -8.15109000e-02  -4.70708000e-03
C     4.862351696057968e+00   2.806580215498820e+00   3.000443885315895e+00 -8.16017000e-03   6.31709700e-02  -8.26673000e-03
C     6.076957880358456e+00   2.104399607817380e+00   3.000169968886055e+00  3.49513900e-02   7.74538000e-02   1.19411300e-02
C     7.292778923630537e+00   2.807223853713010e+00   3.000861408854745e+00 -2.16308200e-02  -3.82113000e-02  -9.56952000e-03
C     8.507519623639007e+00   2.104953664124564e+00   3.001151374525937e+00  1.02468860e-01   9.63387500e-02  -2.45379400e-02
C     9.725025799656059e+00   2.808216337033299e+00   2.998908374971766e+00 -8.47261400e-02  -9.35736400e-02   3.01887500e-02
C     2.431932424344627e+00   4.211271821663329e+00   2.999367005109579e+00 -9.41826900e-02  -5.93738000e-02   2.23417500e-02
C     3.645536873657963e+00   4.911622154188043e+00   3.000614362965574e+00  1.28494880e-01   3.62959100e-02  -1.16487900e-02
C     4.863100993156194e+00   4.211321918100342e+00   2.999238147081165e+00 -9.08705900e-02  -8.33896300e-02   1.64691500e-02
C     6.077529286106904e+00   4.911367268132577e+00   3.000056495891292e+00  8.77511000e-03   8.63647900e-02  -1.63741000e-02
C     7.292109911563904e+00   4.209882869391629e+00   2.999047522797941e+00  9.30758700e-02   5.33324400e-02   1.78091500e-02
C     8.508822655023412e+00   4.913483378791697e+00   3.000064080754021e+00 -5.50012600e-02  -9.23908300e-02   4.74536000e-03
C     9.723603302706923e+00   4.210635709801042e+00   3.001192332390360e+00  3.86403100e-02   2.83512200e-02  -1.53019700e-02
C     1.093982396417470e+01   4.912055898863146e+00   3.001156487705577e+00 -2.11476500e-02   1.50451300e-02  -9.65564000e-03
C     3.647186638800744e+00   6.314802079880136e+00   3.001180021457433e+00 -1.02978450e-01   4.94459800e-02  -1.16945300e-02
C     4.861640387779896e+00   7.017152480875230e+00   2.999547172928324e+00  3.75081100e-02   2.65797500e-02   1.45916200e-02
C     6.077840762369743e+00   6.315891418346633e+00   2.999444396668706e+00  1.57437000e-02  -1.54500400e-02   1.31646000e-03
C     7.294084007159102e+00   7.017473200496293e+00   2.999435405333014e+00 -6.88049200e-02   1.45031000e-03   1.00667100e-02
C     8.509383312061710e+00   6.315829266250718e+00   3.000487650855783e+00 -2.77949100e-02   3.38720400e-02  -1.58638400e-02
C     9.723887954129232e+00   7.018288840942905e+00   2.998934046365640e+00  1.02595500e-02  -8.45532000e-03   1.51084900e-02
C     1.093844676793207e+01   6.315428295633906e+00   3.000272866400941e+00  3.56098700e-02   2.11112200e-02  -1.30800000e-05
C     1.215381715444060e+01   7.017406301050864e+00   3.000436656821090e+00  8.29011400e-02  -7.57015000e-03   3.81482000e-03
