32
Lattice="9.644 0 0 4.822 8.35194899409713 0 0 0 30 " PBC="1 1 1" Properties=species:S:1:pos:R:3:force:R:3 Energy="-256.96401797"
C     9.471858251121999e-04  -4.050966894188618e-04   3.000774483415693e+00 -1.01476690e-01  -1.57704000e-02  -2.80949000e-03
C     1.204395030564624e+00   6.950498097634195e-01   3.000229170526801e+00  1.05019860e-01   7.82501000e-02  -7.19132000e-03
C     2.411071889660247e+00  -1.957552897499065e-04   2.999603168324598e+00 -1.73990900e-02   4.73825400e-02   4.16261000e-03
C     3.616795394351024e+00   6.958466084864423e-01   3.000568711758407e+00 -9.33778000e-03   4.18180700e-02  -1.01773200e-02
C     4.822043485789330e+00   1.901280851452647e-04   3.000350451136204e+00  4.42237800e-02   2.06297100e-02  -7.15200000e-04
C     6.028681930718282e+00   6.967669276208724e-01   2.999790727453842e+00 -4.55400700e-02  -5.98066900e-02  -8.17284000e-03
C     7.233907181316703e+00   7.805839919275268e-04   2.998925838038360e+00 -7.33445000e-03  -7.25045500e-02   1.31721700e-02
C     8.439027134377357e+00   6.967242827340993e-01   3.000569976418229e+00  1.60540800e-02  -1.00279100e-02  -1.00641800e-02
C     1.206004216651133e+00   2.088085947280005e+00   2.999095451084432e+00 -3.21608000e-02  -1.97304400e-02   2.77963000e-03
C     2.412103387629378e+00   2.783749748968625e+00   2.999317569247540e+00 -7.17943600e-02   4.17987900e-02   2.65208000e-03
C     3.617023852065799e+00   2.089178782658317e+00   2.999410785488053e+00  1.88993200e-02  -9.11288600e-02   1.16943400e-02
C     4.822413027040406e+00   2.784221701288954e+00   3.000523987802934e+00  2.66816600e-02   7.69641000e-03  -1.67431100e-02
C     6.028554449728029e+00   2.087629961876231e+00   2.999406011809004e+00 -5.48005200e-02   6.37475400e-02   1.56529000e-02
C     7.232764861219288e+00   2.784577335371508e+00   3.000540234138029e+00  3.19654000e-02   2.68255100e-02  -6.75879000e-03
C     8.438273625896297e+00   2.089167143338485e+00   2.999880653765877e+00  1.14905400e-02  -4.66155800e-02   2.02050000e-03
C     9.643695752134617e+00   2.784488412601849e+00   2.998993307572035e+00  4.70742800e-02   4.96030000e-03   1.39995100e-02
C     2.410754977107254e+00   4.176627591058332e+00   3.000638314621220e+00  1.80398900e-02  -8.77023400e-02  -1.11518000e-02
C     3.615978884973758e+00   4.871221732777641e+00   2.999930686075977e+00  1.01027000e-02   4.68312300e-02   5.46571000e-03
C     4.821601717373296e+00   4.176540443238957e+00   2.999250437255554e+00  3.47785000e-02  -3.50731000e-02   1.44103900e-02
C     6.027092791922706e+00   4.872800181279261e+00   3.000277322946751e+00  3.26091600e-02  -3.16382000e-02  -7.58349000e-03
C     7.233928871696247e+00   4.177123466380766e+00   3.000812286617499e+00 -1.19930130e-01  -4.65329500e-02  -7.35390000e-03
C     8.437730468173495e+00   4.872255734292542e+00   2.999942398493462e+00  7.84958100e-02   1.98657900e-02   1.34344300e-02
C     9.643768921694416e+00   4.176557678619244e+00   3.000785825160187e+00  8.21276000e-03  -2.84543500e-02  -1.36713700e-02
C     1.084994176712131e+01   4.871100530397497e+00   3.000489011213388e+00 -6.47053300e-02   9.08545800e-02   1.26300000e-05
C     3.615436356706586e+00   6.263220762032470e+00   3.001024177767307e+00  5.81224800e-02   2.68404000e-03  -1.17539900e-02
C     4.821771202024705e+00   6.959109525966040e+00   3.000439494272056e+00 -4.94332800e-02   3.72507400e-02   1.11606000e-03
C     6.026688671378094e+00   6.264319116629056e+00   2.999401141699184e+00  2.70012200e-02  -5.95127000e-03   3.61820000e-03
C     7.231894256333637e+00   6.961063475270301e+00   2.998954157579241e+00  8.17010800e-02  -8.74445700e-02   1.08794700e-02
C     8.438531198788652e+00   6.263579111654276e+00   3.000385783672754e+00 -3.41734000e-02   8.44293200e-02  -9.98770000e-03
C     9.644830414309796e+00   6.960207917349160e+00   3.000210272208943e+00 -9.53859500e-02  -2.57302000e-03  -2.86549000e-03
C     1.084857666664868e+01   6.264469141331597e+00   2.999287605574664e+00  8.17009700e-02  -7.46123400e-02   1.00267900e-02
C     1.205497677674954e+01   6.958840258247820e+00   2.999554938020744e+00 -2.87016500e-02   1.00541910e-01   1.90258000e-03
