2
Lattice="2.533 0 0 1.2665 2.19364234778598 0 0 0 30 " PBC="1 1 1" Properties=species:S:1:pos:R:3:force:R:3 Energy="-16.03459416"
C     0.000000000000000e+00   0.000000000000000e+00   3.000000000000000e+00  0.00000000e+00   0.00000000e+00   0.00000000e+00
C     1.266500000000000e+00   7.312141159286609e-01   3.000000000000000e+00 -0.00000000e+00   0.00000000e+00   0.00000000e+00
