32
Lattice="9.972 0 0 4.986 8.63600532653842 0 0 0 30 " PBC="1 1 1" Properties=species:S:1:pos:R:3:force:R:3 Energy="-257.81083905"
C     3.686353390836238e-03   5.373984782626380e-04   2.996430617792911e+00 -2.96192680e-01  -7.44122300e-02   5.64621400e-02
C     1.246278411517077e+00   7.173135371903493e-01   2.999342308152347e+00  5.14071400e-02   6.38738900e-02   4.13089000e-03
C     2.492524822767537e+00   4.662565481324979e-04   3.002451022425539e+00 -4.80285000e-03  -1.14344180e-01  -5.52323600e-02
C     3.737144777777168e+00   7.216618635492472e-01   2.996214135546357e+00 -2.14985600e-02  -8.93272900e-02   4.55877100e-02
C     4.981855651637023e+00   2.317222783931395e-03   2.998271739137572e+00  2.22844740e-01  -8.86207700e-02  -1.15125500e-02
C     6.232728368345822e+00   7.229051648136667e-01   2.999751445769471e+00 -4.05241300e-02  -3.26885080e-01   9.39368000e-03
C     7.482479062051132e+00  -2.034004242118440e-03   2.999157040709180e+00 -2.50447130e-01   1.50978160e-01   1.09864100e-02
C     8.722157389687236e+00   7.196721210367472e-01   3.002409469674357e+00  3.26198420e-01  -9.49299300e-02  -5.22482700e-02
C     1.245421572627002e+00   2.155330713379707e+00   3.000486710836583e+00 -8.07072000e-03   1.97740690e-01   3.15426700e-02
C     2.490636557008358e+00   2.878194921725541e+00   3.004487283844590e+00  2.28404800e-02   2.45537700e-02  -7.65602000e-02
C     3.735172699630523e+00   2.158582107686162e+00   2.997289587070859e+00  1.79004630e-01   7.45051200e-02   2.77535800e-02
C     4.987909855314913e+00   2.874509571755047e+00   2.998108350956989e+00 -1.93714210e-01   1.47202300e-01   4.34712600e-02
C     6.230088535096136e+00   2.155517764272728e+00   3.003661384097954e+00  2.58765050e-01   2.23010400e-01  -5.14036300e-02
C     7.481991798133407e+00   2.879745463497757e+00   3.002904475711769e+00 -1.57670520e-01  -1.13882660e-01   5.58987000e-03
C     8.726254612239504e+00   2.156101648625930e+00   3.001580959850853e+00 -5.87054600e-02   2.03597070e-01   2.65689500e-02
C     9.971874164492414e+00   2.880314955933000e+00   3.002525116429857e+00  3.74493300e-02  -2.53858780e-01  -3.43603900e-02
C     2.494953605727015e+00   4.319805155638243e+00   2.999853976138138e+00 -1.63173260e-01  -1.61550850e-01  -1.30640500e-02
C     3.740694544553154e+00   5.035024683055639e+00   2.995570776819708e+00  2.85327700e-02   1.46299340e-01   9.85402600e-02
C     4.989230130587747e+00   4.316875999670702e+00   3.002140493868480e+00 -9.75073800e-02  -5.63952200e-02  -7.08039400e-02
C     6.231784109387089e+00   5.040150944848163e+00   2.999820881065417e+00  1.18438840e-01  -1.33174440e-01   3.99902700e-02
C     7.481474325868888e+00   4.318164546283003e+00   3.002480530042618e+00 -6.43374300e-02   5.99787900e-02   4.75808000e-03
C     8.727161722824892e+00   5.039827698407748e+00   3.003856890659450e+00 -3.75203700e-02  -1.25847270e-01  -6.17043100e-02
C     9.974566482791934e+00   4.316029490585967e+00   2.999245586203029e+00 -1.76718700e-01   1.07794460e-01   3.76297200e-02
C     1.121559476674514e+01   5.034206290591123e+00   2.997370232057166e+00  2.81113530e-01   2.77300740e-01   2.86682100e-02
C     3.737700680864004e+00   6.477773532538712e+00   3.003266697779293e+00  1.45287210e-01  -1.29489210e-01  -1.00303080e-01
C     4.985331234578891e+00   7.196309151253141e+00   2.999254191186474e+00 -1.34505300e-02   7.57099100e-02   1.68160200e-02
C     6.231211273972857e+00   6.478121852404779e+00   3.000929214063593e+00  1.77650000e-04  -6.05157300e-02  -1.36253300e-02
C     7.477651225712208e+00   7.194721512174062e+00   3.000965751707259e+00 -4.65492000e-03   1.70436760e-01  -5.18673000e-03
C     8.722083913788973e+00   6.477132841974183e+00   2.998142115726407e+00  2.24750010e-01  -2.13130500e-02   4.60897400e-02
C     9.973475596194312e+00   7.195063542564965e+00   2.998803200551151e+00 -1.54588380e-01   1.95087820e-01  -1.01779300e-02
C     1.122006290577959e+01   6.480122344402134e+00   2.999230786565383e+00 -9.85248600e-02  -2.52395900e-01  -3.34533300e-02
C     1.246667665527703e+01   7.197037976752029e+00   2.996838646265291e+00 -5.47077000e-02  -2.11266300e-02   5.56566100e-02
