32
Lattice="9.64 0 0 4.82 8.34848489248199 0 0 0 30 " PBC="1 1 1" Properties=species:S:1:pos:R:3:force:R:3 Energy="-256.92067761"
C    -6.699964576737280e-04   8.934648578874772e-04   2.999293193164368e+00  5.01822200e-02  -5.47831000e-02   7.76258000e-03
C     1.206008852288130e+00   6.956791453384945e-01   3.000269302709595e+00 -7.42963200e-02   7.30770000e-04  -1.61193800e-02
C     2.410640837934118e+00   4.438735077379321e-05   2.999510289208799e+00 -5.36323100e-02  -1.05799100e-02   9.05305000e-03
C     3.614247408161074e+00   6.946966608312224e-01   3.000574641113840e+00  5.69946200e-02   4.22656000e-02  -1.84852000e-03
C     4.819858555227180e+00  -8.234732188125107e-04   3.000915648245195e+00  8.49702000e-03   2.38997400e-02  -1.82138400e-02
C     6.024455548373401e+00   6.955003807694843e-01   2.999508552637888e+00  1.49224800e-02   6.13020000e-04   1.48795900e-02
C     7.230310378860400e+00   1.924091225568036e-04   3.000240829363866e+00 -4.84819600e-02  -1.66224700e-02  -1.03625700e-02
C     8.434435624073263e+00   6.951881673458447e-01   2.999406147575915e+00  4.21937700e-02   9.85518300e-02  -3.85931000e-03
C     1.204584429113930e+00   2.086263659085072e+00   2.999194126995495e+00  7.40919200e-02   1.03400580e-01   7.60465000e-03
C     2.411118072575054e+00   2.783937443877834e+00   2.999249079319986e+00 -1.10991650e-01  -1.04953220e-01   1.27718500e-02
C     3.613853578813527e+00   2.086409201987273e+00   3.000481623110045e+00  9.33728000e-02   5.49775000e-03  -7.21680000e-03
C     4.820673630151189e+00   2.781678566246774e+00   3.000187167488093e+00 -1.11244280e-01   5.16491900e-02   1.09469400e-02
C     6.023798957636246e+00   2.087158512115189e+00   3.000336906374475e+00  1.36951850e-01  -3.32532600e-02  -1.39253000e-03
C     7.231170354810758e+00   2.782247722701347e+00   3.000729017493483e+00 -9.27730500e-02   6.43532700e-02  -7.35692000e-03
C     8.435892864239674e+00   2.088140049690106e+00   2.998800336252203e+00 -4.24648800e-02  -8.67066100e-02   1.50883400e-02
C     9.639926466975938e+00   2.783988637151626e+00   2.999756456977406e+00  3.28016900e-02  -1.13723580e-01  -6.78296000e-03
C     2.410756095270985e+00   4.174354406401108e+00   3.000652758350008e+00 -3.20413500e-02  -1.69075000e-02  -2.44322200e-02
C     3.614963683890722e+00   4.868814679482944e+00   2.999003526909049e+00  1.29368800e-02   6.84333600e-02   2.93962100e-02
C     4.819063603687831e+00   4.173642946960168e+00   3.001120445854989e+00  1.03899660e-01   4.98960000e-03  -2.07684200e-02
C     6.025317556187098e+00   4.870712671702796e+00   3.000159257610584e+00 -4.62809100e-02  -3.46699600e-02   1.92476400e-02
C     7.230326208455453e+00   4.174994131003738e+00   3.001028305102738e+00  8.69519000e-03  -4.50206400e-02  -1.32908500e-02
C     8.435994430500527e+00   4.870732314450750e+00   2.999022028584547e+00 -6.45904000e-02  -5.10298900e-02   2.02571600e-02
C     9.639665126688499e+00   4.173123023007537e+00   3.000111723619983e+00  6.44456600e-02   1.17600420e-01  -1.28446400e-02
C     1.084571370395727e+01   4.868867774769967e+00   2.999249689243261e+00 -4.00384000e-02   2.32048900e-02   1.57343600e-02
C     3.614675801420669e+00   6.260747410350859e+00   3.000711160809740e+00  5.06595700e-02   9.51099000e-03  -1.70101900e-02
C     4.819643548795197e+00   6.957405438948755e+00   2.999984130275071e+00 -8.43008000e-03   5.25171000e-03   8.34729000e-03
C     6.025201234382366e+00   6.262422380799726e+00   3.001068931597658e+00 -4.80268500e-02  -3.53033100e-02  -1.71378100e-02
C     7.229064178749513e+00   6.957898711203316e+00   2.999628927845732e+00  6.81793600e-02  -4.36342300e-02   9.05353000e-03
C     8.434037993727600e+00   6.261082685210713e+00   3.000024955061587e+00  7.93986700e-02   6.99948500e-02  -1.75930600e-02
C     9.641111258427536e+00   6.956761089137930e+00   2.998824810281957e+00 -7.46678900e-02  -4.37042800e-02   2.03099200e-02
C     1.084586689359764e+01   6.260426446267883e+00   2.999947797096008e+00 -9.99687000e-03   1.69852400e-02  -1.38395000e-02
C     1.205084345187805e+01   6.957106262235461e+00   2.999871324865293e+00 -4.02661800e-02  -1.60408800e-02   9.61641000e-03
