32
Lattice="9.804 0 0 4.902 8.49051305870264 0 0 0 30 " PBC="1 1 1" Properties=species:S:1:pos:R:3:force:R:3 Energy="-257.99792878"
C     2.350355238366315e-03   4.458170279473740e-04   3.000554535932524e+00 -3.04982040e-01  -7.97376400e-02  -2.67842000e-03
C     1.224739190254969e+00   7.039873714170931e-01   3.002651358848355e+00  1.29821970e-01   2.59575290e-01  -2.93080200e-02
C     2.451522952605510e+00  -3.650913208153163e-03   2.998239060678175e+00 -5.41816300e-02   2.21065600e-01   2.06356300e-02
C     3.676013517350009e+00   7.062305182375702e-01   2.998882801713882e+00 -4.24662000e-02   2.26425900e-02  -8.35330000e-03
C     4.898198948996814e+00   7.557655204715619e-06   3.000385580754203e+00  2.73408110e-01  -1.16385780e-01  -4.04627600e-02
C     6.129182429015694e+00   7.046594721405300e-01   2.998585653749985e+00 -3.41347740e-01   2.80248100e-02   5.04118000e-03
C     7.349679828530217e+00  -3.266784160161501e-03   3.000073258297908e+00  2.63939510e-01   2.38243640e-01  -2.45654600e-02
C     8.576806050019249e+00   7.096892581319585e-01   3.000386015906972e+00  6.33063400e-02  -1.52627280e-01  -2.02755700e-02
C     1.223828195414551e+00   2.125916749213030e+00   3.002300412884226e+00 -6.87586900e-02  -2.56957220e-01  -7.35394000e-03
C     2.447778931647926e+00   2.832042986131901e+00   2.997598026932982e+00  1.92813090e-01  -2.13693730e-01   4.38903000e-03
C     3.678936523930734e+00   2.119493639192305e+00   2.996499006576562e+00 -1.85593630e-01   2.94579250e-01   1.24074800e-02
C     4.903676520517322e+00   2.834116440193982e+00   2.997221440140872e+00 -1.93145210e-01  -3.56693370e-01   8.38065000e-03
C     6.123399108252327e+00   2.118111275629740e+00   2.997268743633448e+00  2.91509960e-01   2.11328940e-01   2.57036300e-02
C     7.352988674038751e+00   2.827656797209193e+00   3.001199845026411e+00 -2.60719440e-01   1.21809420e-01  -3.05591800e-02
C     8.575958293939767e+00   2.124798020733324e+00   2.997025601763804e+00  6.96929800e-02  -1.03010420e-01   6.61800400e-02
C     9.800837216093660e+00   2.833027427986977e+00   3.002023084054865e+00  1.61944970e-01  -9.97721700e-02  -3.41860000e-02
C     2.446924534886231e+00   4.243722848117745e+00   2.995968082285604e+00  2.99059710e-01   1.50894760e-01   3.29258500e-02
C     3.679573918322369e+00   4.949002185401323e+00   2.996310581474723e+00 -4.12003020e-01   2.92314010e-01   3.62573800e-02
C     4.898627890423232e+00   4.246074096482015e+00   3.000686212728418e+00  2.76058030e-01  -1.51612500e-02  -4.28304800e-02
C     6.127524787406873e+00   4.950590914764573e+00   3.000678995206966e+00 -7.77508400e-02   2.72174430e-01   3.78308000e-02
C     7.349047180517733e+00   4.245978022376875e+00   3.003706552359243e+00  3.01049520e-01  -1.71704520e-01  -2.87084700e-02
C     8.581182352581948e+00   4.951750604707454e+00   3.001349335570203e+00 -2.46727390e-01   8.57307600e-02   2.18635000e-03
C     9.806815600646541e+00   4.245992404882072e+00   2.999425731054063e+00 -1.26180340e-01   7.35475400e-02   4.41441200e-02
C     1.103066813416986e+01   4.955814173354716e+00   3.002216386958103e+00 -4.49595300e-02  -1.30579920e-01  -6.97591200e-02
C     3.674877511004457e+00   6.370693231337706e+00   3.000825048152387e+00  1.46408600e-02  -3.28598850e-01  -6.11864300e-02
C     4.898364430828260e+00   7.072433470950913e+00   2.997686978866307e+00  2.96671280e-01   2.05805550e-01   5.59278500e-02
C     6.131022788143460e+00   6.369982989353391e+00   3.001802795618040e+00 -2.71249230e-01  -2.17954300e-01  -4.33688300e-02
C     7.355078399446200e+00   7.075791685729191e+00   2.998470944015692e+00 -1.29513700e-01  -3.41945300e-02   2.76382800e-02
C     8.575373842406966e+00   6.368852866402669e+00   3.000455868354463e+00  3.26388740e-01  -1.72102120e-01  -2.68302100e-02
C     9.805119385683033e+00   7.074281274185420e+00   2.996821406144790e+00 -1.62218910e-01   5.89195600e-02   3.68855100e-02
C     1.103045405753708e+01   6.368006750984453e+00   2.997321864108972e+00 -4.52206100e-02   7.00492400e-02   1.56520900e-02
C     1.225405955624619e+01   7.077195864920891e+00   2.996871626129124e+00  6.71308000e-03  -1.57532310e-01   3.82403200e-02
