32
Lattice="9.68 0 0 4.84 8.38312590863337 0 0 0 30 " PBC="1 1 1" Properties=species:S:1:pos:R:3:force:R:3 Energy="-257.16547275"
C    -1.710700831810857e-03  -9.913910933989512e-03   3.007324687215823e+00 -4.00256610e-01   2.74860780e-01  -1.79353400e-02
C     1.205522884477636e+00   6.862660596011732e-01   3.005468387405974e+00 -4.14780300e-02   1.03080980e+00   6.32567000e-02
C     2.415821954178614e+00   1.316259332226637e-02   3.006457968817302e+00  3.22552650e-01  -8.96127570e-01  -8.20631900e-02
C     3.633549978617570e+00   6.947155130670646e-01   3.002449742314394e+00 -6.59556610e-01   8.70086790e-01  -6.52810900e-02
C     4.829899435321277e+00   1.080684304929243e-02   2.990141607063318e+00  1.15561025e+00  -8.94517740e-01   2.32220200e-01
C     6.059554392968140e+00   6.947469520648012e-01   3.008336729096230e+00 -9.56436040e-01   4.73550370e-01  -2.58761770e-01
C     7.259799939122696e+00   1.050461141266844e-03   2.997375223381735e+00 -1.02264380e-01  -5.52384330e-01   1.06565750e-01
C     8.461207247098404e+00   7.001063502292133e-01   2.997873751191131e+00  8.01109920e-01  -8.93657000e-03   2.46796800e-02
C     1.219200997042681e+00   2.098842724548701e+00   3.007555674421440e+00 -1.21655177e+00  -6.53507180e-01  -4.82991400e-02
C     2.413590797769699e+00   2.789136928176819e+00   2.995152052839048e+00  2.93229190e-01   4.37380610e-01   3.83647500e-02
C     3.617566771807251e+00   2.098238988431152e+00   2.996393281224017e+00  6.97627480e-01  -2.43178310e-01   1.52258700e-02
C     4.830598186569351e+00   2.798034339334115e+00   2.995103734796876e+00  3.73232320e-01  -1.47792590e-01  -2.51833000e-02
C     6.045772925907828e+00   2.095516498770783e+00   2.992423158303680e+00  2.43424460e-01  -2.05261660e-01   1.56189730e-01
C     7.269559414858390e+00   2.783215064158595e+00   3.003462597825881e+00 -8.98396140e-01   5.03830770e-01  -9.48652500e-02
C     8.478030183685753e+00   2.105902246197131e+00   2.996755722462816e+00 -3.28053090e-01  -9.06557170e-01   9.00493700e-02
C     9.675310542016172e+00   2.801137834979647e+00   3.005933787381088e+00  9.95036250e-01  -4.31048030e-01  -1.09411040e-01
C     2.415704315074679e+00   4.187990795395761e+00   2.991893575001934e+00  7.94022300e-01   2.98226810e-01  -2.49911000e-03
C     3.636850574381863e+00   4.901147615127209e+00   2.992023007653461e+00 -3.35259670e-01  -7.36712000e-01   1.05571360e-01
C     4.852517816220878e+00   4.194758810515534e+00   2.998303641560903e+00 -8.16043140e-01   3.11159740e-01  -7.75902700e-02
C     6.053407161667905e+00   4.903304259609551e+00   2.995693625907093e+00  6.49651400e-02  -1.05428569e+00   1.21723540e-01
C     7.246678007920238e+00   4.178642518616407e+00   3.004566944957311e+00  1.08776832e+00   8.24364930e-01  -8.88760000e-02
C     8.465976155090168e+00   4.895996995558171e+00   2.995900908259007e+00  1.54574040e-01  -5.94831970e-01   1.21477700e-02
C     9.690483233927491e+00   4.186397815226463e+00   2.987856802331795e+00 -9.49613480e-01   7.28895140e-01   1.57442660e-01
C     1.089514704142680e+01   4.884988321793591e+00   2.995201353944300e+00 -6.94160500e-02   3.40756900e-02  -7.75140600e-02
C     3.626628917190567e+00   6.296619347767723e+00   3.009326066032556e+00 -2.16895290e-01  -6.32210160e-01  -8.27027700e-02
C     4.832878137774725e+00   6.977403121326634e+00   3.012472174101911e+00  6.84755330e-01   3.78598040e-01  -2.28958600e-02
C     6.057855387107822e+00   6.283448209788671e+00   3.005578241873377e+00 -2.15672710e-01   8.49211370e-01  -8.61571300e-02
C     7.266888096783796e+00   6.994985421768452e+00   2.992831698052673e+00 -2.41946620e-01  -4.75178300e-02   1.62958500e-01
C     8.478764922429043e+00   6.297290375978156e+00   2.999467851089006e+00 -3.29605190e-01  -4.13281550e-01  -5.55812500e-02
C     9.687321231783372e+00   6.985975458089654e+00   3.003767141727964e+00  1.67151000e-03   3.73579790e-01  -1.57843690e-01
C     1.089903328714672e+01   6.280750410968587e+00   2.994017401743776e+00 -8.79005100e-01  -2.72652000e-03   1.00048840e-01
C     1.208626944521799e+01   6.973286144509174e+00   3.003101152068076e+00  9.86870780e-01   1.03224625e+00  -3.29844300e-02
