2
Lattice="2.464 0 0 1.232 2.13388659492486 0 0 0 30 " PBC="1 1 1" Properties=species:S:1:pos:R:3:force:R:3 Energy="-16.13047192"
C     0.000000000000000e+00   0.000000000000000e+00   3.000000000000000e+00  0.00000000e+00   0.00000000e+00   0.00000000e+00
C     1.232000000000000e+00   7.112955316416190e-01   3.000000000000000e+00  0.00000000e+00   0.00000000e+00   0.00000000e+00
