2
Lattice="2.421 0 0 1.2105 2.09664750256213 0 0 0 30 " PBC="1 1 1" Properties=species:S:1:pos:R:3:force:R:3 Energy="-16.08420978"
C     0.000000000000000e+00   0.000000000000000e+00   3.000000000000000e+00  0.00000000e+00   0.00000000e+00   0.00000000e+00
C     1.210500000000000e+00   6.988825008540418e-01   3.000000000000000e+00 -0.00000000e+00   0.00000000e+00  -0.00000000e+00
