32
Lattice="9.776 0 0 4.888 8.46626434739667 0 0 0 30 " PBC="1 1 1" Properties=species:S:1:pos:R:3:force:R:3 Energy="-257.91991192"
C     1.145970976192469e-04   7.280652080146873e-04   3.000783062194472e+00 -1.34939500e-02  -5.64104200e-02  -1.24893400e-02
C     1.221076289874533e+00   7.057713218543209e-01   3.000062357641743e+00  7.49264700e-02   8.24406000e-03   7.86546000e-03
C     2.443911792143800e+00  -6.978660062648335e-05   3.000324350187992e+00  2.15678000e-02   5.38681700e-02  -3.30511000e-03
C     3.667040322523875e+00   7.062931180758166e-01   3.001086215642825e+00 -4.29991100e-02  -4.79487900e-02  -1.26080700e-02
C     4.889025466087193e+00  -2.081535337181046e-04   3.000796284435869e+00 -1.07809800e-02   4.91700600e-02  -2.67507000e-03
C     6.111090659730443e+00   7.058349735038298e-01   2.999394547372535e+00 -2.96737100e-02   1.09356400e-02  -3.12896000e-03
C     7.332225705606504e+00   8.808269142621792e-04   2.998896417742908e+00  4.35247400e-02  -7.07197700e-02   9.20730000e-03
C     8.554867127649631e+00   7.060602320085696e-01   2.999501359079678e+00 -4.66770700e-02   7.21894000e-03  -2.34292000e-03
C     1.221964333418007e+00   2.117407496166299e+00   3.000250488355972e+00 -2.10430000e-03  -7.36792200e-02  -1.42143500e-02
C     2.443162064383237e+00   2.822151909691272e+00   2.999236487654271e+00  6.37165200e-02  -1.45677900e-02   9.17450000e-04
C     3.666416572479323e+00   2.116685229827868e+00   2.999160304909497e+00 -5.91367000e-03   2.33906500e-02   1.73689100e-02
C     4.889057020807209e+00   2.822193093552313e+00   3.000372849869114e+00 -5.03320300e-02  -1.07980000e-02  -2.23773600e-02
C     6.110418773354281e+00   2.117345588976977e+00   2.998811137542465e+00  3.06714900e-02  -3.94780700e-02   1.69602400e-02
C     7.332850132645039e+00   2.821929431480950e+00   2.999944904818175e+00 -2.07582900e-02   5.86550500e-02  -6.64889000e-03
C     8.554526105170403e+00   2.117397514509312e+00   2.999054790305666e+00 -1.34096400e-02  -5.46724700e-02   1.80076000e-03
C     9.776274613218353e+00   2.821407113210607e+00   2.998875083321109e+00  3.79380000e-03   5.95112600e-02   2.20033000e-02
C     2.443463925428051e+00   4.232627861447359e+00   2.999104250869942e+00  6.73678400e-02   1.57015900e-02   6.69936000e-03
C     3.666544917355789e+00   4.937929306741720e+00   3.000710841035586e+00 -3.62011000e-02   9.73112000e-03  -1.39762700e-02
C     4.888544759932347e+00   4.232757379389463e+00   2.999313790997177e+00 -2.94067900e-02  -1.77226000e-03   2.34834400e-02
C     6.109351679150246e+00   4.937699436639674e+00   3.001075062973245e+00  3.68519500e-02   1.08073560e-01  -8.51557000e-03
C     7.332100643959698e+00   4.234099569382844e+00   3.000944794452374e+00 -2.31468100e-02  -5.94834200e-02  -9.92870000e-03
C     8.552811328486110e+00   4.939555719633287e+00   2.999514757586242e+00  1.26934760e-01  -5.81666500e-02   1.79853300e-02
C     9.777094787205508e+00   4.231949465613274e+00   3.001164059384557e+00 -9.16680000e-02   8.60230900e-02  -2.89041100e-02
C     1.099876839082391e+01   4.938209774414281e+00   2.999507399398700e+00 -4.48275200e-02   8.95369000e-03   1.03099900e-02
C     3.665783197063198e+00   6.349307220330099e+00   3.001101023809232e+00  3.88515000e-02  -3.36629800e-02  -5.60643000e-03
C     4.887849481272546e+00   7.054750450970394e+00   3.000466232330973e+00 -1.85702000e-02   6.43287000e-02   9.90067000e-03
C     6.108999975228949e+00   6.350799616948050e+00   3.000816570816537e+00  6.51310400e-02  -8.83757000e-02  -9.56121000e-03
C     7.332535556822906e+00   7.055763934444415e+00   2.999057487560804e+00 -5.26412400e-02  -1.71347900e-02   1.61654500e-02
C     8.553953390907436e+00   6.349863362730933e+00   2.999532400255056e+00  3.16113400e-02   3.34807200e-02  -4.18870000e-04
C     9.776724887745390e+00   7.056153406695979e+00   3.000498213740873e+00 -1.68589000e-03  -7.52065700e-02  -3.90996000e-03
C     1.099910915056032e+01   6.349458214177196e+00   3.000051934782756e+00 -4.83397700e-02   5.11985000e-03   7.17600000e-04
C     1.222067855537552e+01   7.054026442471958e+00   3.000154717733080e+00 -2.23191900e-02   9.96707400e-02  -7.74050000e-04
