32
Lattice="10.036 0 0 5.018 8.69143095238062 0 0 0 30 " PBC="1 1 1" Properties=species:S:1:pos:R:3:force:R:3 Energy="-257.33126729"
C    -1.219644583394023e-02   5.982912364025505e-03   3.009628439534644e+00  6.65129570e-01  -2.38742890e-01  -1.40566490e-01
C     1.248035236961460e+00   7.183350047998054e-01   3.015760076664203e+00  3.22235010e-01   4.46597100e-01  -2.40909840e-01
C     2.516538459536297e+00   9.834353719714743e-03   2.992517660897880e+00 -5.54926440e-01  -4.04658150e-01   1.05587400e-01
C     3.761205488435862e+00   7.190579362915579e-01   2.991745587553875e+00  3.38977720e-01   4.43480520e-01   1.05281760e-01
C     5.019255152411004e+00   5.754622691792652e-03   3.007897744850094e+00 -2.11458300e-02  -7.46951400e-01  -4.82661200e-02
C     6.275689411821776e+00   7.265849297927853e-01   3.008862919500158e+00  9.88317000e-02  -1.10731010e-01  -3.35660200e-02
C     7.533872057639054e+00   8.988075469458583e-03   2.998449928645294e+00 -1.20597270e-01  -4.91400710e-01   6.18212900e-02
C     8.796063071360411e+00   7.396787099611883e-01   2.996831823845427e+00 -9.54248420e-01  -3.54462340e-01   9.16515200e-02
C     1.258989010897005e+00   2.177082010818653e+00   2.993517547924682e+00 -2.28783710e-01  -2.30103080e-01   1.03478510e-01
C     2.508814904086941e+00   2.899586002376844e+00   2.990522801957210e+00  2.65303570e-01  -1.52232320e-01  -1.74269700e-02
C     3.765032005418980e+00   2.166530109731954e+00   2.995228668553304e+00 -1.16971720e-01   2.20382570e-01  -1.02108000e-01
C     5.021423056580479e+00   2.886950094677305e+00   2.986952625729518e+00 -4.95531700e-02   3.41615350e-01   1.99816010e-01
C     6.277658808930895e+00   2.170799589430438e+00   3.009307947147612e+00 -1.76909740e-01   8.03209900e-02  -1.63395640e-01
C     7.523078613205014e+00   2.902058222905572e+00   2.998279107318240e+00  5.88549300e-02  -1.38871870e-01   9.96556100e-02
C     8.777847837956990e+00   2.177036148089488e+00   2.998799229834800e+00  4.70399720e-01   5.07976710e-01  -6.51058800e-02
C     1.004323497698927e+01   2.907464178684092e+00   2.989007572306615e+00 -3.22940680e-01  -2.47129460e-01   8.21200400e-02
C     2.511094809188579e+00   4.351262182988328e+00   2.985770325905680e+00 -3.13360140e-01  -5.79792990e-01   7.85340000e-02
C     3.749092072362211e+00   5.059776483271164e+00   2.987484795950551e+00  1.09633019e+00   2.76667000e-01   1.57195700e-02
C     5.015349084067462e+00   4.340706717728215e+00   2.992267150433511e+00 -1.09559460e-01   7.99985400e-02  -4.52699500e-02
C     6.268498858205871e+00   5.082038362830340e+00   2.997235322610310e+00 -1.14720570e-01  -3.90548770e-01  -6.60726000e-03
C     7.513517038285998e+00   4.347132511412109e+00   3.002867434528701e+00  4.91257120e-01   2.04895710e-01  -1.61541870e-01
C     8.774291694425402e+00   5.077165735144349e+00   2.985716634049457e+00  6.71397400e-02  -6.28671960e-01   1.78746540e-01
C     1.004455639865912e+01   4.351900807159660e+00   2.992293921071401e+00 -3.69693170e-01   2.38571300e-02  -3.28579000e-02
C     1.129997784361415e+01   5.065622511836676e+00   2.998856471017679e+00 -3.64609830e-01   3.59809230e-01  -1.33219570e-01
C     3.775287430610856e+00   6.506298266716747e+00   2.993262267144175e+00 -9.82144390e-01   3.53126060e-01  -5.56777000e-02
C     5.008219447157395e+00   7.246419707514357e+00   2.985614961378978e+00  5.80690750e-01  -1.68464950e-01   1.86478420e-01
C     6.283215673104819e+00   6.526275915121171e+00   2.991326866288138e+00 -5.62728620e-01   2.98199750e-01  -3.50209800e-02
C     7.535841669289906e+00   7.254460216788183e+00   2.989114997407381e+00 -4.10551330e-01  -2.70251030e-01   7.64176100e-02
C     8.769631335172237e+00   6.510322581820464e+00   2.998179150395543e+00  5.49272990e-01   4.93121010e-01  -5.41197000e-02
C     1.003193502018275e+01   7.229366458839857e+00   3.010891323140936e+00  5.49097600e-02   6.87076740e-01  -1.42502050e-01
C     1.129139675109226e+01   6.518887594633458e+00   2.995337920137773e+00 -2.42438700e-01  -2.81249780e-01   1.59423570e-01
C     1.253388294381715e+01   7.234417500733234e+00   2.999990510188392e+00  9.56550430e-01   6.17138280e-01  -6.65699100e-02
