32
Lattice="10.048 0 0 5.024 8.70182325722604 0 0 0 30 " PBC="1 1 1" Properties=species:S:1:pos:R:3:force:R:3 Energy="-257.34205964"
C    -8.472851418738213e-04   6.400095646601911e-04   3.000159265443804e+00  4.08229600e-02  -8.14847600e-02  -1.09624600e-02
C     1.255309864208894e+00   7.247531877051432e-01   2.999127057962026e+00  2.24340500e-02   6.56529000e-03   1.15946600e-02
C     2.511611120333785e+00  -1.151312689180159e-03   2.999366826219763e+00  3.44963500e-02   6.61215100e-02  -3.55120000e-04
C     3.768250629292583e+00   7.263350183359401e-01   3.000507584600764e+00 -3.13057800e-02  -6.14137700e-02  -4.76826000e-03
C     5.024552511713175e+00  -7.595830944488530e-04   2.999989453486553e+00 -4.31076000e-02   9.03892200e-02   1.54356800e-02
C     6.279269993738208e+00   7.258796089726222e-01   3.000799792167300e+00  2.88123800e-02  -2.08383700e-02  -1.47498900e-02
C     7.535076854219844e+00   1.069982933788296e-03   2.998968753403023e+00  2.25449100e-02  -3.92065800e-02   2.07987000e-02
C     8.792123886829735e+00   7.241011282391459e-01   2.999900759204050e+00 -2.72430600e-02   4.54617500e-02  -2.86012000e-03
C     1.255711155619177e+00   2.175427346330987e+00   2.999934489242266e+00  3.05065000e-02  -7.62958000e-03  -2.83470000e-04
C     2.511392025151107e+00   2.901853336308758e+00   2.999709852255921e+00  1.60117200e-02  -3.05612400e-02   1.14283900e-02
C     3.767825550230402e+00   2.176502029959396e+00   3.001088145971681e+00  1.11431600e-02  -1.31935700e-02  -9.65427000e-03
C     5.025168955046375e+00   2.900671179013283e+00   3.000999642251140e+00 -5.81229200e-02  -4.48026000e-03  -5.69947000e-03
C     6.280076967782041e+00   2.175713399382913e+00   3.000529892913537e+00  3.24340200e-02  -2.59343000e-03   5.21094000e-03
C     7.537223276142126e+00   2.900173995296767e+00   3.000471075226058e+00 -3.35550500e-02  -1.18302000e-02  -1.01866300e-02
C     8.793094657094050e+00   2.174317952842026e+00   3.000112872889363e+00 -2.96019500e-02   3.09005000e-02   6.90999000e-03
C     1.004849786206667e+01   2.900034813801453e+00   3.001005543521936e+00 -1.20768300e-02  -3.06572000e-03  -1.61558000e-02
C     2.511649252681735e+00   4.352017840307520e+00   3.000297636112207e+00 -5.60290000e-04  -3.34936900e-02   2.92885000e-03
C     3.768438632641569e+00   5.075030751239934e+00   3.000548009175577e+00 -3.86434600e-02   7.88889000e-02  -1.38204900e-02
C     5.023641377614720e+00   4.349936763867916e+00   2.999839391390355e+00  5.66362900e-02   5.08661500e-02   7.36556000e-03
C     6.280743263600268e+00   5.076153947807802e+00   2.999362033580880e+00 -6.34091700e-02  -7.86370000e-04   6.24480000e-03
C     7.535658771852336e+00   4.350625362776530e+00   2.999146726965447e+00  3.27146500e-02  -8.38606000e-03   1.02527400e-02
C     8.791640533946525e+00   5.074954863704774e+00   2.999925419402265e+00  2.65633500e-02   5.59172100e-02  -8.51784000e-03
C     1.004829935062863e+01   4.350091812114644e+00   2.999684643714117e+00 -4.21147000e-02   1.56380300e-02   1.68382600e-02
C     1.130290993597255e+01   5.076108998046234e+00   3.000754772225382e+00  3.61247400e-02   9.98396000e-03  -1.77518100e-02
C     3.767415566865466e+00   6.527544422843445e+00   2.998813637077309e+00  4.65852600e-02  -8.73435700e-02   1.98094300e-02
C     5.024473536348199e+00   7.250313974355461e+00   2.999513495769963e+00 -4.75062000e-02   9.45469900e-02   5.46527000e-03
C     6.279470428118354e+00   6.527145800588563e+00   3.000573465366918e+00  5.47251400e-02  -7.49079400e-02  -2.23346500e-02
C     7.537027869848062e+00   7.250703176201339e+00   2.998951714841013e+00 -6.42717300e-02   4.04969800e-02   1.39591900e-02
C     8.791643009320078e+00   6.526970297073734e+00   2.999650847033942e+00  4.25646400e-02  -6.53499300e-02   5.44418000e-03
C     1.004807667442246e+01   7.252715933324308e+00   3.001081782268725e+00 -7.39125000e-03  -7.59161000e-02  -2.50610600e-02
C     1.130341327969768e+01   6.525857439313400e+00   2.999108737711678e+00  2.03109100e-02   4.74534800e-02   2.73005900e-02
C     1.256031892410867e+01   7.252205347592102e+00   3.000244870115039e+00 -5.65210600e-02  -1.07488400e-02  -2.38258900e-02
