32
Lattice="9.828 0 0 4.914 8.51129766839346 0 0 0 30 " PBC="1 1 1" Properties=species:S:1:pos:R:3:force:R:3 Energy="-258.06198909"
C     7.938821071239588e-04  -1.164328119282836e-03   2.999289363462311e+00 -8.79195700e-02   6.20837400e-02   1.67748400e-02
C     1.228790962287292e+00   7.082877906307878e-01   3.000295162628368e+00 -4.18150500e-02   8.57325400e-02  -6.42217000e-03
C     2.455903908269553e+00   1.131827020025014e-03   3.001180414972446e+00  1.01584330e-01  -5.12281400e-02  -1.03540900e-02
C     3.685551910636716e+00   7.096103172677161e-01   3.000650507821898e+00 -7.64110000e-04   4.06847000e-03   5.72150000e-04
C     4.914650995158873e+00  -2.022465310217612e-04   3.000660454637638e+00 -5.49049000e-02   2.46904200e-02  -6.74310000e-04
C     6.142311306700762e+00   7.103217421746966e-01   3.000446993373331e+00  1.41826000e-03  -7.60829800e-02   6.94740000e-04
C     7.370676795387884e+00   8.818415146018789e-04   2.999706377885719e+00  9.21350000e-03  -4.37442100e-02   5.11309000e-03
C     8.598504802626360e+00   7.088445621828607e-01   2.999791430641352e+00  9.11315600e-02   4.88603800e-02  -6.90597000e-03
C     1.229095267092325e+00   2.128212399186026e+00   2.999266135454609e+00  1.48147100e-02  -5.55565300e-02   5.57541000e-03
C     2.457757954802839e+00   2.837802913588993e+00   2.999741866690330e+00 -3.45254500e-02  -9.52617000e-03   1.06470000e-03
C     3.685526084089368e+00   2.128552081091836e+00   2.999865792507404e+00  2.57471100e-02  -4.72126900e-02   4.03083000e-03
C     4.914597215399123e+00   2.836064209270972e+00   2.999969644398947e+00 -3.71587200e-02   7.91429800e-02   8.47633000e-03
C     6.142338792900453e+00   2.127200481470884e+00   3.000888551244797e+00  3.05590000e-04   3.82813400e-02  -1.70640800e-02
C     7.369820695427753e+00   2.836978404023876e+00   2.998888018002266e+00  7.56669000e-02   5.20749800e-02   2.30617800e-02
C     8.599494416458109e+00   2.128705924826508e+00   2.999594142067812e+00 -2.15751900e-02  -6.91284800e-02  -6.83933000e-03
C     9.828986706706536e+00   2.836172657517925e+00   2.999158314716215e+00 -4.01095700e-02   4.00523700e-02   3.42710000e-04
C     2.457706105661551e+00   4.256054089461817e+00   3.000541041651583e+00 -3.04734900e-02   4.68562000e-03  -7.45898000e-03
C     3.685596450329540e+00   4.964854714791291e+00   3.000984489196665e+00  2.08462300e-02  -2.37865800e-02  -9.59574000e-03
C     4.913691677238951e+00   4.255717105491875e+00   3.000477870343910e+00  3.27707500e-02  -4.32038000e-02  -2.46580000e-04
C     6.142317121221629e+00   4.965264122797567e+00   3.000231755750083e+00 -4.87522000e-03  -4.03704000e-03   3.06515000e-03
C     7.370887668365459e+00   4.256670396852555e+00   3.000599673609017e+00  2.02957100e-02  -3.79191200e-02  -1.85342100e-02
C     8.600555246615119e+00   4.965884764215789e+00   2.999558558687610e+00 -4.35204100e-02  -6.40137900e-02   9.90937000e-03
C     9.828466894738460e+00   4.254564973065256e+00   2.999267282952456e+00  1.42460200e-02   6.48489800e-02  -2.24863000e-03
C     1.105704806276067e+01   4.965542828278653e+00   2.999497251430123e+00 -2.25195900e-02  -5.15962000e-02   1.27142000e-02
C     3.686626404083621e+00   6.382255471858153e+00   2.999630816438555e+00 -8.04174300e-02   7.73305600e-02   1.70239900e-02
C     4.913256714183054e+00   7.092594711966623e+00   3.001055565695474e+00  6.93759000e-02  -2.78270200e-02  -2.33662000e-02
C     6.141960063147192e+00   6.383296062035483e+00   2.999914410311054e+00  5.79945600e-02   4.97084000e-02   8.37965000e-03
C     7.371872539212482e+00   7.093938195465203e+00   2.999945276627138e+00 -9.13789600e-02  -4.85411500e-02   1.16093800e-02
C     8.599590182620798e+00   6.384166627953949e+00   3.000773525680560e+00 -9.72992000e-03  -1.09958400e-02  -1.23090500e-02
C     9.827129374666377e+00   7.092362872275324e+00   3.000480638101819e+00  6.37450500e-02   3.99216800e-02   8.54228000e-03
C     1.105573395501425e+01   6.383363729762278e+00   3.001155829505476e+00  7.29256200e-02   4.18531400e-02  -1.63134800e-02
C     1.228621460760478e+01   7.093363556080854e+00   3.000030193812046e+00 -7.03942000e-02  -4.89358800e-02   1.38223000e-03
