2
Lattice="2.514 0 0 1.257 2.17718786511408 0 0 0 30 " PBC="1 1 1" Properties=species:S:1:pos:R:3:force:R:3 Energy="-16.07995041"
C     0.000000000000000e+00   0.000000000000000e+00   3.000000000000000e+00  0.00000000e+00  -0.00000000e+00   0.00000000e+00
C     1.257000000000000e+00   7.257292883713595e-01   3.000000000000000e+00 -0.00000000e+00   0.00000000e+00  -0.00000000e+00
