32
Lattice="10.14 0 0 5.07 8.78149759437421 0 0 0 30 " PBC="1 1 1" Properties=species:S:1:pos:R:3:force:R:3 Energy="-256.36984779"
C     2.073839026977322e-03   8.175106364401351e-03   3.011181772941624e+00  2.19523330e-01  -8.25768520e-01  -1.28699980e-01
C     1.267804612422956e+00   7.303521075144274e-01   3.006869470944678e+00  1.80352480e-01   4.29589770e-01   2.82795800e-02
C     2.538103738808084e+00   2.260933974768005e-03   3.006543746799747e+00 -4.83327900e-02  -4.82443280e-01  -1.38970340e-01
C     3.812451173933709e+00   7.224606064329779e-01   2.992280561561127e+00 -3.48222530e-01   2.15646700e-01   1.91805970e-01
C     5.078820828762217e+00  -1.833626657647679e-03   2.999779453511060e+00 -7.90719700e-02   9.87368100e-02  -1.03766990e-01
C     6.347287797578751e+00   7.341080403525103e-01   2.994335478161450e+00 -1.79886390e-01  -4.29993180e-01   1.11069090e-01
C     7.603862698617890e+00  -3.817670762927058e-03   3.009575651574652e+00  5.46689520e-01   2.87385950e-01  -1.46913090e-01
C     8.885855839133043e+00   7.235604995590765e-01   3.004108314118854e+00 -5.92521220e-01   2.75428890e-01   9.92710900e-02
C     1.262560100000348e+00   2.206705888575915e+00   3.004633997175210e+00  8.89844600e-02  -6.27405060e-01   4.35996000e-03
C     2.532452652690471e+00   2.929687056328397e+00   3.006288891651768e+00  5.75654300e-02  -3.63399210e-01  -1.09049960e-01
C     3.798540882831783e+00   2.183444862398808e+00   3.005356918125777e+00  3.96649540e-01   2.96760720e-01  -2.57834400e-02
C     5.080205518931272e+00   2.912406955969373e+00   3.009105666531978e+00 -4.70836650e-01   3.52083060e-01  -1.46138530e-01
C     6.346039276588282e+00   2.185744398371914e+00   2.998097156693328e+00 -7.74673400e-02   3.58495730e-01   1.65964100e-02
C     7.603891008662689e+00   2.929195020200417e+00   2.997211600326932e+00  2.75508130e-01  -3.78725650e-01   1.20181700e-01
C     8.880664268650268e+00   2.187170278513116e+00   3.004715003096448e+00 -6.17083080e-01   4.08965800e-02  -7.44664600e-02
C     1.012763701262801e+01   2.914620874913203e+00   3.000333685326638e+00  5.01697190e-01   6.71615620e-01  -1.32319800e-02
C     2.539063054345449e+00   4.381215055592884e+00   2.989926559127651e+00 -7.35690300e-02   3.48879760e-01   2.35182480e-01
C     3.805130213279533e+00   5.110372410753101e+00   3.011729289593723e+00 -1.03241420e-01   2.76789870e-01  -1.95748460e-01
C     5.075326966712963e+00   4.389917026495485e+00   2.997402580279950e+00  1.49721920e-01  -4.53665590e-01   2.20251600e-01
C     6.347774535857277e+00   5.116281417440956e+00   3.007650824603718e+00 -7.00439710e-01   3.50923510e-01  -1.24626780e-01
C     7.599105672615407e+00   4.389445102736808e+00   3.011547676077131e+00  1.89154510e-01  -2.30109150e-01  -1.44222010e-01
C     8.862904102919739e+00   5.113303488649368e+00   2.998850130695014e+00  4.34987830e-01   3.61389270e-01   6.53719600e-02
C     1.012568238555149e+01   4.387917370908286e+00   2.991080938349164e+00  4.70936240e-01  -8.08553500e-02   8.91347000e-02
C     1.141326326518839e+01   5.124838808893037e+00   2.995752738675568e+00 -5.16759510e-01  -3.04266450e-01  -7.66146700e-02
C     3.793752950270920e+00   6.578323464769920e+00   3.012753191640930e+00  6.11984120e-01   1.15083390e-01  -1.16508110e-01
C     5.074799319763487e+00   7.305339618926666e+00   2.997814430534345e+00 -5.54840570e-01   5.97721430e-01   1.13386780e-01
C     6.329561150940490e+00   6.591755267624861e+00   2.990283095682054e+00  4.78953460e-01  -6.63142130e-01   1.48644520e-01
C     7.599979754595758e+00   7.307360009488400e+00   2.996255043798846e+00  2.75608510e-01   5.74929640e-01   7.14316200e-02
C     8.877456220541719e+00   6.581480940835268e+00   3.005131483495348e+00 -5.34522520e-01   2.02941000e-03  -1.25430190e-01
C     1.013458163823590e+01   7.321887672808638e+00   2.997055191739800e+00  3.57359840e-01  -3.70096420e-01   6.54989700e-02
C     1.140261767608246e+01   6.583068543366982e+00   2.997583388759281e+00  3.77455510e-01   3.09981270e-01   1.75216700e-02
C     1.268544075324407e+01   7.329349448056826e+00   3.003494328978050e+00 -7.16337300e-01  -7.54497420e-01   7.21829100e-02
