32
Lattice="9.9 0 0 4.95 8.57365149746594 0 0 0 30 " PBC="1 1 1" Properties=species:S:1:pos:R:3:force:R:3 Energy="-257.96016184"
C    -6.005246305409365e-03   7.729169379712326e-04   2.996415883462037e+00  2.68668950e-01  -4.78337870e-01  -1.86168000e-03
C     1.225537530731420e+00   7.151451716384865e-01   3.005745634507356e+00  4.42130320e-01   2.35240270e-01  -6.84712900e-02
C     2.466569719192770e+00   5.156826304117195e-03   3.013587841014156e+00 -6.87818800e-02  -2.91538450e-01  -1.13824900e-01
C     3.709415301592552e+00   7.045905973786070e-01   3.005789331249435e+00 -1.89239800e-01   3.82023490e-01  -6.82901500e-02
C     4.942331715917817e+00  -4.692640291618409e-03   3.000381203012459e+00  5.24491120e-01   4.88104570e-01   4.27009000e-03
C     6.186834113211138e+00   7.150151912583073e-01   3.001815536036978e+00 -5.79617000e-03  -3.16135320e-01  -1.74049100e-02
C     7.428900670495965e+00  -7.244372716832275e-03   3.008761462965410e+00 -3.98124220e-01   1.54662490e-01  -1.21635670e-01
C     8.661857441813835e+00   7.057353856912592e-01   2.999391463169842e+00  3.61943000e-03   4.76770400e-02   5.40126400e-02
C     1.249410565796401e+00   2.146709711570745e+00   2.991335261208064e+00 -1.14515552e+00   1.56489090e-01   1.59334460e-01
C     2.467559924812348e+00   2.862809273167752e+00   3.002686734948572e+00  7.62964170e-01  -2.72798710e-01  -1.84791540e-01
C     3.712858230359597e+00   2.133201573057600e+00   2.988321388065613e+00 -2.82073680e-01   3.73022060e-01   1.46084130e-01
C     4.946220508200216e+00   2.851287588091119e+00   2.986938071974715e+00  1.87078500e-02   1.22034840e-01   1.14321970e-01
C     6.183426328499301e+00   2.139922279936573e+00   2.993036103425107e+00  3.18465520e-01   1.39497880e-01   8.94357600e-02
C     7.427081208721271e+00   2.859248488724548e+00   3.006951504316271e+00  3.67202000e-03  -4.72593550e-01  -9.54965200e-02
C     8.674496699325273e+00   2.128295615037303e+00   3.002682314320823e+00 -6.97320080e-01   8.68805000e-01  -2.17248600e-02
C     9.892334708215998e+00   2.870470138729936e+00   2.993084213907956e+00  6.97233040e-01  -8.00482780e-01  -6.81691000e-03
C     2.475045691160851e+00   4.291111170711388e+00   2.992359758075963e+00  2.07344540e-01   4.87038600e-02   5.40362100e-02
C     3.721664393983855e+00   5.005453969779888e+00   2.992220342556335e+00 -4.95629700e-01  -2.89732060e-01   3.53126600e-02
C     4.951127841756586e+00   4.284721267985677e+00   3.007075609702601e+00  7.73088300e-02  -5.86548800e-02  -1.67407230e-01
C     6.189469482042598e+00   4.998082736783822e+00   3.005694164741702e+00 -2.05718510e-01   1.43180790e-01  -1.25872190e-01
C     7.418119180151984e+00   4.285488189746932e+00   2.999988358131275e+00  7.38906030e-01  -5.02528500e-02   2.02369200e-02
C     8.675660194760455e+00   4.993856974337217e+00   2.988642863504203e+00 -1.15551273e+00   9.50326790e-01   1.03594880e-01
C     9.891449965299039e+00   4.293125925759957e+00   2.989162266913391e+00  8.89436570e-01  -1.64341820e-01   1.02456000e-02
C     1.114539724226218e+01   5.007379684841084e+00   2.993653774585401e+00 -5.21923790e-01   3.33056000e-03  -3.48767000e-02
C     3.703817195684903e+00   6.428480587091601e+00   2.986291437329192e+00  7.58434900e-01  -5.53583100e-02   6.99131200e-02
C     4.956263432935722e+00   7.136724576870224e+00   2.987973495291927e+00 -6.44539920e-01   4.47584200e-01  -1.73313300e-02
C     6.185551702395384e+00   6.431624887663649e+00   2.983470534473394e+00  1.15623570e-01  -3.14469490e-01   1.86461740e-01
C     7.416944901825878e+00   7.149456384908500e+00   2.998221203825358e+00  3.99783040e-01  -7.21046200e-02   3.55734100e-02
C     8.663706558399918e+00   6.439826256124790e+00   3.000850814009857e+00  2.68255500e-02  -4.21135360e-01  -1.12815170e-01
C     9.906238569605966e+00   7.156651894774431e+00   2.995320267560984e+00 -4.88418080e-01  -6.04007630e-01   9.83664500e-02
C     1.113743604992028e+01   6.438510936868250e+00   2.997830914700063e+00  4.08499000e-02  -4.26123300e-01  -4.20539400e-02
C     1.237394445779528e+01   7.135553115195821e+00   2.997265612726218e+00  3.76873000e-03   5.27384070e-01   1.94749700e-02
