2
Lattice="2.454 0 0 1.227 2.12522634088701 0 0 0 30 " PBC="1 1 1" Properties=species:S:1:pos:R:3:force:R:3 Energy="-16.12758207"
C     0.000000000000000e+00   0.000000000000000e+00   3.000000000000000e+00  0.00000000e+00  -0.00000000e+00   0.00000000e+00
C     1.227000000000000e+00   7.084087802956708e-01   3.000000000000000e+00 -0.00000000e+00   0.00000000e+00  -0.00000000e+00
