2
Lattice="2.414 0 0 1.207 2.09058532473564 0 0 0 30 " PBC="1 1 1" Properties=species:S:1:pos:R:3:force:R:3 Energy="-16.06797667"
C     0.000000000000000e+00   0.000000000000000e+00   3.000000000000000e+00 -0.00000000e+00   0.00000000e+00  -0.00000000e+00
C     1.207000000000000e+00   6.968617749118782e-01   3.000000000000000e+00  0.00000000e+00   0.00000000e+00   0.00000000e+00
