32
Lattice="9.652 0 0 4.826 8.3588771973274 0 0 0 30 " PBC="1 1 1" Properties=species:S:1:pos:R:3:force:R:3 Energy="-257.0376587"
C    -1.716647959145570e-03   2.110734120127703e-03   2.997331510748054e+00  2.85968270e-01  -1.47579700e-01   3.52782700e-02
C     1.208663509035424e+00   6.959432114779808e-01   3.002419647305584e+00 -6.48659600e-02   3.94259800e-02  -2.12178500e-02
C     2.416336191504876e+00  -2.211303990393508e-03   3.002588054805657e+00 -1.73703230e-01   1.51803070e-01   3.76128000e-03
C     3.621712345543755e+00   6.947965516548726e-01   3.001240151457084e+00 -3.73499100e-02   2.53150700e-02  -6.41987000e-03
C     4.830083781904137e+00   2.188784325914728e-03   2.997361546605354e+00 -1.36814000e-01  -1.92255010e-01   1.29406900e-02
C     6.032326047043091e+00   6.957916624284277e-01   2.997529297712697e+00  2.28201990e-01   8.26496400e-02  -4.63043000e-03
C     7.242138325761809e+00   2.055057713924757e-03   2.996905187175691e+00 -1.76389350e-01  -9.79095900e-02   3.23148500e-02
C     8.447427994360835e+00   6.954720842521310e-01   2.998550891038190e+00 -5.28000200e-02   1.72639610e-01  -1.28164900e-02
C     1.205676733146642e+00   2.089524423692819e+00   3.002157902269802e+00 -1.68747900e-02   1.92407900e-02   1.34116100e-02
C     2.410791103538246e+00   2.786689485963921e+00   3.001195853052795e+00  6.45449800e-02  -8.68788000e-03   6.14916000e-03
C     3.615903732671512e+00   2.086794794419739e+00   3.000710583799823e+00  2.75884420e-01   1.67688120e-01  -2.20479000e-03
C     4.829409275947061e+00   2.783969648556699e+00   2.999043862023603e+00 -3.13760480e-01   3.27147000e-03  -3.59594000e-03
C     6.035072632383163e+00   2.088994595754705e+00   2.999767790975024e+00 -1.64171010e-01  -9.42115800e-02  -2.84248500e-02
C     7.237456137412383e+00   2.781981298236055e+00   2.997898626436173e+00  2.27149750e-01   3.34046450e-01   4.49618300e-02
C     8.446624218766560e+00   2.088807823824546e+00   3.000212615399658e+00 -5.36651900e-02   6.86287100e-02  -6.33614000e-03
C     9.651245529189485e+00   2.790116687069303e+00   3.002714152472202e+00  3.37269100e-02  -3.68877670e-01  -4.74333500e-02
C     2.411639100328249e+00   4.181128899126073e+00   3.001300328379561e+00 -6.99367000e-03  -1.58424940e-01  -2.08924700e-02
C     3.618851738362367e+00   4.872988829826602e+00   2.997368820445707e+00 -1.99635800e-02   1.64789930e-01   5.34241200e-02
C     4.824184018392072e+00   4.177691763970393e+00   2.996990452494828e+00  1.80601840e-01  -1.83867300e-02   2.85798000e-03
C     6.031974746821587e+00   4.877349775796666e+00   2.999140770311933e+00 -5.26899200e-02  -5.84460400e-02   3.54834000e-02
C     7.239461436106692e+00   4.181567382955749e+00   3.003147099204523e+00 -1.52888930e-01  -2.92062750e-01  -5.86975000e-02
C     8.444170156462311e+00   4.873165788991946e+00   2.998785218920564e+00  1.52114100e-01   2.80432150e-01   3.16247100e-02
C     9.652636223304947e+00   4.177009298688313e+00   2.995825195783938e+00 -1.35852810e-01   2.04513160e-01   5.52850300e-02
C     1.085642888823771e+01   4.874405605486730e+00   3.000072187679184e+00  8.36122400e-02   8.13157100e-02  -1.66078000e-02
C     3.619980629985908e+00   6.267489709811795e+00   3.004221067077847e+00  3.69343900e-02   1.13556850e-01  -6.02408800e-02
C     4.828896988380687e+00   6.967103298954342e+00   2.998851999491711e+00 -3.15797340e-01  -2.25597400e-02   3.06122100e-02
C     6.030905625876305e+00   6.270846680602156e+00   3.002443425256926e+00  7.63892300e-02  -9.57851900e-02  -3.25022900e-02
C     7.235143330869062e+00   6.967236428615777e+00   3.002754899068904e+00  3.29822180e-01  -1.72109720e-01   1.55223400e-02
C     8.446441735545527e+00   6.270889789390789e+00   3.003400564278107e+00 -1.11858150e-01  -1.21807040e-01  -5.47454000e-02
C     9.655315210005776e+00   6.965718530771214e+00   2.997348086045340e+00 -2.12970800e-01   6.21589300e-02   2.47852400e-02
C     1.085635634458565e+01   6.267064085636656e+00   2.999238528634225e+00  2.50658010e-01   1.20426840e-01   7.45881000e-03
C     1.206566434163528e+01   6.968573806265470e+00   3.002789599088606e+00 -2.61991700e-02  -2.42798890e-01  -2.91054900e-02
