32
Lattice="10.156 0 0 5.078 8.79535400083476 0 0 0 30 " PBC="1 1 1" Properties=species:S:1:pos:R:3:force:R:3 Energy="-256.16499665"
C     9.080394944669556e-03   1.285245955088660e-02   2.993158752430218e+00 -2.89388560e-01  -7.62874870e-01   1.12473830e-01
C     1.268767263080670e+00   7.312118632731480e-01   3.000035698925826e+00  9.63371100e-02   7.65959910e-01  -3.86163400e-02
C     2.531374807888949e+00   1.369195115225720e-02   2.992509881605671e+00  4.61127280e-01  -7.98976160e-01  -1.25473000e-02
C     3.808848391535671e+00   7.255619019809013e-01   2.989344461738716e+00 -3.88892860e-01   5.51507090e-01   1.48549640e-01
C     5.065224090439432e+00  -1.227721013809265e-02   3.002071996974350e+00  8.44077690e-01   5.00855210e-01  -3.00049400e-02
C     6.357721129485980e+00   7.357778592131542e-01   3.007154690083515e+00 -5.56624040e-01  -2.55782240e-01   3.08519600e-02
C     7.619241892007509e+00  -7.332310953737956e-03   3.006823230707631e+00 -8.56964800e-02   2.29676280e-01  -1.29084840e-01
C     8.892571850193894e+00   7.197413408103104e-01   2.999798187624403e+00 -1.56884670e-01   6.43447000e-01   6.27935900e-02
C     1.268765647597843e+00   2.210190870373764e+00   3.006282008814810e+00  3.49921070e-01  -4.34571720e-01  -5.78855500e-02
C     2.550083816679003e+00   2.935070514708759e+00   2.997140044758692e+00 -8.41996590e-01  -3.12343700e-02   1.56347190e-01
C     3.799854707029462e+00   2.209606360672542e+00   3.003103823496254e+00  7.81789740e-01  -6.55226160e-01  -1.31870730e-01
C     5.077116881825058e+00   2.933181104377618e+00   2.999351060731044e+00 -1.16034640e-01  -1.42421060e-01   1.21989180e-01
C     6.353395785699123e+00   2.203400760817008e+00   3.011567450898275e+00 -2.71320950e-01  -2.83550660e-01  -1.49105470e-01
C     7.614734268232573e+00   2.927503167365182e+00   3.000248478651453e+00  4.56504710e-01   2.89299210e-01   1.64811320e-01
C     8.884103606837344e+00   2.192033264452981e+00   3.008982902308504e+00  1.24107590e-01   6.94152900e-02  -6.95558100e-02
C     1.016515587331288e+01   2.939986289304605e+00   3.009769193507360e+00 -5.18085660e-01  -4.90855700e-01  -1.00656320e-01
C     2.530034692990954e+00   4.392670296588405e+00   3.010615763475958e+00  7.26655600e-01   3.75298590e-01  -1.66765360e-01
C     3.813084789152434e+00   5.124575597705670e+00   3.010585959056586e+00 -4.43509880e-01   2.31048020e-01  -1.41533320e-01
C     5.073693713815675e+00   4.391311317037029e+00   3.002877443061508e+00  3.28305930e-01   1.03601850e-01  -1.38335200e-02
C     6.350557016229425e+00   5.116564697616298e+00   2.992644021128991e+00 -1.48704360e-01   7.95448630e-01   1.44881620e-01
C     7.623905849718955e+00   4.410216266677231e+00   3.006869407218348e+00 -4.98931040e-01  -8.16887920e-01  -2.15455200e-01
C     8.872669541561415e+00   5.133954362717626e+00   2.989378641359063e+00  8.14496290e-01  -5.23171200e-02   8.42724500e-02
C     1.015330915881541e+01   4.387133883653251e+00   2.990799089891569e+00  5.95297400e-02   8.67543220e-01   6.69617300e-02
C     1.143393734419549e+01   5.134510912555451e+00   2.989425976843967e+00 -6.90721410e-01  -5.16753990e-01   1.55986670e-01
C     3.802892637905609e+00   6.594670291305300e+00   2.989239094116997e+00  2.88837150e-01   1.22444020e-01   1.65897740e-01
C     5.081801223138102e+00   7.336658935210189e+00   3.002176864498341e+00 -3.01830700e-02  -2.00339410e-01  -1.78005720e-01
C     6.355625338970287e+00   6.599663019904026e+00   2.995169719678352e+00 -2.99285950e-01  -4.26131790e-01  -7.82862000e-03
C     7.627037314926811e+00   7.321733446760905e+00   2.989193988329420e+00 -5.59505440e-01   7.38981710e-01   4.78615100e-02
C     8.880946825902731e+00   6.600703950978239e+00   2.990982848716563e+00  3.85380400e-01  -2.92517020e-01   1.67843300e-02
C     1.015841866781026e+01   7.325466834065478e+00   3.002693915989928e+00 -3.65752880e-01  -7.62905000e-02  -7.65496000e-02
C     1.142004030401143e+01   6.589556492229656e+00   3.000459961091794e+00  2.34282600e-01   3.34224740e-01  -1.12867400e-01
C     1.268435320065957e+01   7.330660652162048e+00   2.988510711393853e+00  3.10165580e-01  -3.82020100e-01   1.51703290e-01
