32
Lattice="9.796 0 0 4.898 8.48358485547236 0 0 0 30 " PBC="1 1 1" Properties=species:S:1:pos:R:3:force:R:3 Energy="-257.98224624"
C    -2.430613085654836e-03  -2.676352631615275e-04   3.001650069917032e+00  1.93687880e-01  -3.75462900e-02  -2.94607200e-02
C     1.225930419105376e+00   7.036740681070572e-01   2.999127091077436e+00 -1.20579970e-01   9.37622400e-02   2.32666000e-02
C     2.450130315471268e+00  -2.557836875909591e-03   2.996369421511352e+00 -3.67951500e-02   3.50868200e-02   4.58944000e-02
C     3.672306872880136e+00   7.095562241535729e-01   2.999298176108218e+00  1.04396010e-01  -2.84261130e-01  -3.16710000e-02
C     4.896493562279709e+00  -3.061133335481002e-03   2.997935430645983e+00  7.41862000e-03   8.56322000e-02   5.65005000e-02
C     6.122668470958650e+00   7.053480819808544e-01   3.002237706949922e+00 -5.03666800e-02   7.30781800e-02  -7.49451900e-02
C     7.347430609448510e+00   1.925166301849224e-03   2.996664274257991e+00  2.43263000e-02  -1.45794770e-01   2.91569400e-02
C     8.572667147477658e+00   7.090117635628795e-01   2.997713324931048e+00 -1.17913660e-01   2.97055800e-02   2.68307000e-02
C     1.223394294535699e+00   2.120172348664056e+00   3.003398477454621e+00  1.13914420e-01  -6.68181200e-02  -8.12250700e-02
C     2.448023391939287e+00   2.826243541313651e+00   2.996350823664455e+00  4.92908400e-02  -4.30726000e-03   8.92934500e-02
C     3.673552227865338e+00   2.118837126158473e+00   2.999371368330598e+00 -1.03126400e-02   2.30463740e-01  -1.88520100e-02
C     4.896880283344808e+00   2.832114556575963e+00   3.000509098887082e+00  1.19709070e-01  -2.99676230e-01  -4.03461000e-03
C     6.125476022609210e+00   2.121895104442436e+00   2.998335183549364e+00 -2.85031530e-01  -5.62222900e-02   4.76212900e-02
C     7.345926487650937e+00   2.827680009599262e+00   3.000630021867619e+00  9.69044800e-02   9.63504800e-02  -1.94688200e-02
C     8.571432020039818e+00   2.124225524869753e+00   3.000527712765005e+00  1.22344090e-01  -6.51196900e-02  -1.90553000e-02
C     9.799716801437466e+00   2.830917967719462e+00   2.999693690023179e+00 -2.62027860e-01  -1.14230990e-01   4.37383000e-02
C     2.449827606505611e+00   4.240099588624425e+00   3.003467936480007e+00 -1.42280450e-01   2.58179600e-02  -6.05577400e-02
C     3.673243954754408e+00   4.946610168214325e+00   2.998773396479629e+00 -5.03090900e-02   1.22767980e-01   6.49809200e-02
C     4.896786231314535e+00   4.241769988471228e+00   3.002574614603288e+00  1.17034260e-01   1.14226880e-01  -4.98213500e-02
C     6.124561595518863e+00   4.949980101426399e+00   2.999439583779302e+00 -1.72450290e-01  -1.03639970e-01   4.71021700e-02
C     7.345148155402951e+00   4.243037012113215e+00   3.000170604401561e+00  8.70282500e-02  -8.50729200e-02   5.43700000e-05
C     8.570855118128001e+00   4.947470449364324e+00   3.001577485487863e+00 -9.10787100e-02   1.86624600e-02  -1.12270500e-02
C     9.792706965840976e+00   4.243457389765871e+00   3.001366363665658e+00  2.46308550e-01  -1.74459400e-02   1.32487800e-02
C     1.101921970862970e+01   4.949987098709938e+00   3.003949201051440e+00  9.41084400e-02  -7.24679200e-02  -3.15350900e-02
C     3.669951431968868e+00   6.362422993836325e+00   3.001673071029606e+00  2.64543550e-01  -8.27109700e-02  -4.05801900e-02
C     4.898513365852031e+00   7.069403083082752e+00   3.002228276881197e+00 -9.43425700e-02  -6.00868900e-02   1.38614600e-02
C     6.125136390506590e+00   6.361085031015731e+00   3.004146063995032e+00 -1.54235060e-01   1.05387560e-01  -3.95829500e-02
C     7.348148996667448e+00   7.066008181898075e+00   3.001332046308574e+00  3.83081600e-02   1.28606840e-01  -1.44718100e-02
C     8.572248588574050e+00   6.360030096182824e+00   3.000909552819885e+00 -6.92319700e-02  -2.10490500e-02   1.84810200e-02
C     9.793401443642807e+00   7.065454953724619e+00   3.001971456841789e+00  2.11277520e-01   1.69751900e-01  -5.49141700e-02
C     1.102404685867377e+01   6.363405833634725e+00   2.998098262107557e+00 -2.88714350e-01  -1.04390400e-01   4.55325600e-02
C     1.224460359247143e+01   7.067021371855102e+00   2.996840501812768e+00  5.50695300e-02   2.91540000e-01   1.58396000e-02
