32
Lattice="9.956 0 0 4.978 8.62214892007787 0 0 0 30 " PBC="1 1 1" Properties=species:S:1:pos:R:3:force:R:3 Energy="-257.88284116"
C    -1.592026998608647e-03   1.274441104106577e-03   2.997997077533870e+00  2.88563100e-02  -1.89584300e-02   4.63172200e-02
C     1.243503886211311e+00   7.221819067020668e-01   2.998124947004795e+00  7.55295900e-02  -2.75888490e-01   1.91030200e-02
C     2.491236776366363e+00  -3.536677445388603e-03   3.001982971682339e+00 -1.44658310e-01   2.16564940e-01  -4.18617600e-02
C     3.735409134031309e+00   7.172953118202917e-01   3.002919674034080e+00 -5.51480000e-02  -4.06742600e-02  -2.15586500e-02
C     4.978982876126652e+00  -3.983004526857768e-03   3.003724370061291e+00  2.68291400e-02   2.19621030e-01  -1.17916900e-02
C     6.225744248856261e+00   7.177162959880875e-01   3.001693552764034e+00 -2.22839200e-01   1.21957000e-03   1.77636300e-02
C     7.467143272671875e+00  -7.524345831658522e-06   3.001386303103581e+00 -3.93131600e-02  -5.96623900e-02   2.29058100e-02
C     8.707552159109257e+00   7.173899417605638e-01   3.004736707327435e+00  2.00413890e-01   9.00839000e-03  -9.53054800e-02
C     1.243468167590015e+00   2.155534491321654e+00   2.999164141196630e+00  3.49391400e-02   6.59951100e-02  -5.60844000e-03
C     2.488499375948593e+00   2.875619127789172e+00   2.998800692102693e+00  1.76795500e-02  -1.17498260e-01  -1.32478700e-02
C     3.731444793375733e+00   2.155238168643498e+00   2.997427318535194e+00  5.13095900e-02  -3.37118400e-02   3.64188100e-02
C     4.974930837611611e+00   2.874219548962125e+00   2.998521128122399e+00  1.49970600e-02  -2.82569600e-02   5.06185800e-02
C     6.220032107853208e+00   2.156099386431070e+00   3.003146649158112e+00  2.88403300e-02  -3.00712400e-02  -3.62008600e-02
C     7.463894841033797e+00   2.873887971444465e+00   3.001171280101908e+00  1.40700070e-01   5.77746200e-02  -2.11767300e-02
C     8.709648320325702e+00   2.152303634540789e+00   2.996466321151485e+00 -2.45051500e-02   1.21146090e-01   8.28478900e-02
C     9.955960102874533e+00   2.870064921760209e+00   2.998646039837673e+00 -1.17648050e-01   2.66629910e-01  -2.07234500e-02
C     2.492485370128675e+00   4.308589529658452e+00   2.997842657100170e+00 -1.34749590e-01   1.72171800e-01   4.19685000e-03
C     3.737070546168902e+00   5.030520940292456e+00   2.998007618573425e+00 -1.87673350e-01  -1.20178300e-01   3.81786900e-02
C     4.975016202010681e+00   4.311254524121977e+00   3.003837765413581e+00  2.30905600e-01  -7.87949800e-02  -9.04748600e-02
C     6.221589703238806e+00   5.027573730665266e+00   2.997504500248431e+00  5.59039000e-02   1.08863780e-01   5.37795700e-02
C     7.471363372265263e+00   4.313635659956365e+00   2.999314314104964e+00 -3.05135920e-01  -2.14222100e-01  -1.16395800e-02
C     8.712581469046569e+00   5.027949232588833e+00   2.998511992363545e+00 -2.50925800e-02   1.45054560e-01  -3.57300000e-05
C     9.954127220243954e+00   4.315447282809356e+00   2.998111643213115e+00  1.89745800e-01  -4.06434530e-01   9.00620000e-03
C     1.120133630700462e+01   5.028253038899134e+00   2.998818035406084e+00  2.47422000e-03   8.66836400e-02  -9.86045000e-03
C     3.736253588052706e+00   6.462238815684783e+00   2.999635092674756e+00 -1.98997860e-01   2.95649130e-01  -3.41793000e-03
C     4.977902194002938e+00   7.184248507052672e+00   2.999919065331270e+00 -5.57503100e-02   7.74399300e-02  -1.63688300e-02
C     6.218592033464285e+00   6.466962291184561e+00   2.998291625829773e+00  1.40633350e-01  -1.03191120e-01  -1.86157800e-02
C     7.464587159695308e+00   7.184465782864494e+00   2.996588169237264e+00  6.52225100e-02  -9.72536200e-02   5.15921500e-02
C     8.709839034089514e+00   6.463327160763234e+00   2.999747390592850e+00 -3.45185300e-02   1.49241470e-01  -8.27924000e-03
C     9.953043579746840e+00   7.184699104843568e+00   3.002955556209132e+00  2.58021100e-02  -1.06538880e-01  -2.12011100e-02
C     1.119761166833171e+01   6.467704524621640e+00   2.999613917839989e+00  1.51633130e-01  -7.26977400e-02   1.65191700e-02
C     1.244389105258885e+01   7.186531319182249e+00   3.000216407197259e+00  6.36147300e-02  -1.89030830e-01  -1.87915000e-03
