2
Lattice="2.504 0 0 1.252 2.16852761107623 0 0 0 30 " PBC="1 1 1" Properties=species:S:1:pos:R:3:force:R:3 Energy="-16.09829035"
C     0.000000000000000e+00   0.000000000000000e+00   3.000000000000000e+00 -0.00000000e+00  -0.00000000e+00   0.00000000e+00
C     1.252000000000000e+00   7.228425370254113e-01   3.000000000000000e+00  0.00000000e+00   0.00000000e+00   0.00000000e+00
