32
Lattice="9.58 0 0 4.79 8.29652336825492 0 0 0 30 " PBC="1 1 1" Properties=species:S:1:pos:R:3:force:R:3 Energy="-256.17288161"
C     1.805970160938075e-04  -8.614613646300649e-04   2.999181563170238e+00 -4.27964800e-02   3.50706700e-02   8.70768000e-03
C     1.196452056076438e+00   6.915583779742835e-01   3.000254840288720e+00  4.37308200e-02  -4.39551000e-03  -3.05273000e-03
C     2.394345504590296e+00   9.935299453116958e-04   3.000995242633060e+00  5.80814000e-02  -5.74174000e-03  -1.81216100e-02
C     3.593434622216313e+00   6.918869875580594e-01   3.000161354428902e+00 -4.00596800e-02  -6.52091700e-02   7.75921000e-03
C     4.790654215143020e+00  -1.144298384323488e-03   3.000277635557160e+00 -4.82749000e-02   2.85217700e-02  -6.89745000e-03
C     5.986928971085868e+00   6.908133043740563e-01   2.999728889142744e+00  3.20176100e-02   5.43137300e-02   1.24112200e-02
C     7.184202370615488e+00  -3.539295830931436e-04   3.000121457200572e+00  5.34493700e-02   3.10739400e-02  -3.39094000e-03
C     8.382375519219504e+00   6.912751871175158e-01   3.000517253647325e+00 -3.12671000e-03  -2.25232200e-02  -7.14877000e-03
C     1.197553299320791e+00   2.074132418963908e+00   2.999595545817296e+00 -2.14156500e-02   5.50296000e-03   1.19502700e-02
C     2.394788354440636e+00   2.764746401216726e+00   3.000240607740665e+00  7.01870200e-02   3.76092600e-02  -1.31206700e-02
C     3.593495993383986e+00   2.073784582572247e+00   3.000193785932369e+00 -4.16442100e-02   2.80286900e-02   3.43204000e-03
C     4.790643331671059e+00   2.765662108226191e+00   3.000584003907771e+00 -4.49925700e-02   2.64118300e-02  -1.01012700e-02
C     5.987367491440160e+00   2.074965089922003e+00   3.000792562070372e+00  8.78888000e-03  -8.04472300e-02  -1.21986600e-02
C     7.184128470023913e+00   2.766132927015588e+00   2.999143966815880e+00  9.04238100e-02  -6.01456000e-02   1.75675700e-02
C     8.383246411390543e+00   2.074017430187673e+00   3.000729509347702e+00 -7.08861800e-02   1.47808300e-02  -1.12240300e-02
C     9.580212826831421e+00   2.765604608213897e+00   3.000294806249096e+00 -1.20067300e-02   1.41067900e-02   5.37580000e-04
C     2.396191867129267e+00   4.148401032376198e+00   2.998909744330593e+00 -7.37010300e-02  -6.62848200e-02   1.78289600e-02
C     3.592605222715180e+00   4.840098865073211e+00   2.999406720383909e+00 -1.81058000e-03  -3.25648300e-02  -3.95903000e-03
C     4.789032333344591e+00   4.148385019811416e+00   2.998815423219223e+00  1.21159270e-01   2.66391100e-02   1.83554100e-02
C     5.988328302111183e+00   4.840342216287709e+00   3.000640425692069e+00 -6.60293300e-02  -5.67365300e-02  -1.26843800e-02
C     7.185407759132459e+00   4.147907328026879e+00   2.999614358246791e+00 -8.95810000e-03   4.43214100e-02   4.69830000e-04
C     8.383664627192310e+00   4.838908457384836e+00   2.999615115994029e+00 -1.12707340e-01   5.99698900e-02   6.84998000e-03
C     9.579118939243424e+00   4.148844694466913e+00   3.000881574890530e+00  1.19588710e-01  -7.10315600e-02  -5.52096000e-03
C     1.077801697583825e+01   4.838467351145017e+00   3.001045922214094e+00 -2.72174000e-03   7.07186700e-02  -7.13090000e-03
C     3.592253251350976e+00   6.221627990660228e+00   3.000400689864239e+00  6.48454200e-02   7.51444900e-02  -1.13147000e-02
C     4.790981512426025e+00   6.913313163164609e+00   2.999174359297534e+00 -8.89174400e-02  -9.52964000e-03   1.19322800e-02
C     5.987544961387799e+00   6.222774365706875e+00   3.000506983060778e+00  5.15057900e-02  -8.67453000e-03  -1.44920400e-02
C     7.185132699270251e+00   6.914697188298158e+00   2.998826696231628e+00 -3.14772000e-03  -2.28205900e-02   2.04399500e-02
C     8.382039123376398e+00   6.221880218628715e+00   2.999554154591503e+00  4.53199900e-02   2.36642700e-02  -4.74656000e-03
C     9.580662391417894e+00   6.912773009126922e+00   2.999977425299416e+00 -3.08575300e-02   3.73590000e-04   7.52747000e-03
C     1.077856081622558e+01   6.222346209517922e+00   3.001192388444412e+00 -3.05583800e-02  -6.53001500e-02  -9.20183000e-03
C     1.197558834443022e+01   6.913688228832615e+00   3.000042530050778e+00 -1.44857900e-02  -4.84681000e-03   8.53707000e-03
