32
Lattice="9.832 0 0 4.916 8.5147617700086 0 0 0 30 " PBC="1 1 1" Properties=species:S:1:pos:R:3:force:R:3 Energy="-257.94169354"
C    -2.937821185438726e-03   8.444512741999893e-03   2.999604737775362e+00  2.99239640e-01  -1.05815800e+00   3.19728000e-03
C     1.228709461949835e+00   7.015511037812749e-01   2.989039811512969e+00 -3.17294180e-01   1.03559170e+00   1.56566770e-01
C     2.454347818465728e+00   5.380153118684211e-03   3.008041789889736e+00  2.90367670e-01  -1.69858750e-01  -1.23737850e-01
C     3.694821307838073e+00   7.084893386943084e-01   3.007356196614364e+00 -4.67188440e-01  -5.81487200e-02  -7.06009400e-02
C     4.911567445277059e+00  -1.457768128219133e-02   3.007619882145124e+00  5.86702080e-01   1.40393664e+00   1.39401700e-02
C     6.156098924056844e+00   7.169945993508924e-01   3.009447296329785e+00 -9.84838030e-01  -4.81362120e-01  -1.28528790e-01
C     7.366307213700589e+00   1.035356282504390e-03   2.993330653480608e+00  5.94999210e-01   1.90059460e-01   1.32841670e-01
C     8.605446418622599e+00   6.991488622309178e-01   3.002963207509842e+00 -2.96931890e-01   1.18366932e+00  -2.42772700e-02
C     1.215483385225795e+00   2.137241252972073e+00   2.992714818780856e+00  1.06395901e+00  -7.13395510e-01   3.37398000e-02
C     2.462723448702390e+00   2.834851859135751e+00   2.999777735045332e+00 -4.94366390e-01   6.38255400e-02  -1.73390520e-01
C     3.683055799228188e+00   2.125685867303595e+00   2.988659569776811e+00  5.96585800e-01   1.06118960e-01   2.54170850e-01
C     4.917825061862905e+00   2.847470475622206e+00   3.006708549898363e+00 -3.55625600e-01  -5.57483790e-01  -2.62444040e-01
C     6.144368808744719e+00   2.129945306942933e+00   2.999866912220396e+00 -6.98981100e-02   1.83358890e-01   1.28382840e-01
C     7.365594208308856e+00   2.845865849848267e+00   3.004310700100894e+00  5.93093020e-01  -4.83319910e-01  -2.69371000e-02
C     8.609729058631261e+00   2.142224450248428e+00   3.010544688155015e+00 -5.00717950e-01  -8.05449130e-01  -8.08210800e-02
C     9.839385407886924e+00   2.844267524186221e+00   3.001728960641525e+00 -6.65048440e-01   2.60680170e-01  -7.93841400e-02
C     2.466946056591594e+00   4.252592753112259e+00   2.992592209404494e+00 -1.80217290e-01   1.52582440e-01   1.61621250e-01
C     3.696273511356700e+00   4.972041568153131e+00   3.002646109155526e+00 -6.95915620e-01  -3.81546510e-01  -1.79849610e-01
C     4.912435858514410e+00   4.259140995103641e+00   2.985834122476493e+00  4.51433380e-01   9.68911800e-02   1.93704540e-01
C     6.145231580547513e+00   4.968140979450597e+00   2.989696477949865e+00 -2.83538450e-01  -4.21109110e-01   6.19898200e-02
C     7.364681346864317e+00   4.252921027531200e+00   2.997808265820617e+00  2.18799800e-01   4.66370830e-01   5.20919700e-02
C     8.592319367758677e+00   4.968213814859396e+00   3.010659913545036e+00  3.58339600e-01  -9.87738700e-02  -2.46284590e-01
C     9.829413745873875e+00   4.265606627500903e+00   2.987062665379557e+00 -3.42774400e-02  -1.71589590e-01   2.95309780e-01
C     1.106211440185604e+01   4.959871366325348e+00   3.002366708162733e+00  1.76070430e-01   4.86722840e-01  -1.98185790e-01
C     3.680526602414306e+00   6.379876643365632e+00   2.996293069249639e+00  3.37130470e-01   7.05732360e-01   1.02070830e-01
C     4.918949034187079e+00   7.086999391304196e+00   3.009098796358321e+00 -6.18106990e-01   4.01608790e-01  -1.11059900e-01
C     6.135083570981291e+00   6.373352487683380e+00   3.005920133403162e+00  5.58451790e-01   8.34637700e-01  -7.77420500e-02
C     7.364409993123168e+00   7.106010410996364e+00   3.001782390235233e+00  2.92320320e-01  -7.51029560e-01   7.45156200e-02
C     8.602048426349299e+00   6.383246525218116e+00   2.998363945919865e+00 -5.36073030e-01   5.45171150e-01   1.06192560e-01
C     9.825466065962617e+00   7.107981235863805e+00   3.001881307366105e+00  3.78304030e-01  -1.35809014e+00  -4.40720000e-02
C     1.106445976243739e+01   6.386721791623660e+00   2.993722687392098e+00 -3.72825830e-01   6.68673700e-02   9.09780000e-02
C     1.228479848104685e+01   7.104853180984813e+00   2.994664639709029e+00  7.70674000e-02  -6.74510660e-01  -3.39980600e-02
