32
Lattice="10.012 0 0 5.006 8.6706463426898 0 0 0 30 " PBC="1 1 1" Properties=species:S:1:pos:R:3:force:R:3 Energy="-257.48789726"
C    -4.276967709296551e-03  -7.476672978129551e-03   3.003998576130958e+00  1.69282520e-01   1.77007200e-01  -9.53828600e-02
C     1.258693485150935e+00   7.171798469413725e-01   2.996424004347747e+00 -5.57311940e-01   3.39829500e-01   1.87542200e-02
C     2.503124824340559e+00   1.457038475897904e-02   2.996116718476796e+00  3.07135380e-01  -6.19601540e-01   3.30520600e-02
C     3.760863829814076e+00   7.257840829650070e-01   3.008915509452527e+00 -5.41360100e-01   7.98276300e-02  -1.94819110e-01
C     4.999034106662839e+00   3.398094285462024e-04   2.994099973958603e+00  2.89360660e-01  -4.52316880e-01   6.79697400e-02
C     6.248349477265351e+00   7.117410697885542e-01   2.998860574873476e+00  2.10458030e-01   2.56009990e-01   9.54489000e-02
C     7.508760450548518e+00   4.091781670436121e-04   3.008178828660070e+00 -3.45383870e-01  -2.35895990e-01  -1.56196160e-01
C     8.755347532981364e+00   7.150776810272077e-01   3.004000432384898e+00  3.83522530e-01   3.38763100e-01  -5.58039300e-02
C     1.251903007590708e+00   2.159059459499252e+00   2.992903425270184e+00  2.57208690e-01   5.73312420e-01   1.62686840e-01
C     2.517051557838270e+00   2.905733506290015e+00   3.001832112449800e+00 -1.07022539e+00  -1.07175823e+00  -6.29923000e-02
C     3.747128867406650e+00   2.166670511931005e+00   3.000928661877435e+00  8.42442910e-01   4.08225510e-01   1.17581280e-01
C     5.013074414723639e+00   2.891809365374690e+00   3.010892490399218e+00 -6.33603330e-01  -9.34804900e-02   1.73487000e-03
C     6.246260012535438e+00   2.154199727800204e+00   3.011426586521640e+00  6.37040610e-01   4.33071360e-01  -6.30359300e-02
C     7.511207196158944e+00   2.881051166397958e+00   3.006214355662894e+00 -1.42464180e-01   3.37898270e-01  -1.50304410e-01
C     8.769075036568426e+00   2.170528708662767e+00   2.987068458872627e+00 -5.92211960e-01  -3.76918970e-01   3.05801790e-01
C     1.000922900195967e+01   2.892227465421428e+00   3.007721965051265e+00  5.85674750e-01  -4.61313130e-01  -3.10506830e-01
C     2.489834561260219e+00   4.331601072073180e+00   2.999156664545298e+00  5.98939240e-01   7.36920610e-01  -1.44425300e-02
C     3.746261710602737e+00   5.063313855910526e+00   2.987501715131928e+00 -2.12573300e-02  -6.58394800e-02   1.80728540e-01
C     4.998145333783023e+00   4.340902660798884e+00   3.013749438705459e+00  2.50399880e-01  -1.81059000e-03  -2.91837120e-01
C     6.250880490225826e+00   5.068349040781882e+00   2.987812136250536e+00  5.25514490e-01  -2.57950410e-01   3.08923010e-01
C     7.518666654081349e+00   4.341577610399715e+00   2.992970633315284e+00 -5.86935730e-01  -5.08362610e-01   8.81377000e-02
C     8.769146186777727e+00   5.050862244240722e+00   3.001787703531887e+00 -2.79373490e-01   4.45772770e-01  -1.54044110e-01
C     1.002149152286853e+01   4.326076079598488e+00   2.988970564736820e+00 -4.05106410e-01   5.49824800e-01   2.67538370e-01
C     1.125788431254933e+01   5.061179254937195e+00   3.002706511390657e+00  2.20640010e-01  -2.05920750e-01  -1.92735920e-01
C     3.751788763670747e+00   6.512541430925769e+00   2.985381659186700e+00 -7.49463400e-02  -5.12585190e-01   3.29342900e-02
C     5.005014698273587e+00   7.223578104152702e+00   2.992182238279016e+00  9.54157500e-02   1.71924160e-01   1.67639890e-01
C     6.267257003025738e+00   6.510810980948278e+00   3.012253272454378e+00 -5.98311780e-01  -1.84277840e-01  -3.56125260e-01
C     7.507473177565804e+00   7.234061598295687e+00   2.992475056313986e+00  1.29251720e-01   1.40896580e-01   1.65086700e-01
C     8.749156734444931e+00   6.509617949123360e+00   2.997713807042331e+00  7.00735000e-01  -4.86306720e-01  -4.32091500e-02
C     1.001354768913408e+01   7.217346068083168e+00   2.990718214016973e+00 -4.10100720e-01   4.90659990e-01   6.46251000e-03
C     1.126696322539333e+01   6.507427345979443e+00   2.986444875503486e+00 -4.24973650e-01  -3.85296950e-01   1.11140090e-01
C     1.250686254712408e+01   7.222411692059932e+00   2.991421587594153e+00  4.80544060e-01   4.39691860e-01   9.81484000e-03
