76
Lattice="10.7446858958278 0 0 5.37234294791388 9.3051709414712 0 0 0 30 " PBC="1 1 1" Properties=species:S:1:pos:R:3:force:R:3 Energy="-607.21025061"
C     3.599812531980210e-01   1.249671430002684e-01  -6.933332999999990e-01 -1.01910925e+00  -2.45574380e+00   1.82262647e+00
C     1.274487354095354e+01   8.591508807619094e+00  -3.314814000000013e-01 -3.78976650e-01   3.68486566e+00  -1.15910920e-01
C     1.412485534791869e+01   8.488441570529535e+00  -5.019363000000006e-01  2.35112909e+00  -1.19397350e+00   1.26112583e+00
C     1.468296071176858e+01   7.164074648788478e+00  -2.294967000000021e-01  8.86346720e-01  -2.30159300e-01  -2.67550240e-01
C     8.557619214316958e+00   9.102284621840907e+00  -3.029103000000006e-01 -4.08236935e+00   1.51675156e+00  -3.69618310e-01
C     9.905989403236296e+00   9.008643336810147e+00  -1.489071000000024e-01  2.23501062e+00  -1.85660033e+00   2.22129100e-02
C     1.048953436893389e+01   7.704190690552915e+00  -8.198279999999869e-02  6.11650700e-01  -6.56574850e-01  -5.29446890e-01
C     1.192530973030796e+01   7.490542569994874e+00  -2.181794999999980e-01 -2.96292752e+00   1.63777980e-01   1.12760963e+00
C     1.240191520107375e+01   6.192985613714437e+00  -9.551310000000157e-02  1.13897596e+00  -1.19052220e+00  -5.99519310e-01
C     1.380904265111381e+01   6.023225145791488e+00  -1.042248000000008e-01  4.05444050e-01   1.96479628e+00  -1.71618790e-01
C     6.305414106004045e+00   8.062990265655724e+00  -3.003780000000020e-01 -3.55645126e+00   1.52584279e+00  -1.11147016e+00
C     7.661453153314220e+00   7.942597451637852e+00  -1.988085000000019e-01  3.15375958e+00  -1.10816601e+00   3.64022360e-01
C     8.279681374139285e+00   6.590435612092179e+00  -7.614600000000138e-03 -2.49672710e+00   2.50681561e+00   4.58194310e-01
C     9.678750309754344e+00   6.534268948936373e+00  -4.324289999999920e-02 -5.45182640e-01  -5.15892140e-01   1.42542600e-02
C     1.019280546992628e+01   5.209459659368830e+00  -1.161357000000010e-01 -4.55677670e-01   5.48203280e-01  -2.69537110e-01
C     1.157500438910347e+01   5.026525860946122e+00  -1.364169000000004e-01 -7.96912000e-03   1.29378521e+00   3.97212740e-01
C     1.211668429789459e+01   3.759936885760843e+00  -2.205495000000006e-01  1.78169539e+00  -2.13047691e+00  -7.03890530e-01
C     5.381291446758097e+00   6.910314913962798e+00  -8.596080000000228e-02 -3.73849990e-01   4.01879568e+00  -4.05586800e-01
C     5.954309252721733e+00   5.692582645746279e+00   2.188533000000000e-01 -1.16280777e+00  -2.92434419e+00  -1.53598879e+00
C     7.355902867182715e+00   5.482059387693310e+00   1.549974000000000e-01  1.43915004e+00  -1.37151400e-02  -1.55923874e+00
C     7.874598119960567e+00   4.181116000552678e+00  -2.048154000000011e-01  1.52833820e+00   1.64064247e+00   1.17711752e+00
C     9.326381397899326e+00   4.118765772152114e+00  -2.796713999999980e-01 -5.74377720e-01  -2.45201884e+00  -1.05353250e-01
C     9.939341176887044e+00   2.796698716460589e+00  -4.702625999999981e-01 -1.62694507e+00  -5.10546030e-01  -7.01315600e-02
C     1.131001389543529e+01   2.599502603383015e+00  -4.935249000000006e-01  1.44010809e+00   2.51024570e-01   6.43181800e-02
C     3.610833087690693e+00   4.756546096551509e+00  -9.344490000000150e-02  3.23465642e+00  -1.96232003e+00   1.11390417e+00
C     5.080521095319494e+00   4.494302372121283e+00   3.883020000000000e-02 -4.30608970e-01   2.94183071e+00   1.32300160e-01
C     5.676521086018647e+00   3.235176516236722e+00  -1.138550999999985e-01 -1.62580489e+00  -1.20422089e+00   4.96677570e-01
C     7.043672180039743e+00   3.037639740851035e+00  -2.890005000000002e-01  1.93738832e+00   1.70995519e+00   4.54847510e-01
C     7.661564898047580e+00   1.795023491455059e+00  -4.014588000000003e-01  4.42303100e-01  -2.49272559e+00   3.18051250e-01
C     9.140482483417623e+00   1.590407993380185e+00  -5.325780000000009e-01 -2.94829665e+00   2.93937127e+00   1.92845620e-01
C     9.669549044260449e+00   3.239318899184082e-01  -5.929056000000017e-01  2.80566220e-01  -2.16451070e+00  -4.26658260e-01
C     2.804550407222096e+00   3.624253163492395e+00  -1.469196000000004e-01  6.90024000e-03  -1.72205799e+00  -5.04360120e-01
C     3.440760450858536e+00   2.316411573978814e+00  -2.150172000000019e-01 -2.15155644e+00  -1.79363425e+00  -4.69012950e-01
C     4.846850823815527e+00   2.058767116389103e+00  -9.928319999999857e-02 -1.49620291e+00   3.65786601e+00  -6.99049860e-01
C     5.414124950484458e+00   8.197382895456248e-01  -1.660254000000023e-01 -1.49424087e+00  -1.14689913e+00   2.35252690e-01
C     6.769347562836521e+00   6.678077388159372e-01  -2.345937000000013e-01  3.82970985e+00  -1.94523138e+00  -1.29987048e+00
C     1.164421542375345e+00   1.266005634019051e+00  -6.788714999999996e-01  2.48806060e-01   1.53877692e+00   8.95750930e-01
C     2.556726268428917e+00   1.142352102000382e+00  -4.909584000000002e-01  2.47234762e+00  -2.73185150e-01   1.34829233e+00
C     1.587884543435403e+01   9.177005702799363e+00   3.403351200000000e+00 -1.61274782e+00   1.12395674e+00  -1.28066846e+00
C     1.159345677543383e+01   8.608812703499117e+00   3.307323900000000e+00  2.61250140e-01   5.13993970e-01   8.32952860e-01
C     1.307162824981498e+01   8.872449412019060e+00   3.186810300000000e+00 -4.04003485e+00  -2.65969386e+00   9.24053390e-01
C     1.387668780896415e+01   7.705254364643066e+00   3.343406400000000e+00 -5.52580810e-01   5.90723740e-01  -1.59883320e-01
C     7.383531967399692e+00   8.206302832319333e+00   3.555663900000000e+00 -5.76551084e+00  -3.99257330e-01  -1.53173047e+00
C     8.695643031834031e+00   8.357466078653308e+00   3.545610900000000e+00  3.60547631e+00   1.04097717e+00   2.48102260e-01
C     9.532544951158716e+00   7.270635047048914e+00   3.671410800000000e+00  2.80375165e+00  -3.67661798e+00   5.60923940e-01
C     1.099834494047117e+01   7.344856161172764e+00   3.691132200000000e+00  1.99003890e-01   8.36521630e-01  -1.92105221e+00
C     1.185965373615829e+01   6.192849665167003e+00   3.759149100000000e+00  5.10857090e-01   1.24798462e+00  -2.33036480e-01
C     1.332933583420984e+01   6.419547450503011e+00   3.587750700000000e+00 -1.41923960e+00  -2.25560743e+00   1.52407549e+00
C     1.525341950961484e+01   7.922295336629250e+00   3.355283100000000e+00  2.05103834e+00  -3.44287936e+00   1.39774282e+00
C     5.350486324835938e+00   6.720058597372276e+00   3.609703500000000e+00 -5.14347060e-01   4.99698410e-01  -6.95851560e-01
C     6.747875060193385e+00   6.914840390797758e+00   3.563353500000000e+00  1.52309171e+00  -1.77208289e+00   6.01107690e-01
C     7.631087972556235e+00   5.722332393861972e+00   3.639156900000000e+00 -1.79646950e+00   7.04995680e-01   5.15430250e-01
C     9.016313777198311e+00   5.899828622594181e+00   3.769467300000000e+00 -2.79010200e-01   1.04311213e+00  -5.42625450e-01
C     9.813956011053564e+00   4.732353024314347e+00   3.876354000000000e+00  1.65444783e+00   6.05938280e-01   4.83469480e-01
C     1.126285460944532e+01   4.908080340050862e+00   3.942889500000000e+00 -4.07378300e-01   7.37321450e-01   1.33571960e-01
C     1.212669173717156e+01   3.811833219868864e+00   4.088546400000000e+00 -8.54665190e-01  -9.35372230e-01  -6.40571620e-01
C     3.418676199523683e+00   5.215197227770434e+00   3.900982800000000e+00 -1.67074126e+00   2.92578614e+00  -1.11544199e+00
C     4.818044267194198e+00   5.355841629718705e+00   3.805793100000000e+00 -4.41024830e-01   3.07002416e+00  -9.09996560e-01
C     5.658088845974344e+00   4.274154217454815e+00   3.674841600000000e+00  4.24843630e-01  -1.58134179e+00   9.34006040e-01
C     7.041762204674158e+00   4.405799867742140e+00   3.659565900000000e+00  1.30578303e+00   9.72723390e-01  -7.70995050e-01
C     7.852405991979277e+00   3.235497823789280e+00   3.585114300000000e+00  3.48154860e-01   1.57556861e+00   7.50935990e-01
C     9.252748226596914e+00   3.423594224101210e+00   3.860387100000000e+00 -1.74760100e-02  -6.41540670e-01  -1.71676522e+00
C     1.012590008370016e+01   2.293092815603174e+00   3.712658100000000e+00  1.55049003e+00   8.10057000e-01   6.89083080e-01
C     1.157456648942961e+01   2.511941037889325e+00   3.924929400000000e+00 -3.53422760e-01  -1.92412761e+00  -8.50854750e-01
C     2.764997767891600e+00   3.990225071304049e+00   4.066990200000000e+00  3.34317780e+00  -1.92647489e+00   1.75696850e-01
C     3.733928668405741e+00   2.841302308947804e+00   4.016057700000000e+00 -2.19794862e+00  -9.54592560e-01  -1.04930093e+00
C     5.117301820581509e+00   2.964393529486569e+00   3.750516900000000e+00 -9.16179070e-01  -1.49084818e+00  -6.46707270e-01
C     5.881408278039977e+00   1.740236040735980e+00   3.408110700000000e+00 -6.77617710e-01   1.87418838e+00   7.11527850e-01
C     7.262167463029993e+00   1.983030655177674e+00   3.347353800000000e+00  1.66690579e+00  -1.78574256e+00   4.63436770e-01
C     8.174136217096725e+00   8.515561119027326e-01   3.298494900000000e+00  1.11903165e+00   1.11133820e+00  -5.75615720e-01
C     9.607507562447536e+00   1.008991880915652e+00   3.408394200000000e+00  1.08740510e-01   4.95560790e-01   5.31605220e-01
C     1.729636718608689e+00   1.388692451828763e+00   3.720610500000000e+00 -1.09955840e+00  -1.07995787e+00  -4.73823950e-01
C     3.161235351956286e+00   1.511266490966682e+00   3.813356100000000e+00 -8.95899520e-01   6.88278330e-01  -3.16600040e-01
C     3.928672823214042e+00   3.366572694891146e-01   3.529162800000000e+00 -3.91453120e-01   4.93928100e-01   5.44967910e-01
C     5.308368714087394e+00   4.092167592382090e-01   3.370414200000000e+00  1.99629961e+00   1.88600824e+00  -2.60628200e-02
C     1.151889155635303e+00   4.080084827916500e-02   3.357480000000000e+00  1.36991572e+00   1.67210264e+00   2.80342211e+00
