76
Lattice="10.7446858958278 0 0 5.37234294791388 9.3051709414712 0 0 0 30 " PBC="1 1 1" Properties=species:S:1:pos:R:3:force:R:3 Energy="-606.93229688"
C     2.926505385805430e-01   1.071680259228176e-01   2.354202000000000e-01 -3.48142509e+00  -2.97247613e+00  -5.61838890e-01
C     1.264650825164651e+01   8.586598375862346e+00   5.580930000000000e-02  2.80627919e+00   2.88617081e+00  -3.60817510e-01
C     1.414419191445177e+01   8.536138201837204e+00   1.551150000000000e-02 -2.14299243e+00  -4.72511387e+00   6.67078790e-01
C     1.473540273002814e+01   7.161996618014157e+00  -4.919010000000057e-02 -5.26677817e+00   6.99586870e-01  -4.90660860e-01
C     8.350991329456399e+00   9.042447627059527e+00   2.943000000000000e-02  1.64891949e+00  -4.26246400e-02  -5.55697830e-01
C     9.784837536200557e+00   8.894552170656262e+00   1.131534000000000e-01 -7.54947820e-01  -2.04026260e-01  -1.16417746e+00
C     1.040420732617907e+01   7.640020091561358e+00   2.165760000000000e-02  8.64620200e-01  -2.40906645e+00  -1.25650849e+00
C     1.188841752892973e+01   7.468236214217506e+00  -1.111925999999990e-01 -3.36045186e+00  -2.09066651e+00   2.54582790e-01
C     1.243007627068964e+01   6.117784758142315e+00  -2.917044000000004e-01  1.34293790e-01   2.67053560e+00   7.11579510e-01
C     1.383190970653991e+01   6.007617210366988e+00  -2.059271999999979e-01  1.21197681e+00  -9.39189900e-02   3.62822530e-01
C     6.177333635712552e+00   8.087584111605274e+00   7.611060000000000e-02 -6.29726500e-01  -3.18417650e-01  -5.77346600e-01
C     7.546814016466478e+00   7.868817867875104e+00  -7.436309999999935e-02 -5.33523400e-02   3.28207439e+00   9.01611440e-01
C     8.135966956075855e+00   6.657059612453775e+00  -2.500527000000012e-01  1.40748199e+00  -3.13960562e+00  -5.55865580e-01
C     9.553512238670836e+00   6.477307996389128e+00  -2.125794000000027e-01  1.24776693e+00  -1.52534670e-01   8.00849180e-01
C     1.015353815572986e+01   5.112268823831299e+00  -1.767099000000023e-01  6.79183450e-01   4.40448100e+00  -8.58109470e-01
C     1.160855166231417e+01   5.004924837126006e+00  -2.688036000000018e-01 -2.28593354e+00  -2.79598325e+00   1.36165151e+00
C     1.212307244344958e+01   3.645025282685176e+00  -8.884680000000245e-02  3.65472930e-01   1.41058972e+00  -8.72617190e-01
C     5.314083167836449e+00   6.955486587135900e+00  -7.515959999999922e-02  2.29720202e+00   1.21279166e+00   4.22949170e-01
C     5.873916384625913e+00   5.684422848297284e+00  -2.205501000000005e-01  2.52912591e+00  -7.61487690e-01  -5.15156480e-01
C     7.300292885732391e+00   5.503597322454452e+00  -4.101299999999988e-01 -1.02736266e+00  -9.49426100e-02   1.73090035e+00
C     7.800647174572662e+00   4.178058507485213e+00  -2.429325000000020e-01  3.17430193e+00   1.45985175e+00   5.64028000e-01
C     9.294177962554141e+00   4.065944783207785e+00  -6.743610000000189e-02 -1.59109382e+00  -3.14695324e+00   1.48288720e-01
C     9.899741207215158e+00   2.761804139332170e+00   1.941000000000000e-01 -3.86877137e+00  -1.10854591e+00  -8.62244660e-01
C     1.125709513546234e+01   2.506929179769331e+00   1.402548000000000e-01  9.07908570e-01   2.17633290e+00  -1.06769927e+00
C     3.643301325819883e+00   4.696236585189796e+00  -1.663058999999976e-01  6.71612690e-01  -3.41828140e-01  -5.51839210e-01
C     5.110738912710360e+00   4.537050699626482e+00  -1.417536000000013e-01 -4.12778878e+00  -1.21031543e+00  -7.86803820e-01
C     5.564800635648781e+00   3.204826956802237e+00  -1.785593999999975e-01  1.44341216e+00  -1.50050291e+00   8.00312590e-01
C     6.989225955519249e+00   3.057553551076310e+00  -6.919230000000098e-02 -4.94011370e-01  -2.54743110e-01  -6.62622690e-01
C     7.588100525760657e+00   1.785468476675320e+00   7.401719999999999e-02 -2.05299271e+00  -2.61532104e+00   2.91961200e-01
C     8.972219627755033e+00   1.580530740530794e+00   1.950030000000000e-01  2.24163275e+00   1.74686299e+00   1.64550280e-01
C     9.595687924446670e+00   2.840659321635850e-01   2.126622000000000e-01  1.77772330e-01   1.77833271e+00   9.37882500e-02
C     2.792734368691007e+00   3.529408347652257e+00  -2.367621000000000e-01  2.35605080e-01  -7.08650560e-01   4.99896990e-01
C     3.336497833248431e+00   2.190366799131984e+00  -2.725001999999996e-01 -7.84164640e-01  -4.04865210e-01   1.24306956e+00
C     4.734433419394756e+00   1.983611204792620e+00  -1.301567999999982e-01 -1.20465086e+00   3.83441401e+00  -1.00272885e+00
C     5.229436424869391e+00   7.109413934497603e-01  -3.169529999999909e-02  2.78126912e+00   1.49748010e-01   1.19992524e+00
C     6.654620588181547e+00   5.960871102270838e-01   9.083339999999999e-02  1.98987737e+00   1.00101160e-01  -3.84656900e-01
C     1.020184234172591e+00   1.204496593071463e+00   5.118300000000001e-02  4.06303659e+00   2.07729103e+00   1.37420390e-01
C     2.445002164865845e+00   1.035610997320292e+00  -1.328789999999991e-01  1.95980540e-01   1.15714577e+00   5.92688340e-01
C     1.585143692253857e+01   9.212661070703836e+00   3.856916400000000e+00  1.48312388e+00  -4.12197950e-01  -1.86669244e+00
C     1.169290674078247e+01   8.709582773038719e+00   3.664596900000000e+00  2.20668990e-01  -2.29579810e-01  -8.63236100e-02
C     1.311534531450660e+01   8.947814876065111e+00   3.866506500000000e+00 -2.89682656e+00  -7.73181650e-01  -1.11391381e+00
C     1.389702567277625e+01   7.788786325861190e+00   3.718716000000000e+00 -4.25521380e-01  -1.56485800e+00  -9.15725590e-01
C     7.406982459270160e+00   8.228143371239444e+00   3.521777700000000e+00 -1.28194100e-01  -1.45040701e+00   7.71992090e-01
C     8.816253581594129e+00   8.387466787229252e+00   3.554883600000000e+00 -1.16750509e+00  -8.98575410e-01  -4.35876170e-01
C     9.665533003011607e+00   7.322722974626590e+00   3.373929000000000e+00  2.05303024e+00  -4.78615098e+00   6.40789750e-01
C     1.112173358249414e+01   7.412874355296300e+00   3.362074200000000e+00 -4.08693100e-01  -2.68499420e-01   9.65982420e-01
C     1.194392704756689e+01   6.194391811146891e+00   3.281488500000000e+00  9.47240440e-01   3.23972239e+00   1.55106589e+00
C     1.339073376306078e+01   6.443559444113680e+00   3.440057700000000e+00 -2.72511326e+00  -1.90879540e-01  -4.85188830e-01
C     1.526844837040032e+01   7.941959675221624e+00   3.645542400000000e+00  1.86620823e+00  -1.46626184e+00   9.18336910e-01
C     5.327836473235308e+00   6.756764239920747e+00   3.469190400000000e+00  2.89281647e+00   4.15839940e-01  -7.71483100e-01
C     6.849047130074643e+00   6.930110548517136e+00   3.458629200000000e+00 -2.59191898e+00  -7.33680090e-01  -4.21389140e-01
C     7.680377929760178e+00   5.789969820390644e+00   3.301764000000000e+00  2.17691160e+00   1.51841540e-01   8.02293490e-01
C     9.162379025089804e+00   5.901085658136465e+00   3.408661200000000e+00 -1.82834808e+00   2.53019550e+00  -2.05158840e+00
C     9.999477787060178e+00   4.760830662510832e+00   3.239316000000000e+00 -1.61463882e+00   6.39384640e-01   1.75061594e+00
C     1.138537615531616e+01   4.909341004609813e+00   3.347556000000000e+00 -2.85315050e-01   2.73706290e-01  -1.60816289e+00
C     1.216403731057134e+01   3.752392997576366e+00   3.252924000000000e+00  2.75601151e+00   8.47178800e-01   4.72202200e-02
C     3.408568458603835e+00   5.264630017872090e+00   3.229400100000000e+00 -1.38812250e-01   4.03200000e-02   5.52942150e-01
C     4.802950186165306e+00   5.427543275758841e+00   3.221134500000000e+00  1.54552849e+00   1.74398290e+00   1.40422201e+00
C     5.721671330639037e+00   4.357246881552862e+00   3.310814400000000e+00 -5.76484600e-01  -2.22215193e+00  -7.80944020e-01
C     7.138208493079450e+00   4.497450125346867e+00   3.266574000000000e+00 -4.44207330e-01  -3.48055250e-01   2.45688840e-01
C     7.996935233297934e+00   3.338277717200213e+00   3.353061000000000e+00 -1.59685423e+00   4.48520870e-01   2.04265187e+00
C     9.404056182803023e+00   3.470059036879843e+00   3.405726300000000e+00  4.59756590e-01  -5.90564600e-01  -3.13436600e-01
C     1.024271394497406e+01   2.313448249241262e+00   3.605186700000000e+00  5.46492370e-01   1.13431204e+00  -1.48384384e+00
C     1.168834519183048e+01   2.464796761528652e+00   3.333120000000000e+00 -3.69242016e+00  -9.67634920e-01   1.82605583e+00
C     2.827950345345404e+00   3.937033178246051e+00   3.186314100000000e+00  1.01214050e+00   1.27870447e+00  -8.30487320e-01
C     3.767234938311702e+00   2.872557075411332e+00   3.096643200000000e+00 -2.62120266e+00  -3.23758052e+00   1.95341153e+00
C     5.118809783524144e+00   3.013791797404037e+00   3.344130900000000e+00  2.05088679e+00   8.80374330e-01  -6.24554770e-01
C     5.951598690809740e+00   1.865454423351628e+00   3.557377800000000e+00  1.60165430e-01   2.15267670e-01   1.25824792e+00
C     7.340518948251671e+00   2.135025504638556e+00   3.807186600000000e+00  1.67345077e+00  -1.98395512e+00  -2.87473175e+00
C     8.237853064058600e+00   9.761173633465983e-01   3.836889000000000e+00 -1.32549188e+00  -7.53856190e-01   8.75496320e-01
C     9.624817896113591e+00   1.052042440372981e+00   3.764470800000000e+00  2.07727081e+00   9.14059440e-01   7.51430750e-01
C     1.736550064410467e+00   1.336833989766467e+00   3.475773600000000e+00  3.06459749e+00  -1.09462069e+00  -7.67182030e-01
C     3.213752206953145e+00   1.479535951112991e+00   3.315649200000000e+00 -1.70989590e+00   1.35696572e+00   7.03744210e-01
C     4.004717854160426e+00   3.212896866299952e-01   3.606468600000000e+00  1.63795100e+00   3.69693716e+00  -1.31719571e+00
C     5.434317975930623e+00   5.053712778881519e-01   3.657849300000000e+00 -3.03052320e-01   1.30958552e+00  -3.44469780e-01
C     1.194089769082425e+00   7.762466649857401e-03   3.661935300000000e+00 -2.16280555e+00   2.82872051e+00   1.89854460e-01
