76
Lattice="10.7446858958278 0 0 5.37234294791388 9.3051709414712 0 0 0 30 " PBC="1 1 1" Properties=species:S:1:pos:R:3:force:R:3 Energy="-608.73951727"
C     8.250221110827800e-02   1.006205354425960e-02  -2.692002000000002e-01 -2.62887235e+00   9.34404740e-01   1.10961655e+00
C     1.246322760222492e+01   8.502133012947231e+00  -3.692847000000015e-01 -2.33672720e-01   2.19445766e+00   8.74119620e-01
C     1.383560797370326e+01   8.338552015993825e+00  -3.770978999999990e-01  2.64623972e+00  -1.73937820e+00   3.80436140e-01
C     1.446213694789694e+01   6.998074958752639e+00  -3.210008999999978e-01 -2.33662691e+00   8.33359320e-01  -2.77366010e-01
C     8.258143919869884e+00   9.009475312143893e+00  -2.056235999999991e-01  8.98007180e-01  -8.22559430e-01   9.47681760e-01
C     9.720897468389115e+00   8.831034794664694e+00  -1.980560999999987e-01 -2.30002110e+00  -5.45873830e-01  -1.58444580e-01
C     1.028702427749764e+01   7.521066694436193e+00  -1.784201999999979e-01 -2.68688776e+00  -6.57210790e-01  -8.53429340e-01
C     1.165098629502019e+01   7.376835428245681e+00  -3.228951000000002e-01  5.65547040e-01  -1.87032723e+00   1.07966688e+00
C     1.220266230744466e+01   6.029994564598628e+00  -1.555415999999994e-01 -1.72040071e+00   1.38692600e+00  -1.12613942e+00
C     1.357198984504166e+01   5.844992412779377e+00  -2.205179999999984e-01  1.47201111e+00   3.81694061e+00   2.96183240e-01
C     5.939232631807430e+00   7.981395082717054e+00  -2.846829000000000e-01  3.45393475e+00   1.02565826e+00   6.34138510e-01
C     7.440684402234388e+00   7.814305105802174e+00  -1.735095000000015e-01 -2.53997687e+00   1.33741526e+00  -7.31546320e-01
C     7.953883963068108e+00   6.511176678421413e+00  -1.513607999999991e-01  1.69119825e+00  -9.39158160e-01   2.82921700e-02
C     9.414745318676919e+00   6.330651709599942e+00  -1.915602000000014e-01 -1.56898743e+00   3.33031745e+00   9.15394400e-01
C     9.955127000794176e+00   5.079434597652415e+00  -6.808949999999925e-02 -4.40157430e-01  -5.65964470e-01  -1.27650818e+00
C     1.132461049750702e+01   4.928924760421847e+00  -1.030995000000026e-01  2.82509207e+00  -1.35451121e+00   1.03964587e+00
C     1.193347585276225e+01   3.587005215581541e+00   1.654320000000000e-02 -1.41867197e+00   3.67467709e+00  -9.06513300e-02
C     5.104033369133888e+00   6.844156172148202e+00  -2.646171000000024e-01  2.18550440e-01  -3.83826930e-01   3.07556760e-01
C     5.647293283986608e+00   5.515924347657217e+00  -1.296732000000027e-01  1.97694422e+00   8.67168550e-01  -4.40838280e-01
C     7.114246500436712e+00   5.331712763161028e+00  -9.754410000000036e-02 -1.07791161e+00   1.13235609e+00  -8.31978260e-01
C     7.693353695963884e+00   4.035631979198513e+00  -1.962492000000005e-01  7.57238600e-02   1.67872111e+00   4.48587050e-01
C     9.137670652841024e+00   3.945108019484364e+00  -1.730774999999980e-01 -2.38043872e+00  -5.23858370e-01   1.20030678e+00
C     9.677603475704808e+00   2.678807504598225e+00  -8.881800000001050e-03 -9.88967600e-01  -1.63550306e+00  -1.17613586e+00
C     1.107161332968728e+01   2.529872474497542e+00  -2.271119999999982e-02 -4.97465870e-01  -2.08991774e+00   5.52994310e-01
C     3.402727217561158e+00   4.648398236128710e+00  -4.127219999999809e-02 -6.42115600e-02  -4.68172005e+00   9.66631000e-03
C     4.784681802580979e+00   4.420770585060668e+00  -1.407789000000008e-01  2.03084680e+00  -1.09598810e+00   1.25645650e-01
C     5.446179571929928e+00   3.093115495064546e+00  -2.320233000000016e-01 -3.12691204e+00   1.48377714e+00   1.02706703e+00
C     6.801953547838949e+00   2.925308740832158e+00  -2.194982999999979e-01  2.19600774e+00   1.55936818e+00  -5.56474850e-01
C     7.386911976966685e+00   1.668840255664642e+00  -2.825319000000022e-01  1.74351386e+00  -7.46111600e-02   1.63968662e+00
C     8.805640894160408e+00   1.530496464179576e+00  -9.167730000000063e-02  5.33333140e-01  -2.13284815e+00  -1.19901524e+00
C     9.330969862289491e+00   1.216630629028932e-01  -2.347166999999999e-01  2.01615902e+00   3.67341821e+00   5.69309800e-02
C     2.548666142301032e+00   3.474222542565236e+00   9.257040000000000e-02  3.07392718e+00  -3.26258420e-01  -1.16672139e+00
C     3.187918973537493e+00   2.189739165352081e+00  -3.484979999999993e-02 -3.92164220e-01  -1.23194714e+00   5.19816590e-01
C     4.606820933897637e+00   1.967388011465568e+00  -1.510422000000027e-01 -1.50682834e+00   7.48113050e-01  -3.09696340e-01
C     5.146746557821869e+00   6.675326779629508e-01  -2.390298000000008e-01  9.00009040e-01   7.67259600e-01   8.07213810e-01
C     6.566146480650048e+00   5.712309515087370e-01  -1.979562000000001e-01 -8.48520620e-01  -3.91445037e+00  -1.88259204e+00
C     8.710341869592091e-01   1.258245214506800e+00  -5.683770000000266e-02  1.90453031e+00  -4.51585854e+00  -6.93244460e-01
C     2.342893050927247e+00   1.025882627205940e+00  -4.343309999999789e-02 -1.48975422e+00   5.93139290e-01  -7.47547420e-01
C     1.605490979155489e+01   9.237993468070893e+00   3.530169900000000e+00  6.32328770e-01   3.14911309e+00  -7.05989340e-01
C     1.184922317115057e+01   8.834183013148824e+00   3.711178800000000e+00 -3.04720541e+00  -1.15481220e+00   2.08867140e-01
C     1.321914832817733e+01   8.989680515054941e+00   3.677995500000000e+00  2.18800805e+00  -1.47666361e+00   6.90550540e-01
C     1.410741849557617e+01   7.829254421227541e+00   3.708893700000000e+00 -1.15321063e+00  -9.34101480e-01  -1.35293123e+00
C     7.631967747437729e+00   8.284265927884995e+00   3.604733100000000e+00 -7.85083830e-01   1.81358071e+00  -2.07720760e+00
C     9.034649046452365e+00   8.520177600434078e+00   3.553268700000000e+00 -1.97224689e+00  -4.03589663e+00   5.63918110e-01
C     9.817659059602143e+00   7.310803422859287e+00   3.592612500000000e+00  1.94584438e+00   2.67921279e+00   4.18331910e-01
C     1.124236691098835e+01   7.519709535254594e+00   3.722467800000000e+00  1.42883488e+00  -1.48800023e+00  -1.74808386e+00
C     1.213556657910782e+01   6.359727018925904e+00   3.510915900000000e+00 -1.22054297e+00   6.11865060e-01   1.26570170e-01
C     1.356004051868198e+01   6.476047797088725e+00   3.504329700000000e+00 -1.07005931e+00   2.90663302e+00   1.70768525e+00
C     4.773390373338958e+00   7.974690893158202e+00   3.632450100000000e+00 -6.55578650e-01  -8.34030910e-01   7.48838860e-01
C     5.643588301394570e+00   6.858798603035967e+00   3.696207600000000e+00 -1.54568820e-01  -1.63891892e+00  -1.36621917e+00
C     7.077134946295836e+00   7.000913315044467e+00   3.534681000000000e+00 -1.66161884e+00  -7.34433970e-01   1.67683118e+00
C     7.865779956242436e+00   5.825727545175457e+00   3.601634700000000e+00 -2.60624950e-01   8.95975920e-01  -4.41419900e-01
C     9.268245716857919e+00   6.042561197953098e+00   3.553541700000000e+00  3.48063720e-01  -2.32443888e+00  -5.23114400e-02
C     1.014773634768444e+01   4.899333758522390e+00   3.477190800000000e+00 -1.08327989e+00  -8.91547980e-01   6.44753550e-01
C     1.155306879049804e+01   5.059637567322437e+00   3.369497100000000e+00  2.53322020e-01   5.36397620e-01   1.32062458e+00
C     1.242361753254829e+01   3.928488146720140e+00   3.475514400000000e+00 -2.53902547e+00  -3.00089560e-01  -9.86974510e-01
C     3.622714024124618e+00   5.352085783572192e+00   3.595881300000000e+00  1.28562335e+00   1.47102450e-01  -9.45918280e-01
C     5.054621889532417e+00   5.520356214472520e+00   3.632349900000000e+00 -1.44419126e+00   2.20981520e+00  -3.10809010e-01
C     5.845603761215407e+00   4.416254506448358e+00   3.451157700000000e+00  2.10220969e+00  -1.43201285e+00   1.35859740e+00
C     7.232434230973217e+00   4.549729181135650e+00   3.596747400000000e+00  2.34233141e+00   1.17475546e+00  -9.08350610e-01
C     8.112971071865816e+00   3.457171933438200e+00   3.576984300000000e+00  5.26600630e-01  -2.65503589e+00   8.16400000e-05
C     9.543547348350028e+00   3.564127243153329e+00   3.616737600000000e+00  8.17361730e-01   1.61561860e+00  -1.36780770e+00
C     1.043316189084867e+01   2.428894527439140e+00   3.503146800000000e+00 -1.96275243e+00   3.66845650e-01   2.16740720e-01
C     1.182068399603787e+01   2.652405663935035e+00   3.449879100000000e+00  1.74480335e+00  -3.01202698e+00   3.31640730e-01
C     3.039714028895876e+00   4.068795515376964e+00   3.490034700000000e+00  2.89785302e+00  -6.33277390e-01   1.22223442e+00
C     3.928077513891752e+00   2.933496267690554e+00   3.631095900000000e+00  1.10111149e+00  -2.36617800e-02  -1.40709075e+00
C     5.406901190707029e+00   3.089567619488542e+00   3.510854400000000e+00 -4.58045442e+00  -2.71479280e-01   4.39260530e-01
C     6.175257493779524e+00   1.918699541987402e+00   3.577795500000000e+00  1.64301670e-01   6.32876720e-01  -2.53962770e-01
C     7.579881324558023e+00   2.095463267663215e+00   3.517314000000000e+00  1.08846980e-01   9.42030700e-01   1.48800782e+00
C     8.417814035324525e+00   9.716334806257404e-01   3.698460900000000e+00  6.93137890e-01   6.45176590e-01  -1.73434817e+00
C     9.818792785134880e+00   1.127278097284420e+00   3.521483700000000e+00  1.84090235e+00  -9.89731800e-01   7.58949820e-01
C     1.958352561720737e+00   1.437981849246233e+00   3.482177100000000e+00 -1.02952688e+00   9.45186680e-01  -4.98130870e-01
C     3.398007453109295e+00   1.624642275578702e+00   3.572844900000000e+00 -2.54249172e+00  -1.21869000e-03  -1.36978360e-01
C     4.186296867676034e+00   4.569798294663914e-01   3.576852900000000e+00  1.27627974e+00   2.31943456e+00   4.70081270e-01
C     5.562050694462964e+00   6.360506792250676e-01   3.686684100000000e+00  2.58713843e+00   8.62655000e-02  -6.21486490e-01
C     1.360313283361195e+00   1.020033768959894e-01   3.393464400000000e+00  9.04591140e-01   1.10981564e+00   2.03435933e+00
