76
Lattice="10.7446858958278 0 0 5.37234294791388 9.3051709414712 0 0 0 30 " PBC="1 1 1" Properties=species:S:1:pos:R:3:force:R:3 Energy="-603.37558449"
C     5.523450571537502e+00   9.238764122328142e+00   4.897620000000000e-02 -4.04090165e+00   4.63737876e+00  -6.90647190e-01
C     1.250516760331554e+01   8.537061926156419e+00   2.513136000000000e-01 -1.01138480e-01  -3.67186034e+00  -1.29440097e+00
C     1.392893669149466e+01   8.322215392633014e+00   1.678344000000000e-01 -5.30873670e-01   1.12614597e+00   5.33316340e-01
C     1.456428076717099e+01   7.090757811176577e+00   3.240630000000000e-02 -4.99684221e+00  -2.65188951e+00  -3.38433400e-01
C     8.228103765860375e+00   8.946836530392480e+00  -3.573269999999695e-02 -8.09759900e-01   3.34272191e+00  -7.03583910e-01
C     9.631889242521527e+00   8.868472661114431e+00   7.019580000000000e-02 -1.45267872e+00  -3.16039633e+00  -7.82653450e-01
C     1.015087153958320e+01   7.545990873954112e+00  -3.693899999998251e-03  2.47522035e+00  -1.05637940e+00   2.56425020e-01
C     1.161670913529630e+01   7.385647425125860e+00   1.229490000000000e-02 -1.52344576e+00   3.98058030e-01  -1.72122430e-01
C     1.211040247100659e+01   6.100089765927682e+00  -2.667840000000012e-01  3.06739616e+00  -1.41899589e+00   8.63451000e-03
C     1.364801505204256e+01   5.893228930104986e+00  -1.722365999999980e-01 -3.71620740e+00   5.37386291e+00   4.33491860e-01
C     6.054155052298925e+00   8.000350553387218e+00  -3.689999999778593e-05 -5.65111356e+00   3.81581090e-01   3.11559260e-01
C     7.333740716875085e+00   7.916698834619097e+00  -5.731799999999510e-03  8.22576200e+00  -4.89514211e+00   7.88341680e-01
C     7.975483682792301e+00   6.586786589308057e+00   5.282370000000000e-02 -4.21169583e+00  -1.36005762e+00  -1.87874395e+00
C     9.304376925857280e+00   6.349627279439337e+00  -1.139031000000017e-01  2.06597327e+00   2.33913043e+00  -5.10939500e-02
C     9.835864264433376e+00   5.073149978251249e+00  -3.927683999999978e-01  2.26068639e+00  -5.34617490e-01   3.49453900e-01
C     1.127295192801985e+01   4.938082630505867e+00  -5.201469000000003e-01 -3.35675000e-03  -1.71458590e+00   1.85571286e+00
C     1.181862966581722e+01   3.484086675123603e+00  -3.976292999999984e-01  4.64006824e+00   6.12953188e+00  -1.55285358e+00
C     5.151025414087826e+00   6.932178343603422e+00   3.513900000000000e-03  1.99158610e+00  -1.31631572e+00   6.49071500e-02
C     5.683387907330478e+00   5.628858788011553e+00  -5.642160000000018e-02  1.55687360e-01   7.10810000e-02  -1.30629760e-01
C     7.064766469739199e+00   5.438130047892408e+00  -1.653504000000012e-01  2.75505786e+00  -6.87074910e-01   1.29585625e+00
C     7.623939103239531e+00   4.089138293982573e+00  -1.869881999999983e-01  6.39075150e-01  -6.46370420e-01   1.79843230e-01
C     9.071649715434754e+00   3.881046011837678e+00  -2.928149999999974e-01 -1.31169609e+00   6.45751990e-01   4.90290670e-01
C     9.705687881986799e+00   2.596232952418118e+00  -1.539150000000014e-01 -3.79784854e+00  -1.85986576e+00   8.62909670e-01
C     1.106842178191097e+01   2.364824331242027e+00  -2.391249000000002e-01 -8.27422790e-01   1.76388594e+00  -5.79773740e-01
C     3.363219652188012e+00   4.668017816848861e+00  -2.312499000000017e-01  4.04498599e+00  -4.54023752e+00  -2.82802460e-01
C     4.851789403795744e+00   4.549996425645047e+00  -5.820000000000292e-02 -1.46658587e+00  -5.58467520e+00  -1.97855497e+00
C     5.453210410872023e+00   3.069957809197877e+00  -2.034269999999978e-01 -5.15611846e+00   2.67459553e+00   1.20712762e+00
C     6.782151306618967e+00   2.875844127045887e+00  -6.110699999999980e-02  2.31811124e+00   3.25966978e+00  -1.19512070e-01
C     7.352180585646376e+00   1.652469575378190e+00   2.057523000000000e-01  2.86068951e+00  -3.26632783e+00  -9.44407990e-01
C     8.836918083857585e+00   1.415887930521425e+00   1.545813000000000e-01 -7.36390290e-01   2.93181405e+00  -8.03563820e-01
C     9.410489187421639e+00   1.250993694793258e-01   1.616865000000000e-01  1.58083797e+00   6.29689410e-01   6.08083700e-02
C     2.596234908270653e+00   3.464865820978229e+00  -4.645682999999998e-01 -2.60215099e+00  -2.14374694e+00   1.18129903e+00
C     3.152687685705688e+00   2.099356923391348e+00  -3.908178000000007e-01 -2.37723741e+00   1.20368171e+00   3.42249620e-01
C     4.504539636367491e+00   1.939780778958810e+00  -1.777334999999987e-01  2.79533216e+00   1.27349178e+00  -4.50847590e-01
C     5.057546593034397e+00   6.598206453395882e-01  -2.656289999999828e-02  3.57109974e+00   4.08036010e-01   1.09533473e+00
C     6.552404242277667e+00   4.588518437561006e-01   1.822503000000000e-01 -2.40340556e+00   3.45600680e+00  -5.79053400e-02
C     9.289369232103024e-01   1.139175409693175e+00  -2.044119000000002e-01 -2.50205106e+00  -4.00411656e+00   1.09517730e+00
C     2.249257250012819e+00   9.122706773554634e-01  -2.912127000000027e-01  4.78784317e+00   2.47481205e+00   2.70412090e-01
C     1.072524693661030e+01   3.276964829256040e-02   3.585723600000000e+00  5.07685180e-01  -3.06995492e+00  -1.24180750e-01
C     1.185319768418841e+01   8.853628680224107e+00   3.614551200000000e+00  1.42782586e+00  -4.07240263e+00  -1.30047148e+00
C     1.333790520472596e+01   8.959910016408053e+00   3.705646200000000e+00 -5.41624359e+00   4.14728712e+00  -1.51019915e+00
C     1.412441062536929e+01   7.885444161207277e+00   3.631309200000000e+00  2.20109400e+00  -3.69481868e+00  -8.57209970e-01
C     7.630407296704472e+00   8.323696775846663e+00   3.322120500000000e+00 -1.48009485e+00  -8.03579110e-01   2.68059740e+00
C     9.015449582111376e+00   8.437742718869782e+00   3.516339000000000e+00  4.15619900e-01   2.54642443e+00  -2.46358730e-01
C     9.876275565337572e+00   7.358742267766526e+00   3.435417900000000e+00  5.46805490e-01  -2.83050343e+00  -1.68566930e-01
C     1.128871819659864e+01   7.494811317163599e+00   3.316889400000000e+00  7.21461680e-01   5.32635160e-01   2.06177298e+00
C     1.212692145855610e+01   6.286760986258440e+00   3.258603000000000e+00  1.85401057e+00   3.41751761e+00   1.95248183e+00
C     1.360750516864523e+01   6.557057498671852e+00   3.447927900000000e+00 -3.31388519e+00  -7.19587750e-01  -5.67152600e-01
C     4.799875970359028e+00   8.031406003089211e+00   3.566704500000000e+00 -3.30339410e-01  -8.67910800e-01   1.33150030e-01
C     5.611478505987003e+00   6.856022219182599e+00   3.506714100000000e+00  1.20203546e+00   7.67363100e-02  -8.14530160e-01
C     7.079445967062639e+00   7.015461856757447e+00   3.507043800000000e+00 -1.69330763e+00  -5.70662640e-01  -2.18616437e+00
C     7.901619017232175e+00   5.849566183451516e+00   3.344792100000000e+00 -4.82983020e-01   7.52268560e-01   1.09990760e+00
C     9.318997273684840e+00   5.996738441969325e+00   3.491233200000000e+00 -7.09516370e-01   1.47407165e+00  -1.26907850e+00
C     1.011757187765906e+01   4.869027095925938e+00   3.549377700000000e+00  3.26341569e+00  -6.84794000e-03  -1.38414520e-01
C     1.160173184900315e+01   5.006175917358889e+00   3.482472900000000e+00 -5.06727301e+00   3.43241535e+00  -6.57898980e-01
C     1.235081890099973e+01   3.916046295707975e+00   3.588008100000000e+00  2.93185461e+00   3.12418220e-01   6.44558590e-01
C     3.624011874734478e+00   5.375468561523900e+00   3.378234600000000e+00  3.95957340e-01   7.30647980e-01   5.96410050e-01
C     5.036671494927299e+00   5.551405522761693e+00   3.313464000000000e+00  1.01591811e+00  -7.03426910e-01   1.04711755e+00
C     5.925041319287857e+00   4.381622428192157e+00   3.253531500000000e+00 -1.75840354e+00   2.40185087e+00  -5.18684710e-01
C     7.290277334217565e+00   4.579977221155180e+00   3.232139700000000e+00  3.72325178e+00  -2.23413473e+00   9.03809430e-01
C     8.227297806971016e+00   3.369510802615451e+00   3.374289300000000e+00 -1.91785405e+00   2.47593747e+00   6.30421560e-01
C     9.626869056651898e+00   3.552669413968069e+00   3.636688500000000e+00 -2.70878719e+00   3.44217720e-01  -4.86007630e-01
C     1.041820749073648e+01   2.430197158319031e+00   3.846889800000000e+00  2.39393093e+00  -4.60499780e-01  -1.65876008e+00
C     1.187763357120277e+01   2.686259085486977e+00   3.765250500000000e+00 -3.32702922e+00  -6.12147733e+00   7.49194710e-01
C     2.972618891516755e+00   4.101719536455419e+00   3.549395100000000e+00  4.13923497e+00  -4.26595340e-01  -1.71880948e+00
C     3.863961448125266e+00   2.990194256107035e+00   3.449304000000000e+00  1.10041598e+00  -2.08056113e+00   7.76447490e-01
C     5.321852112976445e+00   3.142553030803381e+00   3.234010800000000e+00 -1.01702445e+00  -3.94731237e+00   7.46634430e-01
C     6.161192538766135e+00   1.883583967049158e+00   3.251063700000000e+00  3.52025630e-01   3.26240416e+00   2.28328446e+00
C     7.635771419969759e+00   2.101319756149432e+00   3.498498600000000e+00 -3.30194584e+00   9.05931000e-01  -2.13694879e+00
C     8.439033393167858e+00   1.013227966934378e+00   3.543029400000000e+00  3.12393209e+00  -3.87412622e+00   2.13053552e+00
C     9.880351776827455e+00   1.097596090813170e+00   3.677516700000000e+00 -1.34200797e+00   4.10165988e+00   3.54727990e-01
C     1.939906407308194e+00   1.483248528214632e+00   3.727914900000000e+00 -1.85232170e-01  -1.14468721e+00  -9.27297260e-01
C     3.346513599656975e+00   1.585705625245656e+00   3.676717200000000e+00  6.65052830e-01   2.67624977e+00  -9.71622690e-01
C     4.204035699415780e+00   4.575085492792022e-01   3.658787400000000e+00 -1.35997910e+00  -5.80970150e-01  -1.14276761e+00
C     5.582431483295231e+00   6.163076188865414e-01   3.536622000000000e+00  1.72011700e+00   1.60027702e+00  -2.59377750e-01
C     1.370023846966749e+00   1.240368120096872e-01   3.494717100000000e+00  1.63054992e+00   3.00973559e+00   9.76195380e-01
