64
Lattice="9.86 0 0 4.93 8.53901048131456 0 0 0 30 " PBC="1 1 1" Properties=species:S:1:pos:R:3:force:R:3 Energy="-514.44993339"
C     9.824620446599999e+00   6.151566338469553e-01   8.426460000000000e-02 -2.52370340e-01   4.61336040e-01   8.50995500e-02
C     1.221662085200000e+00   1.310003753778720e+00   2.363010000000000e-02 -1.26261907e+00  -8.84208460e-01  -4.55857590e-01
C     1.242053452600000e+00   1.492308211922528e-01   3.795893700000000e+00  1.64068928e+00  -1.74459245e+00  -6.76219760e-01
C     2.518778954300000e+00   8.092904393790217e-01   3.628337400000000e+00 -2.09141746e+00   9.02143190e-01   2.56026910e-01
C     2.443716943500000e+00   6.167900611616745e-01  -1.516919999999899e-02 -1.10971670e-01  -1.21134115e+00   1.62299760e-01
C     3.666332096300000e+00   1.337758355712178e+00  -1.372578000000004e-01  4.09908300e-01  -1.10062701e+00  -2.12138060e-01
C     3.696509809500000e+00   9.856195541592400e-02   3.665010000000000e+00  2.74592544e+00  -1.14639658e+00   4.33584280e-01
C     4.965660366200000e+00   8.144115401341920e-01   3.570399600000000e+00 -7.54485350e-01  -8.51358390e-01  -7.75587800e-02
C     4.893885334300000e+00   5.831432858267016e-01  -1.068867000000004e-01  9.98921630e-01   2.88646587e+00  -1.77021580e-01
C     6.167809708599999e+00   1.326076050084386e+00  -9.505560000000202e-02 -2.12264527e+00  -5.59821140e-01   8.98269170e-01
C     6.205991128900000e+00   1.105249383181944e-01   3.579813900000000e+00 -2.82430270e-01  -6.51366220e-01  -2.04201490e-01
C     7.423225581100000e+00   8.262139042493336e-01   3.677783700000000e+00  1.13277068e+00  -1.51165651e+00  -8.88063320e-01
C     7.393813496900000e+00   6.648351451878136e-01   1.361760000000000e-02 -1.82321692e+00  -2.68797856e+00  -7.69989000e-01
C     8.575532081199999e+00   1.350253404357458e+00   7.779150000000000e-02  2.27180165e+00  -9.44748460e-01  -3.27107800e-02
C     8.684136776700001e+00   4.735453424862160e-02   3.640197600000000e+00 -5.16191310e-01   3.05617565e+00   4.36260750e-01
C     9.912354184300000e+00   8.484580265497336e-01   3.669709200000000e+00 -1.45445435e+00  -1.08267450e+00   8.76530700e-02
C     1.102649499080000e+01   2.676237745469288e+00  -2.144265000000019e-01  1.28565901e+00   2.67693607e+00  -2.33020700e-02
C     2.417491315500000e+00   3.419167264902990e+00  -4.007541000000003e-01 -5.02525890e-01   8.95962790e-01   7.48205800e-02
C     2.513171325800000e+00   2.228724088771981e+00   3.388420800000000e+00 -1.60311650e-01   7.50088410e-01  -5.14988270e-01
C     3.727940038500000e+00   2.969216916175109e+00   3.324083700000000e+00  7.10611160e-01  -2.00534572e+00  -1.96719930e-01
C     3.668255190700000e+00   2.750443198172269e+00  -3.413847000000025e-01 -2.40679380e-01  -2.70806210e-01   1.22598092e+00
C     4.879240769300000e+00   3.467207737863470e+00  -1.582514999999987e-01  9.59365720e-01  -3.13021300e-02  -3.71701150e-01
C     4.976313356700000e+00   2.213428586249681e+00   3.462299400000000e+00 -1.02114319e+00   1.36887001e+00   7.51088500e-02
C     6.188692350500000e+00   2.937902144602225e+00   3.524867100000000e+00  4.80336630e-01  -1.79653690e-01   7.34469930e-01
C     6.121963420099999e+00   2.719960809340975e+00   1.606530000000000e-02 -9.19584470e-01   1.63206311e+00  -6.81366390e-01
C     7.339107160299999e+00   3.439938407895589e+00   6.823680000000000e-02  4.30085780e-01   1.31861618e+00  -7.97627640e-01
C     7.415505891300000e+00   2.236745037486159e+00   3.629093700000000e+00  1.20737856e+00   3.29164470e-01  -3.89209930e-01
C     8.682843243299999e+00   2.953147181572588e+00   3.501654600000000e+00 -1.32765685e+00  -6.21924250e-01   7.89969770e-01
C     8.558177988199999e+00   2.729065187704856e+00   9.402600000000001e-03  1.21898454e+00   1.80348527e+00   3.20721120e-01
C     9.815502559499999e+00   3.422013317095973e+00  -1.496472000000004e-01 -5.75682340e-01   8.65422830e-01  -7.34702420e-01
C     9.906743844299999e+00   2.255603783691658e+00   3.515734500000000e+00  6.29995000e-01   6.87507220e-01  -1.13016229e+00
C     1.114941995590000e+01   2.975526903359410e+00   3.222664500000000e+00 -5.50325120e-01  -1.46798975e+00   1.56811738e+00
C     1.228329091820000e+01   4.871699314377897e+00  -4.702418999999978e-01  4.04061380e-01   7.31467700e-02   5.63886930e-01
C     3.675926813000000e+00   5.638856824416815e+00  -2.936847000000000e-01 -1.22349794e+00  -1.66080167e+00  -1.39251660e-01
C     3.750801681000000e+00   4.364511807622367e+00   3.178269000000000e+00  8.96261280e-01   7.87289870e-01   1.51674139e+00
C     5.006596128200000e+00   5.036139991817334e+00   3.481916100000000e+00 -2.29133588e+00   1.59108924e+00  -7.71839600e-02
C     4.916198464999999e+00   4.906687226698857e+00  -1.699944000000002e-01 -1.69439427e+00  -9.52628280e-01   1.31032060e-01
C     6.119913871200000e+00   5.590168069780694e+00  -8.057999999998344e-03  9.20546790e-01   4.42445720e-01   1.32733670e-01
C     6.188079600800000e+00   4.363358358086728e+00   3.659801700000000e+00  5.92122410e-01  -1.74985852e+00  -1.42440755e+00
C     7.396444982999999e+00   5.060554730581750e+00   3.636178200000000e+00  1.79082665e+00   8.06839900e-01   9.44455150e-01
C     7.373763926400000e+00   4.890345268442234e+00  -3.067019999999943e-02 -8.26245860e-01  -5.89427610e-01   4.40070850e-01
C     8.592671867100000e+00   5.615102748893237e+00  -1.430612999999994e-01  3.57161920e-01  -1.16725505e+00  -1.07616310e-01
C     8.660722136099999e+00   4.358668135800378e+00   3.510644100000000e+00 -2.27056490e-01   6.91285730e-01  -8.37333090e-01
C     9.881562291700000e+00   5.064555000821317e+00   3.279447900000000e+00  4.29657520e-01   1.30219350e+00   1.08338991e+00
C     9.816652679199999e+00   4.871045396955337e+00  -3.444093000000024e-01 -7.81190640e-01  -8.11666600e-01   9.92797840e-01
C     1.102324188100000e+01   5.576826890586951e+00  -4.635213000000000e-01  1.81315664e+00   1.12818586e+00   3.84145150e-01
C     1.114265969340000e+01   4.393068820370630e+00   3.140652000000000e+00  3.09725600e-01   5.42603600e-02   1.22915730e-01
C     1.241117866780000e+01   5.115379276588381e+00   3.174501000000000e+00 -1.63193641e+00  -5.38241940e-01  -1.79074240e-01
C     1.347349304650000e+01   7.050884248460052e+00  -1.363415999999980e-01  2.13311425e+00  -8.20390750e-01   9.54375000e-03
C     4.849134294600000e+00   7.750580587053304e+00   4.505310000000000e-02  7.84475600e-01  -7.01096910e-01   1.38099280e-01
C     4.984077564400000e+00   6.456567667420270e+00   3.645555900000000e+00 -6.39095690e-01   7.64642320e-01  -2.91408760e-01
C     6.159077347500000e+00   7.225705630159816e+00   3.832355100000000e+00  1.42072648e+00  -1.87298640e-01  -2.22689980e-01
C     6.085740886000000e+00   7.008919879186826e+00   9.464370000000001e-02  6.66964200e-02   2.28465420e-01  -6.61630430e-01
C     7.321818685599999e+00   7.690569787641540e+00   4.828110000000000e-02  1.50487046e+00   1.89675548e+00   4.72916500e-02
C     7.411964277900000e+00   6.481118603401843e+00   3.811040400000000e+00  3.86276220e-01   6.33607880e-01  -2.81201350e-01
C     8.684163940999998e+00   7.183853121923878e+00   3.801064500000000e+00 -9.46871170e-01   7.49292790e-01  -1.55281291e+00
C     8.590584012099999e+00   7.024499047637272e+00  -6.708509999999990e-02 -3.04786940e-01   2.04089000e-02  -2.27960620e-01
C     9.836287883199999e+00   7.751158165722171e+00  -1.454693999999996e-01 -4.45285260e-01  -2.12126366e+00  -4.52026350e-01
C     9.907601910800000e+00   6.506196737890449e+00   3.474546000000000e+00 -2.75273510e-01  -6.90088430e-01  -1.42579170e-01
C     1.115323079660000e+01   7.217613124537817e+00   3.383461800000000e+00 -9.13030760e-01   7.55557590e-01   1.09514599e+00
C     1.107275722340000e+01   7.033334959511660e+00  -3.421707000000005e-01 -8.29707110e-01  -1.83038290e-01   8.15868200e-01
C     1.229569775620000e+01   7.758648585715227e+00  -1.605378000000002e-01 -1.50347684e+00   4.56362590e-01  -1.76492760e-01
C     1.238313357400000e+01   6.530084448928040e+00   3.356904600000000e+00 -8.24227900e-02  -1.09572979e+00  -4.50652360e-01
C     1.360858525160000e+01   7.188547186764945e+00   3.550790700000000e+00  6.38738650e-01   1.97776710e-01   1.03312500e-02
