64
Lattice="9.86 0 0 4.93 8.53901048131456 0 0 0 30 " PBC="1 1 1" Properties=species:S:1:pos:R:3:force:R:3 Energy="-516.30268128"
C     9.877389441100000e+00   4.049718795354232e-01  -1.103843999999974e-01 -6.82969090e-01   3.15692580e-01  -9.19627700e-02
C     1.217361301100000e+00   1.131231286539754e+00  -1.665923999999990e-01  1.65608569e+00  -1.49800410e-01   9.45899590e-01
C     1.247822933000000e+00   2.755058789507024e-01   3.510473700000000e+00 -2.20039628e+00   4.08741980e-01  -2.54684780e-01
C     2.426998475400000e+00   1.022036384493925e+00   3.476643900000000e+00  1.59380009e+00   7.22991000e-03   1.04640640e-01
C     2.455061366500000e+00   4.143442974382712e-01  -5.113710000000182e-02  1.08339848e+00   3.19606400e-02  -3.17472290e-01
C     3.712535612600000e+00   1.109211654824874e+00  -2.971259999999987e-02  2.91022560e-01   7.10357740e-01  -6.08666100e-01
C     3.674790743800000e+00   3.230135176572304e-01   3.462326400000000e+00  3.06779580e-01  -3.76417000e-01  -2.47024030e-01
C     4.920998460900000e+00   1.018212530210876e+00   3.464227800000000e+00 -7.19753150e-01   6.98400450e-01   3.73016480e-01
C     4.988171189899999e+00   4.337543221603592e-01  -7.180680000000095e-02 -2.14157010e+00  -9.04070530e-01   5.83680220e-01
C     6.199522673099999e+00   1.141049440789658e+00  -7.753830000000050e-02  2.96503970e-01  -8.10209560e-01   7.69260000e-04
C     6.136657235799999e+00   2.743625054474304e-01   3.509766300000000e+00  1.00540130e-01   1.67478217e+00  -4.82499390e-01
C     7.360185523200000e+00   1.023514487208013e+00   3.528383100000000e+00  1.36951440e-01  -9.43415600e-02   6.47630600e-02
C     7.403387951299999e+00   3.815141930656056e-01  -7.749270000000053e-02  1.11035698e+00   1.43983824e+00  -8.42121300e-02
C     8.641376766799999e+00   1.094324060833203e+00  -9.890010000000160e-02 -9.21403900e-02   1.16971203e+00   1.66780000e-01
C     8.598840332400000e+00   3.291831235092400e-01   3.554705700000000e+00  8.52402100e-02  -2.04487704e+00  -8.73461010e-01
C     9.847176429099997e+00   9.830130212102199e-01   3.503740500000000e+00 -1.24864680e-01   1.38767486e+00   4.67193300e-01
C     1.112030692550000e+01   2.552569391440068e+00  -1.498107000000033e-01 -5.04439780e-01   1.67918410e-01  -7.51504050e-01
C     2.482714328100000e+00   3.278862442145690e+00  -2.189735999999982e-01  1.22749238e+00  -1.17552453e+00   9.90866600e-01
C     2.444882149000000e+00   2.445427267513630e+00   3.481296600000000e+00 -5.51510250e-01  -4.36734780e-01  -2.10896990e-01
C     3.681467985100000e+00   3.163427999752020e+00   3.482947200000000e+00 -6.48644500e-01  -3.26388280e-01   2.81656150e-01
C     3.743789742000000e+00   2.539300366884881e+00  -1.069772999999969e-01 -1.38592684e+00  -1.76378210e-01  -3.48086550e-01
C     4.977162253400000e+00   3.220629891666387e+00  -1.066785000000010e-01 -3.27930450e-01   1.71205157e+00   4.04497500e-02
C     4.886482495599999e+00   2.471512749068563e+00   3.503878200000000e+00  2.15980365e+00  -1.54494786e+00  -1.05846210e-01
C     6.155048798000000e+00   3.183594666192741e+00   3.539129100000000e+00 -1.94445494e+00  -8.69880030e-01  -4.70766710e-01
C     6.222889246200000e+00   2.554020254710725e+00  -8.328930000000057e-02 -1.21489849e+00  -7.40114740e-01   2.28539750e-01
C     7.421964092700000e+00   3.259088826357364e+00  -4.588379999999859e-02  8.94457260e-01  -7.61207060e-01  -1.82783610e-01
C     7.364363254499999e+00   2.458785780898647e+00   3.511833900000000e+00 -6.25171230e-01  -1.04574839e+00   6.56131710e-01
C     8.576167459599999e+00   3.140508185552338e+00   3.567006300000000e+00  1.31515801e+00   9.05432070e-01  -8.25758770e-01
C     8.657198467900001e+00   2.546196044798006e+00  -7.070219999999949e-02 -4.63603980e-01  -1.18110671e+00  -3.87882120e-01
C     9.873238331800000e+00   3.248833389380779e+00  -1.556129999999989e-01  4.88216000e-01   6.00110150e-01   4.87504520e-01
C     9.804878951799999e+00   2.434324846087534e+00   3.513764700000000e+00  1.16668539e+00  -1.30245362e+00  -3.30401900e-02
C     1.105628984020000e+01   3.114561377527600e+00   3.461271300000000e+00 -2.40467300e-01   1.55898309e+00   1.25848110e-01
C     1.236418595710000e+01   4.692410920125728e+00  -1.799813999999991e-01 -2.54138500e-02  -7.63585600e-02  -2.45201720e-01
C     3.739087015000000e+00   5.401283279380789e+00  -1.667606999999975e-01 -3.18625200e-02  -3.96225500e-01   1.20802410e-01
C     3.696480623899999e+00   4.569550271097812e+00   3.524940000000000e+00 -1.39403790e+00   6.78217720e-01  -6.26806090e-01
C     4.882401096500000e+00   5.318025450887749e+00   3.475946100000000e+00  9.61821880e-01  -1.78853307e+00   3.26413350e-01
C     4.949520482900001e+00   4.672316920664193e+00  -1.105248000000003e-01  7.93248600e-01  -3.07299620e-01   1.33646170e-01
C     6.184614550299999e+00   5.387704971866016e+00  -2.262210000000309e-02 -1.81877000e-02   1.70733780e-01  -5.07311670e-01
C     6.110798794199999e+00   4.579079379842968e+00   3.499386000000000e+00  1.32605561e+00   1.36341233e+00   2.95104760e-01
C     7.378011318600000e+00   5.291572877272282e+00   3.521139000000000e+00 -5.66468790e-01  -8.80882380e-01  -4.21382570e-01
C     7.414909854299999e+00   4.645229642399747e+00  -3.719219999999979e-02 -6.42602470e-01   1.61785074e+00   2.11668050e-01
C     8.632019084500000e+00   5.353328794255842e+00  -4.177110000000184e-02  4.99556140e-01   1.40627075e+00   2.99474300e-02
C     8.606652114599999e+00   4.570811909896232e+00   3.500309400000000e+00 -7.63811500e-02   3.33004350e-01   4.38057760e-01
C     9.848557371400000e+00   5.303053576862641e+00   3.480501300000000e+00 -5.21560530e-01  -1.97235792e+00  -2.79135780e-01
C     9.859534755900000e+00   4.679867284510818e+00  -1.210137000000024e-01  1.89537220e+00  -4.12995640e-01   5.05150000e-04
C     1.114824587640000e+01   5.389990438020989e+00  -1.345902000000017e-01 -2.37692555e+00   7.56236480e-01   1.87962900e-01
C     1.106599291830000e+01   4.559527351376597e+00   3.433096500000000e+00  1.64742650e-01  -3.48043530e-01   5.81490770e-01
C     1.230537593780000e+01   5.257071176208052e+00   3.484029300000000e+00 -2.88698570e-01   6.60624320e-01  -1.94147020e-01
C     1.361657821130000e+01   6.818072738788511e+00  -1.569342000000020e-01 -1.15432342e+00  -1.20836370e-01   5.84066590e-01
C     4.956282816000000e+00   7.532334409117919e+00  -7.382279999999852e-02  9.07744660e-01  -1.42760720e-01  -4.27169380e-01
C     4.877039622900000e+00   6.712125307818330e+00   3.475996500000000e+00  1.25764678e+00   2.50627380e-01   1.59388000e-03
C     6.127928128500000e+00   7.397443233614835e+00   3.510259200000000e+00  6.96203460e-01   3.07888360e-01  -2.78410570e-01
C     6.193982043300000e+00   6.835893824440481e+00  -4.436909999999727e-02 -1.58454120e-01  -1.40782722e+00   1.32433230e-01
C     7.427495207600000e+00   7.528402024011668e+00  -2.615310000000193e-02 -4.50355790e-01  -2.14817400e-02   1.24617390e-01
C     7.366594276699999e+00   6.693816132327324e+00   3.482386800000000e+00  6.34648750e-01   1.10916980e+00   2.10770000e-02
C     8.617410656399999e+00   7.440266627342348e+00   3.431773500000000e+00 -7.84447820e-01  -1.06677436e+00   6.04498970e-01
C     8.643909899400001e+00   6.787954026413560e+00  -1.244400000000923e-03  2.94820280e-01   8.51971280e-01  -2.46930760e-01
C     9.877129137099999e+00   7.532884748343355e+00  -3.257159999999715e-02  3.23120220e-01  -1.88390630e-01  -5.31319800e-02
C     9.846811954200000e+00   6.692431531777992e+00   3.469447200000000e+00 -8.69414660e-01   1.57389292e+00  -3.35691730e-01
C     1.105884530570000e+01   7.412071754028542e+00   3.451981200000000e+00  6.42618140e-01  -5.38242930e-01   3.93008480e-01
C     1.110868075300000e+01   6.832937533622200e+00  -6.294180000000082e-02  1.19689753e+00  -1.10503078e+00  -3.95869370e-01
C     1.237712627040000e+01   7.527994371651354e+00  -1.021128000000004e-01 -1.31336498e+00  -8.71026550e-01  -3.56703900e-02
C     1.228440490100000e+01   6.693824756727909e+00   3.469878000000000e+00  9.00774350e-01  -2.49931240e-01  -1.78875010e-01
C     1.353627196230000e+01   7.397477389656754e+00   3.453634200000000e+00 -1.84981190e+00   1.92854087e+00   7.85866950e-01
