64
Lattice="9.86 0 0 4.93 8.53901048131456 0 0 0 30 " PBC="1 1 1" Properties=species:S:1:pos:R:3:force:R:3 Energy="-516.11261936"
C     4.936186558400000e+00   8.498520370886146e+00  -2.599443000000008e-01  6.60543010e-01   5.80481910e-01  -3.66623100e-02
C     1.248537930900000e+00   6.917781141751480e-01  -2.602599000000012e-01 -2.48215200e-02   3.93350700e-02  -7.26017400e-02
C     1.216067274700000e+00   7.391694515589383e-01   3.535030500000000e+00  5.12885890e-01  -5.01741210e-01  -3.62348000e-03
C     2.467932955600000e+00   1.435544627416099e+00   3.591613500000000e+00  5.65469300e-02   3.09746900e-01  -1.22726090e-01
C     7.428052199000000e+00   8.514751151226321e+00  -2.853785999999978e-01 -1.52028070e+00   6.76833660e-01   5.03022500e-02
C     3.700915997000000e+00   7.029236576041681e-01  -2.186385000000008e-01  8.68397650e-01  -8.73855530e-01   9.51638500e-01
C     3.717211717600000e+00   7.227850544202288e-01   3.472411200000000e+00 -1.22309077e+00   7.48866340e-01   1.94790480e-01
C     4.918553476700000e+00   1.478967118118891e+00   3.464186100000000e+00 -6.47868000e-02  -4.77951210e-01   1.05027470e-01
C     9.864118916399999e+00   8.508280801425204e+00  -9.081390000000056e-02  2.50518240e-01   1.67396500e-01  -2.20732820e-01
C     6.179102958200001e+00   6.645167254870145e-01  -8.642880000000019e-02  4.85214000e-03   4.60514930e-01  -7.34456930e-01
C     6.133536052799999e+00   7.678040839124657e-01   3.403046700000000e+00  1.27367631e+00  -1.24489575e+00   1.10736460e-01
C     7.400554384499999e+00   1.438393497482542e+00   3.414876300000000e+00 -1.33670539e+00   1.11994905e+00   4.52692070e-01
C     1.235018771510000e+01   8.479525939804120e+00  -1.315629000000023e-01 -5.05832170e-01   1.20318976e+00   5.55962930e-01
C     8.645047496900000e+00   6.783508617557672e-01  -2.683925999999985e-01 -1.98873080e-01  -4.61868780e-01   6.40160800e-01
C     8.618711091800000e+00   7.502939890221777e-01   3.460901100000000e+00 -4.13030190e-01  -1.50289333e+00   2.99611070e-01
C     9.827678821399999e+00   1.434983614427563e+00   3.567726900000000e+00  1.50989409e+00   8.14960700e-01  -3.44155160e-01
C     1.243801827800000e+00   2.125084923114754e+00  -1.279299000000016e-01 -1.11826150e-01  -2.04078990e-01   5.84655330e-01
C     2.473347525300000e+00   2.824835911375077e+00   1.026753000000000e-01 -4.67063830e-01  -3.46120610e-01  -8.91676830e-01
C     2.472046991300000e+00   2.869485030933321e+00   3.701955000000000e+00 -8.94355670e-01  -5.68475350e-01  -2.41539080e-01
C     3.683885459900000e+00   3.600214439143723e+00   3.664128900000000e+00  1.72676450e-01  -1.58338910e-01  -3.49719570e-01
C     3.703991232400000e+00   2.105675923073923e+00  -3.884219999999772e-02 -7.53703690e-01   5.85259750e-01  -1.53825260e-01
C     4.911158476699999e+00   2.821899516451215e+00  -9.231090000000108e-02  1.91942683e+00  -2.65013580e-01   1.13921650e-01
C     4.909597786600000e+00   2.890038343768576e+00   3.549645300000000e+00  7.32567110e-01   4.25074330e-01   7.28193300e-02
C     6.171743404899999e+00   3.594567079172670e+00   3.508317000000000e+00 -8.02595210e-01  -4.88978600e-01  -2.93001510e-01
C     6.164787076300000e+00   2.096760598402069e+00  -1.955163000000013e-01 -1.44185040e-01   1.73913820e-01   7.46190500e-02
C     7.399132819000000e+00   2.820284874959552e+00  -2.961318000000013e-01  7.55013500e-02  -1.97834680e-01   7.74463760e-01
C     7.394232497600000e+00   2.874399829195294e+00   3.485414400000000e+00  7.12626100e-02  -6.66351200e-01  -4.41590090e-01
C     8.624903270400001e+00   3.568243786175869e+00   3.487261200000000e+00 -5.60074600e-02   9.92518230e-01   2.48393500e-02
C     8.650229715700000e+00   2.096477444814553e+00  -2.483784000000000e-01 -7.61743460e-01   1.02726244e+00  -3.64594840e-01
C     9.859137940200000e+00   2.851780844334823e+00  -1.338764999999995e-01  6.05086650e-01  -1.12821517e+00   1.21813890e-01
C     9.859809800599999e+00   2.866075489438762e+00   3.585387900000000e+00 -8.85105900e-01  -5.54481150e-01   9.22935400e-02
C     1.106900534550000e+01   3.562660554173521e+00   3.696993900000000e+00  1.37797933e+00   2.99484270e-01  -2.64206860e-01
C     2.458206903700000e+00   4.248444026821394e+00   2.310387000000000e-01  1.55139861e+00  -5.80542250e-01  -3.52534300e-01
C     3.707133860900000e+00   4.942593168036524e+00   1.310409000000000e-01  3.33884400e-01   3.71939190e-01   3.51049450e-01
C     3.666039845899999e+00   5.018199786969168e+00   3.597406800000000e+00  6.84795150e-01   2.23795680e-01   4.36990600e-02
C     4.917500428699999e+00   5.726933216523719e+00   3.502275900000000e+00 -4.46065000e-03  -6.17192240e-01  -9.80448000e-02
C     4.955429827400000e+00   4.243768833193490e+00  -4.567199999999971e-02 -1.20035233e+00   1.57635880e-01   9.38039200e-02
C     6.165449076700000e+00   4.974672522607787e+00  -1.859591999999992e-01  5.36859010e-01  -7.40494620e-01  -5.16823470e-01
C     6.167338548500000e+00   5.000886260100130e+00   3.437853900000000e+00 -4.85886330e-01   1.16572179e+00   2.26170060e-01
C     7.399133114800000e+00   5.741014813316182e+00   3.363526800000000e+00 -2.89921070e-01  -1.83438051e+00   2.68827100e-01
C     7.402561732599999e+00   4.253090187813667e+00  -2.538221999999983e-01  4.65642280e-01  -1.74735330e-01   1.77722590e-01
C     8.658121610399999e+00   4.970363140188846e+00  -1.463862000000020e-01 -1.54089491e+00  -1.38321010e-01   8.30135900e-02
C     8.615269113699998e+00   5.005358652229136e+00   3.407939100000000e+00  7.15776160e-01  -4.67513430e-01   3.21101230e-01
C     9.869198246100000e+00   5.691560024049901e+00   3.460515300000000e+00 -8.49990800e-01   3.17829900e-01   5.22112800e-02
C     9.870769486399999e+00   4.260137091602392e+00   9.831299999999999e-03  4.79830670e-01   2.21786000e-01  -5.56511000e-02
C     1.112341829780000e+01   4.970683182301637e+00   2.131677000000000e-01 -2.07371879e+00  -1.01947883e+00  -5.85012550e-01
C     1.108580545440000e+01   4.987935399075429e+00   3.639411300000000e+00 -8.39734350e-01  -1.78211690e-01  -6.30521860e-01
C     1.228127962610000e+01   5.712059284948817e+00   3.565693500000000e+00  1.45845000e+00   3.37379460e-01   3.30548490e-01
C     3.704995621300000e+00   6.371158691407110e+00   1.402878000000000e-01  7.34253020e-01   2.23457030e-01  -1.47181391e+00
C     4.939966685200000e+00   7.081536819770213e+00  -1.823510999999982e-01 -1.05975449e+00  -1.81467900e-01   4.79826360e-01
C     4.922253244500000e+00   7.147432278254269e+00   3.473513400000000e+00  2.20210150e-01  -6.29650400e-02  -1.51498000e-02
C     6.170155550499999e+00   7.849589986618380e+00   3.420548100000000e+00 -4.56155130e-01   2.22720490e-01   4.80005540e-01
C     6.160271294899999e+00   6.387247553393106e+00  -3.188984999999995e-01 -2.67601870e-01  -2.04792050e-01   1.04441083e+00
C     7.382201029799999e+00   7.100538338230938e+00  -3.076620000000005e-01  6.23677520e-01  -1.11129510e-01   1.22157370e-01
C     7.406552764799999e+00   7.129119601768966e+00   3.392517000000000e+00 -5.80608860e-01   1.55858753e+00  -1.90368690e-01
C     8.630703316800000e+00   7.850261750572842e+00   3.401702400000000e+00  4.49160530e-01  -6.05407750e-01  -2.14604020e-01
C     8.589643910400000e+00   6.392564880609108e+00  -1.365359999999995e-01  2.02746320e+00  -1.87952960e-01  -1.60038530e-01
C     9.865192670399999e+00   7.087217994222766e+00  -1.819680000000190e-02 -1.39065954e+00  -8.56815900e-02  -1.26705740e-01
C     9.857272428199998e+00   7.113380326872019e+00   3.377978100000000e+00  2.96029650e-01   7.49097360e-01   4.80990410e-01
C     1.107773686850000e+01   7.857725785023515e+00   3.424622400000000e+00 -4.77358800e-02   2.02917620e-01  -2.30682810e-01
C     1.107303803620000e+01   6.361493983175531e+00   1.439655000000000e-01  1.34292346e+00   1.67172120e+00   6.52485900e-02
C     1.233533007550000e+01   7.092971323313876e+00   1.128036000000000e-01 -3.55764230e-01  -8.65859770e-01  -2.50291740e-01
C     1.231460129890000e+01   7.136507468246156e+00   3.478872000000000e+00 -5.39303370e-01   4.56072110e-01   2.04302990e-01
C     1.354422311560000e+01   7.852162534305689e+00   3.511807200000000e+00  1.87531080e-01   1.22710380e-01  -6.32545770e-01
