64
Lattice="9.86 0 0 4.93 8.53901048131456 0 0 0 30 " PBC="1 1 1" Properties=species:S:1:pos:R:3:force:R:3 Energy="-515.69321415"
C     4.962124964600000e+00   8.391483362178716e+00   1.203855000000000e-01 -1.26373957e+00  -1.67898181e+00  -4.60325000e-02
C     1.243495083200000e+00   5.454499588153616e-01   1.549983000000000e-01  5.65024930e-01   5.36492270e-01  -5.43552180e-01
C     1.223876937000000e+00   8.860256593268080e-01   3.311461500000000e+00 -2.53497080e-01   8.35156850e-01   5.99096860e-01
C     2.461833066600000e+00   1.581093256509166e+00   3.295040700000000e+00  2.45524610e-01   1.39433200e-02   1.68827540e-01
C     7.410960875000000e+00   8.364506920270301e+00   1.032480000000000e-01  3.69604400e-01   1.00773463e+00   4.79284890e-01
C     3.734032384599999e+00   5.517725837351728e-01   9.508890000000000e-02 -1.23148690e+00  -9.36017000e-01  -7.01837050e-01
C     3.697992507000000e+00   8.601813194278304e-01   3.410062800000000e+00  7.61942000e-02   1.66249264e+00   1.29093810e-01
C     4.904916110699999e+00   1.645357763991542e+00   3.414531300000000e+00  7.67426280e-01  -2.00571766e+00  -1.28047900e-01
C     9.872097973500001e+00   8.350199039700117e+00   3.285840000000000e-02  4.56329280e-01   4.61334850e-01  -1.16185910e-01
C     6.188884965600000e+00   5.155736689479377e-01   3.862410000000000e-02 -6.84602620e-01   6.47162840e-01   4.39681010e-01
C     6.151668839300000e+00   9.011022216204008e-01   3.416200500000000e+00 -1.09165247e+00  -4.78800820e-01   6.24613980e-01
C     7.374679526000000e+00   1.581231076138314e+00   3.449232900000000e+00  9.47866450e-01   3.86096400e-01  -5.86463720e-01
C     1.234202595220000e+01   8.357994900098042e+00   1.931310000000000e-02  1.58039460e-01   6.78485300e-02  -3.96019530e-01
C     8.641427249999998e+00   5.506842014593920e-01   9.168119999999999e-02  1.78174010e-01  -1.46163964e+00  -1.27840450e-01
C     8.621236434999998e+00   8.801168348548576e-01   3.411197400000000e+00 -2.95127510e-01   2.04163430e-01   3.43141430e-01
C     9.835427351700000e+00   1.598235234657662e+00   3.306382500000000e+00  3.77525370e-01   4.93806220e-01   5.17113810e-01
C     1.230459423700000e+00   1.983037202928382e+00   6.309960000000001e-02 -2.21045480e-01  -5.07453640e-01  -4.23132950e-01
C     2.457130043800000e+00   2.656081582011458e+00  -1.203834000000015e-01  2.76656120e-01   9.26043040e-01   2.28316220e-01
C     2.456568023800000e+00   3.004694540747099e+00   3.242288700000000e+00  1.44472467e+00   4.76423320e-01   2.88936370e-01
C     3.706535556100000e+00   3.772724993827390e+00   3.269273400000000e+00 -8.73177960e-01  -1.62632745e+00   1.74226010e-01
C     3.711123808500000e+00   1.965565021244625e+00  -5.723010000000173e-02 -1.40861537e+00  -8.19473900e-01   4.24793600e-01
C     4.898076228700000e+00   2.653962285000427e+00  -3.693990000000014e-02  2.94710686e+00   1.06424907e+00   6.50785420e-01
C     4.938975557999999e+00   3.055410285690963e+00   3.374712000000000e+00 -1.26811827e+00  -4.17916920e-01  -7.23945300e-02
C     6.164929208199999e+00   3.718882007075435e+00   3.440081100000000e+00  6.82096900e-01   8.58606050e-01  -2.72077130e-01
C     6.175743212500000e+00   1.946943830310679e+00   1.461096000000000e-01 -2.27903529e+00  -5.88332570e-01  -1.34243797e+00
C     7.367887612900000e+00   2.642263157521988e+00   1.277661000000000e-01  1.18943285e+00   9.77179050e-01   9.90126700e-02
C     7.387779374100000e+00   2.990952284231111e+00   3.407018700000000e+00  5.39740630e-01   1.60117989e+00   2.36493220e-01
C     8.629345841299999e+00   3.764884986745282e+00   3.362377200000000e+00 -1.26420524e+00  -1.70819567e+00   6.60087210e-01
C     8.593967027400000e+00   1.927118553508949e+00   8.227950000000001e-02  1.71816065e+00   2.76410465e+00   5.56939420e-01
C     9.862595694299999e+00   2.718588248796420e+00   5.926800000000000e-02 -6.79765610e-01  -2.87221031e+00  -4.95474140e-01
C     9.835035564600000e+00   3.045169108861880e+00   3.338443500000000e+00  8.41160680e-01  -1.24701741e+00  -4.11141470e-01
C     1.109919533440000e+01   3.709569191465738e+00   3.303419700000000e+00 -6.58594850e-01  -8.32691900e-02  -4.35822590e-01
C     2.451230066300000e+00   4.084583318973758e+00  -2.351609999999980e-01  1.84679731e+00   9.63580200e-02   2.95926530e-01
C     3.736493933600000e+00   4.810479903422794e+00  -1.373196000000014e-01 -1.97135406e+00  -9.16209480e-01  -3.76018040e-01
C     3.690735399099999e+00   5.178127768150137e+00   3.274757700000000e+00 -5.14287200e-02  -4.85805170e-01   3.50049170e-01
C     4.925033961700000e+00   5.858764096060876e+00   3.369178200000000e+00  3.37565330e-01   1.39187985e+00   3.72757270e-01
C     4.940182323400000e+00   4.086647453977088e+00  -6.179999999999808e-02  1.26035401e+00   5.94556690e-01  -3.85879400e-02
C     6.218628395100000e+00   4.839802950801219e+00   1.138470000000000e-02 -1.96365205e+00  -1.95458426e+00   1.13684522e+00
C     6.157346572400000e+00   5.157206082402774e+00   3.455467800000000e+00 -6.62510200e-02  -4.05129600e-01  -6.86604040e-01
C     7.372764960500000e+00   5.875893863424385e+00   3.429670200000000e+00  5.10812420e-01   7.16499010e-01   9.64216920e-01
C     7.412272797300000e+00   4.078280675338469e+00   1.511277000000000e-01 -2.23762250e-01   6.84909900e-02  -7.59213060e-01
C     8.642391163599999e+00   4.774301311480501e+00   9.710430000000000e-02 -3.10487220e-01   1.42943253e+00  -5.66793240e-01
C     8.617482387899999e+00   5.166415661375769e+00   3.460430700000000e+00 -6.58040930e-01   1.19441720e-01  -7.59349420e-01
C     9.841685345799998e+00   5.843019783147748e+00   3.406769400000000e+00  1.40439898e+00   7.12750760e-01   3.37471870e-01
C     9.876830625600000e+00   4.096787358141879e+00  -9.785160000000204e-02 -5.32187350e-01   5.35901130e-01   6.82659320e-01
C     1.110105463460000e+01   4.801626998917548e+00  -2.565831000000003e-01 -4.85399420e-01  -2.24708690e-01   6.52054680e-01
C     1.110060521580000e+01   5.113288414482248e+00   3.296490300000000e+00 -1.00839005e+00   1.50420971e+00   4.57453700e-01
C     1.230898602890000e+01   5.847485258678264e+00   3.304612800000000e+00  2.68281230e-01   1.66822789e+00  -2.11098800e-01
C     3.698274059300000e+00   6.217453257943127e+00  -6.800129999999882e-02  1.89267810e-01   1.02923441e+00  -3.65299300e-01
C     4.930877145599999e+00   6.924511931372235e+00   7.164450000000000e-02 -1.78898040e-01   1.62852927e+00   1.26503120e-01
C     4.932183595600000e+00   7.302262214008362e+00   3.424881600000000e+00  1.50615350e-01  -5.57465720e-01   4.05842950e-01
C     6.175927988900000e+00   8.030197060258974e+00   3.466655400000000e+00 -1.16859085e+00  -8.58290250e-01  -6.49598830e-01
C     6.163111369299999e+00   6.246834114422501e+00   1.402647000000000e-01  7.96981700e-02  -5.11994370e-01  -8.43591270e-01
C     7.387474157800000e+00   6.952242538686245e+00   1.292337000000000e-01  2.46328200e-01   4.43658800e-02   2.69440870e-01
C     7.389298455000000e+00   7.320776154970678e+00   3.484698600000000e+00  5.85108560e-01  -1.41057685e+00   1.04263820e-01
C     8.650243864800000e+00   7.990514314586003e+00   3.540070200000000e+00 -1.06917497e+00   3.87090600e-01  -7.17922040e-01
C     8.589279238300000e+00   6.219350967632202e+00   9.045120000000001e-02  1.87625576e+00  -2.18748520e-01  -6.37151590e-01
C     9.852767788599998e+00   6.938013643963002e+00  -5.810430000000011e-02 -9.85143020e-01  -9.25713390e-01   5.25643190e-01
C     9.857287908400000e+00   7.280185797873789e+00   3.502746300000000e+00  9.05493170e-01  -7.96983480e-01  -5.02550420e-01
C     1.109246435610000e+01   7.997841212528368e+00   3.430229400000000e+00 -5.14497030e-01   6.75909590e-01  -8.66738000e-02
C     1.106273744210000e+01   6.204578137941383e+00  -1.838307000000015e-01  1.57026314e+00   1.92388332e+00  -1.78629710e-01
C     1.232793320210000e+01   6.962040113920892e+00  -1.578324000000002e-01 -5.05662060e-01  -1.85800068e+00   7.44201030e-01
C     1.232574610620000e+01   7.313057060276968e+00   3.356375400000000e+00 -5.72450790e-01  -1.80485845e+00   7.70480560e-01
C     1.354864177600000e+01   8.004258022733772e+00   3.490350300000000e+00  7.05447330e-01  -1.08199380e-01  -1.37728009e+00
