64
Lattice="9.86 0 0 4.93 8.53901048131456 0 0 0 30 " PBC="1 1 1" Properties=species:S:1:pos:R:3:force:R:3 Energy="-514.70029481"
C     4.972321634300000e+00   8.518113898943449e+00  -2.378897999999978e-01 -2.24488330e+00   1.02793500e-02  -2.93046700e-01
C     1.233793336200000e+00   7.140272744917312e-01  -2.874572999999998e-01  2.89149960e-01  -5.66570280e-01   8.39225480e-01
C     1.260909519400000e+00   7.271151866346368e-01   3.583406400000000e+00 -1.57664873e+00   4.99132260e-01  -4.99887140e-01
C     2.470939565400000e+00   1.419517587865978e+00   3.589662600000000e+00 -5.48085310e-01   8.11689380e-01   1.71271850e-01
C     2.453427465900000e+00   2.540586171082960e-02  -2.497872000000001e-01  1.84768741e+00  -2.84167916e+00  -5.34699490e-01
C     3.738974808200000e+00   6.532687993223392e-01  -1.988945999999991e-01 -1.20053197e+00   2.49902397e+00   9.59781550e-01
C     3.661667379600000e+00   7.526458032885792e-01   3.488921400000000e+00  2.99801018e+00  -7.03257070e-01  -3.04710330e-01
C     4.906657238799999e+00   1.496876411749118e+00   3.467017200000000e+00 -2.22533840e-01  -1.06089854e+00   4.77899780e-01
C     9.905471805700000e+00   8.524683301266132e+00  -1.065462000000004e-01 -9.68991840e-01  -3.88970520e-01  -2.66325510e-01
C     6.212996412399999e+00   7.241231173624448e-01  -1.121958000000021e-01 -1.09388357e+00  -2.14994833e+00  -3.94427370e-01
C     6.116356531099999e+00   7.087304409008824e-01   3.467533500000000e+00 -1.92703120e-01   2.52044000e+00  -6.53110290e-01
C     7.323687204899999e+00   1.427728614953441e+00   3.421851000000000e+00  3.34338775e+00  -3.01430500e-01   7.43056710e-01
C     1.234751264780000e+01   8.526179079731914e+00  -1.332173999999995e-01  5.02583950e-01  -1.07175925e+00   6.80079410e-01
C     8.643196774900000e+00   6.835808348945576e-01  -2.403189000000019e-01  3.13594810e-01   5.42720860e-01   4.59984210e-01
C     8.621723765499999e+00   7.055141372134857e-01   3.481751700000000e+00  3.75252100e-02   2.33111624e+00  -2.50088100e-01
C     9.908650916199999e+00   1.462681944281958e+00   3.557892300000000e+00 -3.19061692e+00  -1.10405484e+00  -2.45613200e-01
C     1.105854950570000e+01   2.105572686437220e+00  -9.541799999999867e-02  1.07383149e+00   6.47177000e-02  -5.64751690e-01
C     2.439643974700000e+00   2.790312521224228e+00   2.890680000000000e-02  1.54966402e+00   3.07707530e-01   2.74806260e-01
C     2.463073947600000e+00   2.824742579990531e+00   3.675755400000000e+00  3.40838210e-01   1.98724254e+00   2.01290200e-02
C     3.660740145200000e+00   3.625847096972901e+00   3.645221700000000e+00  1.76019825e+00  -1.42372638e+00  -3.70298900e-01
C     3.708960376600000e+00   2.103253918141376e+00  -3.105090000000033e-02  3.26303270e-01  -8.60649240e-01  -8.74882630e-01
C     4.964769317999999e+00   2.808979054303822e+00  -1.025676000000004e-01 -1.94486211e+00   8.02494120e-01   1.10922220e-01
C     4.953802631600000e+00   2.933963526018325e+00   3.548622900000000e+00 -2.28153344e+00  -2.00781889e+00   1.98914990e-01
C     6.187356813499999e+00   3.566951406939721e+00   3.547502700000000e+00 -5.63684810e-01   1.27290618e+00  -8.98390590e-01
C     6.173274416400000e+00   2.108670895609678e+00  -2.155490999999969e-01 -9.22580300e-02   2.37652050e-01   3.65186770e-01
C     7.381047163300000e+00   2.803621935298985e+00  -2.640518999999983e-01  8.06658080e-01   5.28946470e-01   2.94289740e-01
C     7.401122616300000e+00   2.842628989072673e+00   3.466786200000000e+00 -5.01384980e-01   1.17672529e+00   3.06885810e-01
C     8.610489182899999e+00   3.628825759998639e+00   3.523616700000000e+00  3.17403690e-01  -2.19044690e+00  -8.50152440e-01
C     8.601207126799999e+00   2.128278854594693e+00  -2.250581999999994e-01  1.41655329e+00  -1.68829744e+00  -5.03970990e-01
C     9.859429796200001e+00   2.801924806966085e+00  -1.587944999999991e-01 -1.00747351e+00   1.50778618e+00   8.27444000e-01
C     9.823996308599998e+00   2.878482330105783e+00   3.555319800000000e+00  1.60624233e+00   6.09212900e-02   8.15112850e-01
C     1.109853417210000e+01   3.538971289739485e+00   3.702155400000000e+00 -1.34291893e+00   1.05242922e+00  -8.98076210e-01
C     2.509862260500000e+00   4.192288932201770e+00   1.801377000000000e-01 -1.72240725e+00   2.23819876e+00  -7.12893590e-01
C     3.761100105899999e+00   4.946921250888416e+00   8.267220000000000e-02 -2.04358985e+00  -4.70900110e-01   1.42867970e-01
C     3.707267266700000e+00   5.040183640230138e+00   3.599660100000000e+00 -1.05010498e+00  -5.38240170e-01   1.95238900e-02
C     4.945326630500000e+00   5.725110991687288e+00   3.504669600000000e+00 -1.36159400e+00   5.43696880e-01  -1.25759100e-02
C     4.958051847900000e+00   4.254151672206436e+00  -9.101189999999804e-02  1.05761043e+00  -1.49458590e+00   4.64904530e-01
C     6.208210467000000e+00   4.926860297397439e+00  -1.544553000000022e-01 -1.39365553e+00   1.54128745e+00  -9.62772960e-01
C     6.122704990699999e+00   4.998401920391079e+00   3.448525500000000e+00  2.06987600e+00  -4.70055640e-01   7.15863610e-01
C     7.345083996500000e+00   5.699281851226965e+00   3.430047900000000e+00  1.28746048e+00   2.00159863e+00  -8.50425500e-01
C     7.418992140800000e+00   4.207373008824585e+00  -2.327501999999981e-01 -1.11025140e+00   5.35131990e-01   1.45204190e-01
C     8.609022803700000e+00   4.917698707663342e+00  -1.633934999999980e-01  1.91247010e+00   5.55572570e-01   4.96737770e-01
C     8.619230319400000e+00   5.036044184119748e+00   3.405190500000000e+00 -1.30488000e+00  -2.96678500e-01   1.12974759e+00
C     9.836960187300001e+00   5.732915134925379e+00   3.501982500000000e+00  1.42362942e+00  -4.46251090e-01  -4.07419290e-01
C     9.867909741300000e+00   4.238447236472249e+00  -1.244850000000142e-02 -4.53620620e-01  -4.37316670e-01  -5.64702740e-01
C     1.107058733320000e+01   4.956024433790830e+00   1.430403000000000e-01  2.18552942e+00   5.12170050e-01  -1.26256270e-01
C     1.106169888830000e+01   4.969198846109898e+00   3.630213600000000e+00  1.56866515e+00   1.33920564e+00  -1.62643840e-01
C     1.233635028970000e+01   5.726965152422914e+00   3.586486800000000e+00 -1.96002031e+00   4.51500510e-01   2.56161520e-01
C     3.711841370000000e+00   6.366283855714182e+00   5.204880000000000e-02 -4.15837410e-01   3.41586330e-01  -3.53147230e-01
C     4.901649246199999e+00   7.099817133405796e+00  -1.758507000000016e-01  1.53258294e+00  -5.96797930e-01   4.72592000e-03
C     4.917414498799999e+00   7.149270471040298e+00   3.485042400000000e+00 -1.96652500e-02  -3.85350870e-01  -1.76763740e-01
C     6.130847970300000e+00   7.864577828593085e+00   3.460107000000000e+00  1.30211419e+00  -3.66470430e-01   1.65187710e-01
C     6.138176218100000e+00   6.374540822678028e+00  -2.789496000000007e-01  1.31935344e+00  -3.48753880e-01   7.77062450e-01
C     7.396717365499999e+00   7.086659969887899e+00  -3.013125000000016e-01 -8.28916260e-01   5.38483380e-01   5.68666740e-01
C     7.374111097000000e+00   7.159651346080834e+00   3.386572500000000e+00  7.38176650e-01  -1.08982931e+00   4.97992120e-01
C     8.660925449299999e+00   7.861023380090680e+00   3.409025100000000e+00 -1.71064620e+00  -3.38635000e-02  -1.39961900e-01
C     8.619482341000001e+00   6.331301920700557e+00  -1.477241999999990e-01 -5.27830260e-01   1.99683950e+00  -4.82157190e-01
C     9.826944103500001e+00   7.105139584028086e+00  -5.961570000000194e-02  1.79381798e+00  -5.06060380e-01   2.21580720e-01
C     9.902277954499999e+00   7.157333602466247e+00   3.402701700000000e+00 -2.08830293e+00  -9.75579240e-01   4.57747990e-01
C     1.109812695410000e+01   7.858661319011703e+00   3.444950100000000e+00 -5.08275270e-01  -6.50592100e-02   2.86265990e-01
C     1.109598408030000e+01   6.447015674127027e+00   8.922959999999999e-02 -1.42108232e+00  -3.50057739e+00   1.51403660e-01
C     1.233285161660000e+01   7.071738988365251e+00   7.874610000000000e-02  5.26259440e-01   2.08780924e+00  -7.46579760e-01
C     1.230276998910000e+01   7.179904256527402e+00   3.527754900000000e+00  9.83124650e-01  -2.38549356e+00  -3.81257870e-01
C     1.353723636890000e+01   7.852664884292229e+00   3.475581300000000e+00  6.33853260e-01  -1.09847640e-01   4.14461040e-01
