64
Lattice="9.86 0 0 4.93 8.53901048131456 0 0 0 30 " PBC="1 1 1" Properties=species:S:1:pos:R:3:force:R:3 Energy="-515.5629638"
C     9.897846328199998e+00   3.686628969031008e-01  -2.716151999999994e-01 -6.33981480e-01   3.87166090e-01   3.87559730e-01
C     1.253267970100000e+00   1.097959886105482e+00  -1.513763999999966e-01  3.35736780e-01  -8.10556480e-01  -1.38979740e-01
C     1.225548009800000e+00   3.096263985871056e-01   3.328703700000000e+00 -2.24333074e+00   1.36209808e+00   4.92479720e-01
C     2.395072239100000e+00   1.062560051918966e+00   3.470486400000000e+00  1.69354579e+00  -8.15445220e-01  -1.37631000e-02
C     2.462717262100000e+00   3.821331005451960e-01  -2.587734000000026e-01  2.55597990e+00  -4.83064690e-01   3.16027260e-01
C     3.751521855400000e+00   1.080954361344458e+00  -1.348050000000001e-01 -1.43557809e+00   5.45510970e-01  -6.11921190e-01
C     3.633224533400000e+00   3.472873627487264e-01   3.512445900000000e+00  7.43139710e-01  -7.02284910e-01  -4.08480280e-01
C     4.901680650299999e+00   9.977923405490040e-01   3.526924500000000e+00 -3.17569430e-01   1.26591384e+00   4.23737060e-01
C     4.989637470500000e+00   3.724201469044056e-01  -2.617463999999998e-01 -1.34204473e+00   7.64265830e-01   7.61226850e-01
C     6.189998652600000e+00   1.110001513294274e+00  -2.147471999999979e-01  1.17308308e+00  -1.35910100e-02  -5.22164420e-01
C     6.149740716300000e+00   2.882695648656824e-01   3.555275700000000e+00 -1.01300305e+00   2.15707026e+00  -5.36668270e-01
C     7.352834104399999e+00   1.069539924475422e+00   3.440131800000000e+00  4.24996680e-01  -1.46519071e+00   4.20776980e-01
C     7.421831179900001e+00   3.800781022830792e-01  -2.440922999999984e-01  6.89861450e-01   3.10201700e-01   1.25928190e-01
C     8.669552998600000e+00   1.087370744599339e+00  -2.751851999999992e-01 -6.89445610e-01   6.22281000e-01   1.47797240e-01
C     8.586278988200000e+00   3.489234371566944e-01   3.446674800000000e+00  5.53260120e-01  -3.81304680e-01  -5.89146330e-01
C     9.834596597399999e+00   1.055606479514787e+00   3.352911300000000e+00 -1.26078190e-01  -5.33702350e-01   7.02551210e-01
C     1.113350093660000e+01   2.486853593736512e+00   7.992990000000000e-02 -1.88885160e-01   1.11373826e+00  -6.68475000e-01
C     2.498515126000000e+00   3.232805666709819e+00   1.502244000000000e-01  8.12979790e-01  -1.10400704e+00  -1.88126900e-02
C     2.427125817300000e+00   2.464868288843761e+00   3.636367500000000e+00 -8.89544330e-01   3.52556660e-01  -1.55044280e-01
C     3.649599528400000e+00   3.160136638162504e+00   3.644985600000000e+00  1.17498844e+00   6.43243980e-01   5.53451320e-01
C     3.748499370999999e+00   2.524785073750139e+00   5.708999999999999e-04 -2.84038830e-01  -1.38701019e+00  -2.51055100e-02
C     4.992570376800000e+00   3.206550429626544e+00  -1.077123000000029e-01 -1.66300324e+00   1.50039887e+00   4.20117410e-01
C     4.885793528100000e+00   2.440421955740569e+00   3.579821700000000e+00  4.92669010e-01  -1.93846400e-02  -2.76878800e-01
C     6.122214800799999e+00   3.175588831527112e+00   3.547425000000000e+00 -4.42213420e-01   1.43508000e-02  -4.03339270e-01
C     6.204527707700001e+00   2.546835616682958e+00  -2.380974000000009e-01  1.34281509e+00  -7.88569350e-01  -1.49555870e-01
C     7.459386736699999e+00   3.299402177954282e+00  -3.206658000000004e-01 -1.17445427e+00  -3.97928936e+00   3.85701980e-01
C     7.367345460800000e+00   2.486472753869104e+00   3.425388600000000e+00 -1.38610817e+00  -5.03001240e-01   6.26797510e-01
C     8.572435646800001e+00   3.177577396287694e+00   3.519639600000000e+00  1.73205192e+00   5.91984870e-01  -1.09009230e-01
C     8.670236000799999e+00   2.540157171196445e+00  -2.556504000000004e-01  1.94090830e-01  -9.54098780e-01   2.96506790e-01
C     9.904303494299999e+00   3.202493801917810e+00  -3.873060000000095e-02 -4.30876380e-01   5.89499140e-01  -1.72203430e-01
C     9.815931469500001e+00   2.475982835664738e+00   3.527298300000000e+00  7.39309400e-01  -2.35151730e-01  -5.36961000e-02
C     1.106317404290000e+01   3.178583547892552e+00   3.714271800000000e+00 -9.55347470e-01   9.61174440e-01  -4.39300190e-01
C     1.237724222400000e+01   4.639896944964882e+00   2.237616000000000e-01 -1.22916958e+00   9.90726550e-01  -5.47214420e-01
C     3.754481383700000e+00   5.372867416475759e+00   8.897730000000000e-02 -1.20480256e+00  -1.10728795e+00  -4.07482770e-01
C     3.689510096899999e+00   4.605001510127418e+00   3.741717900000000e+00 -1.72386370e+00  -6.10597700e-01  -4.35516710e-01
C     4.884839819600000e+00   5.311966425221456e+00   3.564410700000000e+00  9.01302850e-01   2.48341540e-01   2.42157270e-01
C     4.932326368400000e+00   4.640421069428144e+00  -8.325329999999909e-02  2.29634625e+00   1.50099770e-01  -4.49427700e-01
C     6.176680356200000e+00   5.354281320874887e+00  -3.144471000000024e-01 -7.27708750e-01  -1.39956580e-01   2.06146140e-01
C     6.118318276700000e+00   4.600234692917064e+00   3.536448000000000e+00  6.35756950e-01  -4.01472150e-01  -2.71361840e-01
C     7.385364758700000e+00   5.283307371297956e+00   3.481602900000000e+00 -1.37842360e+00   1.23868393e+00   3.65835700e-02
C     7.413395358300000e+00   4.655105861920914e+00  -3.467169000000005e-01  3.31084170e-01   1.94028364e+00   3.42364120e-01
C     8.642628345900000e+00   5.358433073160367e+00  -2.359383000000008e-01  8.66962320e-01  -2.09868830e-01  -1.95463550e-01
C     8.613221191699999e+00   4.603630998945378e+00   3.573919800000000e+00 -4.09006160e-01  -1.72425890e-01   1.71634820e-01
C     9.817504829699999e+00   5.347012317423577e+00   3.729346800000000e+00  3.78743560e-01  -9.90374020e-01  -1.42464420e-01
C     9.865265732999999e+00   4.631809818919483e+00  -4.252229999999813e-02  9.27692610e-01   4.76088650e-01   3.99868440e-01
C     1.110783515940000e+01   5.343847845529794e+00   1.284477000000000e-01  6.26215810e-01   1.00579846e+00  -6.31426390e-01
C     1.105167728290000e+01   4.633504043988820e+00   3.822667500000000e+00  3.61444930e-01  -1.07673468e+00  -2.59795430e-01
C     1.229772388760000e+01   5.330506666336052e+00   3.825665400000001e+00  2.81619090e-01  -7.85786400e-02  -4.59694190e-01
C     1.361132090860000e+01   6.760989197559397e+00  -1.053384000000008e-01 -4.55196810e-01   1.32967344e+00   2.99704770e-01
C     4.962732981500000e+00   7.481405445082369e+00  -2.500476000000020e-01  6.49391350e-01   2.65772500e-02  -5.23792900e-01
C     4.883856432500000e+00   6.735589825496532e+00   3.460975200000000e+00 -7.91194400e-02  -2.98000720e-01   1.61864830e-01
C     6.105050512800000e+00   7.441283794270726e+00   3.356756400000000e+00  1.24836072e+00  -6.90376550e-01  -6.27458900e-02
C     6.196098245800000e+00   6.767139846808141e+00  -3.896289000000017e-01  2.43236320e-01   4.12592280e-01   6.55884000e-01
C     7.454480450000000e+00   7.482722245888489e+00  -4.091208000000002e-01 -1.50148880e+00   6.18893440e-01   5.29474390e-01
C     7.347492055000000e+00   6.719173663238837e+00   3.406632600000000e+00  6.57628300e-01   1.12481530e-01   3.04059300e-01
C     8.586740288300000e+00   7.458389054674158e+00   3.487773300000000e+00 -7.76145280e-01  -2.99864240e-01   3.93757750e-01
C     8.676507601699999e+00   6.768959936891953e+00  -3.005364000000021e-01 -1.11303800e-01   6.95854430e-01  -9.66040700e-02
C     9.896092579299999e+00   7.500787461850082e+00  -2.310786000000000e-01  1.16096627e+00  -8.41886610e-01   2.99126230e-01
C     9.821698484899999e+00   6.757770246778751e+00   3.688306200000000e+00 -1.19802097e+00  -2.50885120e-01  -6.89288950e-01
C     1.104035869310000e+01   7.435698171345444e+00   3.649208100000000e+00  1.46643292e+00   2.99129270e-01   3.06374850e-01
C     1.114793395530000e+01   6.803676479459860e+00  -4.980390000000057e-02 -1.13814643e+00  -1.47421601e+00   1.84103000e-03
C     1.237875509310000e+01   7.497428385907460e+00  -1.223604000000016e-01 -1.97732340e-01  -5.76818400e-02   8.46043800e-02
C     1.228699886980000e+01   6.759655916463050e+00   3.697629900000000e+00  3.36939260e-01  -1.29346669e+00   1.97674100e-02
C     1.352535832270000e+01   7.436441577597833e+00   3.530266500000000e+00 -7.05353600e-01   1.48723305e+00  -4.28118300e-02
