64
Lattice="9.86 0 0 4.93 8.53901048131456 0 0 0 30 " PBC="1 1 1" Properties=species:S:1:pos:R:3:force:R:3 Energy="-513.65827698"
C     4.933265385500000e+00   8.500747259429225e+00  -6.186930000000146e-02 -8.02161370e-01   6.15836620e-01  -2.04340790e-01
C     1.246696970300000e+00   7.084913486074425e-01  -1.098503999999991e-01 -2.05715666e+00  -1.52007451e+00   1.64577310e-01
C     1.246654868100000e+00   7.713661321341976e-01   3.703680900000000e+00 -4.59181860e-01  -3.40968450e-01  -1.02627867e+00
C     2.466129956000000e+00   1.432661003577003e+00   3.425364300000000e+00  5.03063020e-01  -1.59757515e+00   1.34187648e+00
C     2.427847322800000e+00   4.707385697414400e-03  -6.433200000000028e-03  2.48198085e+00  -1.21258939e+00   1.87278800e-02
C     3.699711006400000e+00   6.992320725934544e-01  -5.840459999999936e-02 -2.11752991e+00   7.21721720e-01   7.42404200e-02
C     3.692136307900000e+00   7.343382502095640e-01   3.622951200000000e+00  9.62980190e-01  -1.47139019e+00  -6.68587560e-01
C     4.931200898699999e+00   1.410052521699422e+00   3.585694800000000e+00  1.00224225e+00   5.99483350e-01   7.04538490e-01
C     9.832413149699999e+00   8.489278172893117e+00  -2.251710000000173e-02 -8.76449400e-02   2.95761979e+00  -6.15081940e-01
C     6.107829553800000e+00   6.864264601370177e-01  -1.018973999999986e-01  1.72302863e+00   7.82548340e-01   4.80911100e-02
C     6.202359690900000e+00   7.090161561915432e-01   3.764278200000000e+00 -1.62673240e+00   1.30202308e+00  -1.55635355e+00
C     7.417737652999999e+00   1.458965425360643e+00   3.770207100000000e+00  3.90739760e-01  -1.90333957e+00   1.71413130e-01
C     7.375803319500000e+00   1.156310104149200e-02  -1.813649999999996e-01  7.94680000e-03  -1.25777328e+00   9.88886880e-01
C     8.635894606799999e+00   6.744856786619952e-01  -2.900009999999753e-02 -1.06986012e+00   1.97791726e+00  -8.75826490e-01
C     8.623985994600000e+00   6.913179469003807e-01   3.756602700000000e+00  2.04594613e+00   1.69173906e+00  -3.45103450e-01
C     9.894864466999998e+00   1.488485126150422e+00   3.701076600000000e+00 -1.63592957e+00  -1.96553469e+00  -4.76327630e-01
C     1.207906990800000e+00   2.073832245191907e+00  -3.264699000000029e-01 -4.67146100e-01   2.12059086e+00  -3.92943820e-01
C     2.416632460200000e+00   2.794095559037182e+00  -4.834148999999996e-01  8.27924370e-01   1.38233355e+00   9.43059450e-01
C     2.479695984900000e+00   2.792668263435450e+00   3.216450600000000e+00  5.92800690e-01   2.54363452e+00   9.88787000e-02
C     3.704724964300000e+00   3.526011975094409e+00   3.304324500000000e+00  8.86835380e-01   1.77854516e+00  -2.99527340e-01
C     3.624998286100000e+00   2.145895601725876e+00  -2.203605000000017e-01  2.87990123e+00  -1.79270880e+00  -3.82956580e-01
C     4.921905038600000e+00   2.842920083939936e+00  -2.019897000000022e-01 -2.54131660e+00   2.95176090e-01  -3.28387790e-01
C     4.952757175800000e+00   2.843111357774688e+00   3.495399000000000e+00 -2.45538890e-01  -2.28905480e-01   2.45300220e-01
C     6.185019056800000e+00   3.547532928597257e+00   3.669839400000000e+00  5.83990060e-01   6.95283620e-01   6.07784600e-02
C     6.112772618300000e+00   2.129595313840394e+00  -9.769079999999875e-02  1.46211566e+00  -2.59639130e-01   1.60416290e-01
C     7.375304797899999e+00   2.879708788181025e+00  -7.661159999999967e-02 -1.73420230e-01  -2.97840653e+00   1.95287570e-01
C     7.457766344300000e+00   2.864993852981260e+00   3.777466800000000e+00 -1.81355082e+00   2.44735570e-01  -1.26999320e-01
C     8.668763113999999e+00   3.591430444453052e+00   3.716462700000000e+00  4.83369810e-01  -1.60006591e+00  -9.40974250e-01
C     8.613964635700000e+00   2.161337206717489e+00  -4.617209999999972e-02  3.95995060e-01  -1.65496958e+00  -1.06858055e+00
C     9.848652076699999e+00   2.826232039588557e+00  -3.217095000000008e-01 -7.23131190e-01   4.18110360e-01   1.51722551e+00
C     9.882852768499999e+00   2.872200094705542e+00   3.468180000000000e+00  6.69748760e-01   5.19972860e-01   7.42866320e-01
C     1.113934712780000e+01   3.541484405913855e+00   3.202389000000000e+00 -1.97429386e+00   1.37492669e+00   7.12461080e-01
C     2.478891655400000e+00   4.240686421190420e+00  -5.488782000000008e-01 -2.85626814e+00   2.84168800e-01   5.25935170e-01
C     3.667451058400000e+00   4.992040784534003e+00  -4.473836999999996e-01  6.79997680e-01  -2.02884774e+00   5.23587750e-01
C     3.732625165400000e+00   5.014909962401539e+00   3.295224300000000e+00 -9.35488430e-01  -1.31480522e+00   5.64763500e-02
C     4.957180519700000e+00   5.670960685948157e+00   3.590282100000000e+00  3.81881560e-01   8.45600140e-01  -1.97741400e-01
C     4.902504601200000e+00   4.261003459605693e+00  -2.884041000000011e-01  1.16393407e+00   6.81325290e-01   1.02592946e+00
C     6.155021042100000e+00   4.954302542327539e+00   1.208700000000000e-02 -1.13592162e+00   5.21900400e-01  -1.60648437e+00
C     6.192921452400000e+00   4.995179212445823e+00   3.715926900000000e+00 -3.35191700e-01  -2.25571459e+00   1.34106230e-01
C     7.424215623700000e+00   5.650798374402782e+00   3.851285100000000e+00 -5.65009830e-01   3.35650879e+00  -8.22324250e-01
C     7.396692173200000e+00   4.252691928364880e+00  -5.686620000000175e-02 -2.35673270e-01   2.12587009e+00   6.19757300e-01
C     8.630316015999998e+00   4.999998117620105e+00  -7.388249999999985e-02 -1.47758330e-01  -1.15558542e+00  -1.26166390e-01
C     8.653188603099998e+00   4.966130096523597e+00   3.696744600000000e+00  1.88569910e-01   2.02898848e+00   6.42086600e-02
C     9.861570007799999e+00   5.707821971778326e+00   3.479028900000000e+00  8.44143480e-01  -5.03156310e-01  -5.42040120e-01
C     9.853692212900000e+00   4.281485044752916e+00  -2.526513000000001e-01 -1.01605319e+00  -1.36489634e+00  -5.04935740e-01
C     1.104250082740000e+01   4.966701441714813e+00  -4.019183999999996e-01  3.00235676e+00   9.76196900e-01  -3.78828710e-01
C     1.107875688550000e+01   5.005567687205685e+00   3.216311400000000e+00  1.81745056e+00  -2.12427980e-01  -7.81604100e-02
C     1.235685292720000e+01   5.781232357215516e+00   3.165631800000000e+00 -9.50712890e-01  -2.87853992e+00   1.01433546e+00
C     1.348990023440000e+01   6.377305839661557e+00  -2.781351000000001e-01  1.67845472e+00   7.45946800e-01  -2.14192650e-01
C     4.857039451000000e+00   7.088566645537978e+00  -1.457589000000006e-01  2.24592193e+00  -3.12765700e-01   9.88807050e-01
C     4.997295288799999e+00   7.086494227694481e+00   3.702543000000000e+00 -2.18004977e+00   1.63474667e+00  -6.56002250e-01
C     6.156325421500000e+00   7.896152356864772e+00   3.771636000000000e+00  1.64077501e+00  -1.93786697e+00   4.48337630e-01
C     6.138273289800000e+00   6.389375730975036e+00   2.806800000000000e-02 -7.86521850e-01  -4.68380770e-01  -4.06971040e-01
C     7.372453778899999e+00   7.096041097581436e+00   8.915280000000000e-02 -3.12408480e-01   9.38160330e-01  -4.27840970e-01
C     7.393862451800000e+00   7.162251303991784e+00   3.809919600000000e+00  1.44821479e+00  -1.94458744e+00  -2.98604800e-02
C     8.683088757300000e+00   7.809070674088685e+00   3.723247200000000e+00 -2.35355503e+00   1.83979004e+00  -5.06492730e-01
C     8.630939315899999e+00   6.410092309690670e+00  -8.072699999999600e-03 -1.79951290e+00  -4.56634130e-01   9.28925300e-02
C     9.808029813399999e+00   7.131040537566546e+00  -1.245827999999989e-01  2.59638946e+00  -2.33316207e+00  -1.87655200e-02
C     9.896512664599999e+00   7.135833996489598e+00   3.492464100000000e+00 -8.62503080e-01  -6.07447760e-01   1.04748247e+00
C     1.110503482080000e+01   7.860254612977166e+00   3.518076900000000e+00  9.41158210e-01  -2.43042590e-01   3.66716660e-01
C     1.108276034130000e+01   6.413209902416917e+00  -3.148556999999990e-01 -2.18972960e+00  -9.97149580e-01   4.48511210e-01
C     1.229998734920000e+01   7.085939704353910e+00  -2.638505999999978e-01 -7.17137680e-01   2.20669073e+00  -2.24944560e-01
C     1.232706655740000e+01   7.151301901633490e+00   3.420805500000000e+00  1.63611997e+00   4.26599560e-01  -2.08867510e-01
C     1.360945445990000e+01   7.817036204624847e+00   3.592193700000000e+00 -9.85575370e-01   1.97694430e-01   6.58416380e-01
