64
Lattice="7.10842262195238 0 0 0 7.10842262195238 0 0 0 7.10842262195238 " PBC="1 1 1" Properties=species:S:1:pos:R:3:force:R:3 Energy="-514.25867923"
C     3.555569018720420e-02   1.337606101250640e-02   7.082174271886067e+00 -9.32056970e-01  -3.42017590e-01   6.96875860e-01
C     1.804444506228068e+00   1.781361609791046e+00   1.648308145548220e-02 -8.10498020e-01  -1.47238680e-01  -6.54886850e-01
C     7.088439635583335e+00   1.778394625273684e+00   1.747635698670456e+00  9.98174730e-01  -4.25218000e-03   5.08816100e-01
C     1.753352221057234e+00   2.569453090760920e-02   1.790284457284801e+00  4.83812430e-01  -1.54809379e+00  -2.58178930e-01
C     9.055320768543582e-01   8.942296138043321e-01   8.741912547754568e-01 -6.97800260e-01   2.64233430e-01   2.71268010e-01
C     2.662613020996913e+00   2.659890210796549e+00   9.052589712572978e-01  3.08663080e-01   2.20066070e-01  -2.21339500e-01
C     8.975176857714392e-01   2.677141570568800e+00   2.639511429408401e+00 -8.10334010e-01  -5.79649210e-01   7.90099400e-01
C     2.662464881469512e+00   8.388986473094189e-01   2.669589653461538e+00  5.94380550e-01   1.93612629e+00  -1.51434490e-01
C     3.527794563354198e+00   7.086322107569063e+00   2.491175140869480e-02  9.44439300e-01   6.74816780e-01  -7.22263720e-01
C     5.307703638067074e+00   1.742675370281994e+00   7.079356990749083e+00  3.62535600e-02   1.41627665e+00   6.34182100e-01
C     3.554977882295340e+00   1.728091232845219e+00   1.775149274926524e+00 -1.47107430e-01   1.49215715e+00  -1.20898740e-01
C     5.353821946678015e+00   3.312660000949780e-02   1.782149365185795e+00 -5.69508090e-01  -1.27212699e+00  -3.10998010e-01
C     4.449040945757686e+00   8.715873684855246e-01   8.875995880266579e-01 -5.29904220e-01   1.46866040e-01  -2.60303480e-01
C     6.194190900122154e+00   2.634358249514259e+00   8.697511918385523e-01  3.42060510e-01   8.73543660e-01  -2.11686000e-01
C     4.417671903240983e+00   2.667227169203781e+00   2.636608562863072e+00  6.15515140e-01  -5.35085600e-01   1.04394080e+00
C     6.224406458900310e+00   8.963393225537218e-01   2.664852671711797e+00  2.61969240e-01   4.32473500e-02  -2.14239000e-02
C     7.098445024757889e+00   3.541396032447985e+00   7.088807851875050e+00  5.91332400e-01   2.61890270e-01   1.23764176e+00
C     1.803051752984131e+00   5.359878607087159e+00   3.546427587231100e-02 -1.17107054e+00  -5.01845230e-01  -1.16381066e+00
C     7.098216133549525e+00   5.288106072324865e+00   1.793658754418289e+00  2.15311580e-01   1.86731166e+00  -4.25955650e-01
C     1.782028450917029e+00   3.573496815989191e+00   1.807971279026754e+00 -3.43666460e-01  -3.93746140e-01  -1.67859151e+00
C     8.890980435149540e-01   4.471732310276797e+00   8.977241854485503e-01  2.43817900e-02  -1.21909149e+00  -2.33736200e-01
C     2.654603676894054e+00   6.232008561471269e+00   9.053448410025474e-01  6.42024040e-01  -3.26074300e-01   7.32397580e-01
C     8.805365171429735e-01   6.227304136297127e+00   2.681351391697043e+00 -4.57634360e-01  -5.52424690e-01  -6.62920460e-01
C     2.653068613029265e+00   4.451867183507171e+00   2.664193649850696e+00  8.34629160e-01  -1.84567740e-01   5.09499890e-01
C     3.520575320425553e+00   3.574371223055677e+00   7.097404920360130e+00  1.39937726e+00  -4.87954700e-01   1.19340984e+00
C     5.344776123472934e+00   5.371733821080118e+00   3.220257615312400e-03 -5.92407370e-01  -1.25912826e+00   3.54346360e-01
C     3.591740938064552e+00   5.323534308494493e+00   1.807074196092110e+00 -1.36864465e+00   9.03403630e-01  -5.60764790e-01
C     5.326129380340376e+00   3.548799454606715e+00   1.766710511013191e+00 -1.58120120e-01  -5.17771900e-01  -2.09467200e-02
C     4.457716349060039e+00   4.466620572486529e+00   9.219665366991197e-01 -3.50472220e-01  -5.48468820e-01  -1.64754558e+00
C     6.211829313506065e+00   6.236870722543349e+00   8.940566658819873e-01  1.23519427e+00  -2.10397450e-01  -1.44833810e-01
C     4.468063155773032e+00   6.229026364929501e+00   2.669193074563569e+00  1.55393260e-01  -1.27943110e-01  -7.42365000e-02
C     6.226851685197365e+00   4.395854306030322e+00   2.666510640203686e+00 -2.38014900e-01   8.57212470e-01   2.32474330e-01
C     1.084475171752440e-02   1.100014183599760e-02   3.567473280829456e+00 -6.12947740e-01  -3.23034610e-01  -5.47724140e-01
C     1.799670418512249e+00   1.801688428609841e+00   3.516873964767319e+00 -5.68493570e-01  -7.89164540e-01   9.81373940e-01
C     4.925710370302800e-03   1.795151238831584e+00   5.349612267718225e+00  3.13677470e-01  -3.10982370e-01  -1.01302126e+00
C     1.780619561553745e+00   7.099599432591377e+00   5.302728026569978e+00 -1.32589960e-01   3.62678440e-01  -8.15590200e-02
C     8.955131105925992e-01   9.054591444382770e-01   4.400535131241366e+00  2.65533800e-02   1.98162710e-01   1.57836539e+00
C     2.678476105831479e+00   2.676663386979153e+00   4.448010082309334e+00 -4.88361710e-01  -1.00234030e-01  -7.95042800e-02
C     9.243556064574753e-01   2.677491091709026e+00   6.234438220322785e+00 -9.01890960e-01  -8.17749700e-02  -3.27043620e-01
C     2.661011706633306e+00   8.616761659106847e-01   6.210048156050172e+00 -8.24889800e-02   5.81238380e-01   6.85529710e-01
C     3.568096973830134e+00   7.084597746409903e+00   3.551420898700519e+00 -3.63871680e-01   2.44777100e-01   2.93736030e-01
C     5.326824441904160e+00   1.764949114972181e+00   3.533903826090732e+00 -3.95403650e-01   6.30113650e-01   1.12592585e+00
C     3.524570538274898e+00   1.752802811072934e+00   5.347070295789313e+00  1.04355933e+00   7.71867550e-01  -1.00334886e+00
C     5.343515231468598e+00   7.106616796317615e+00   5.349663945950673e+00 -5.15855600e-01   2.56585900e-02  -7.78975030e-01
C     4.447176904094043e+00   8.805724857614308e-01   4.458318716792858e+00 -3.59237060e-01  -1.13393730e-01  -6.66517590e-01
C     6.196385483437628e+00   2.654773710363125e+00   4.464427339771355e+00  2.20070270e-01   1.48669760e-01  -3.36766830e-01
C     4.405744823095337e+00   2.672172285567837e+00   6.202747237345623e+00  2.92444840e-01  -3.01528410e-01   8.49835790e-01
C     6.220260329238743e+00   9.067528062708907e-01   6.206111440518990e+00  6.36191860e-01  -9.44857980e-01   3.35867550e-01
C     7.079132080257385e+00   3.508216190353064e+00   3.578197118278213e+00  1.06616023e+00   7.86132310e-01  -8.03987620e-01
C     1.757882489877186e+00   5.313422008643733e+00   3.533506038760916e+00  2.56378960e-01   6.25850620e-01   6.16876900e-01
C     5.594328601939999e-05   5.294028952220302e+00   5.327640062315579e+00  1.14048640e-01   9.96232910e-01   8.79271000e-02
C     1.794235531829676e+00   3.593304506704047e+00   5.354397089152199e+00 -5.12061350e-01  -1.22766792e+00  -9.30858930e-01
C     8.753711107619243e-01   4.419499905201942e+00   4.430218695670640e+00  1.79545920e-01   2.19747630e-01   5.34932290e-01
C     2.653444435333185e+00   6.207803031849871e+00   4.408382971982298e+00  5.56812810e-01  -1.32593390e-01   1.07565259e+00
C     9.133605116015379e-01   6.224476334694664e+00   6.203783929700523e+00 -7.20046730e-01  -4.10832070e-01   1.53803560e-01
C     2.666177326267034e+00   4.472409103194448e+00   6.229568666491180e+00  1.27279730e-01   1.18322000e-03   1.16899470e-01
C     3.549986063594672e+00   3.568806891997194e+00   3.557693441904633e+00  2.67611360e-01  -3.52092600e-01  -1.75342710e-01
C     5.373511992998510e+00   5.349523625688153e+00   3.536398171588090e+00 -1.33861352e+00  -1.06319107e+00   4.02416420e-01
C     3.558756933012811e+00   5.347378588078342e+00   5.334447585406074e+00 -2.01092170e-01  -8.42430200e-02  -4.52629820e-01
C     5.304983955572662e+00   3.572364586434277e+00   5.349182065981263e+00  1.94362950e-01  -7.34101540e-01  -8.18752950e-01
C     4.447483419277418e+00   4.463255231965543e+00   4.431523802063673e+00  9.63128300e-02  -5.70340800e-02   3.27323660e-01
C     6.213682550367325e+00   6.202567109916432e+00   4.439861484207349e+00  1.02408422e+00   7.19031380e-01   6.63506490e-01
C     4.430515969904609e+00   6.234470137140349e+00   6.233224954750003e+00  4.40155860e-01  -3.33452280e-01  -1.61558800e-01
C     6.216693180599574e+00   4.424715923552046e+00   6.231953400111737e+00 -1.54479880e-01   8.66893030e-01  -2.96235750e-01
