64
Lattice="7.10842262195238 0 0 0 7.10842262195238 0 0 0 7.10842262195238 " PBC="1 1 1" Properties=species:S:1:pos:R:3:force:R:3 Energy="-512.33241198"
C     5.881508875788000e-03   7.096489639863580e+00   1.362215460361080e-02 -1.24324558e+00   1.15476200e-02  -3.55875470e-01
C     1.750480702655659e+00   1.801355754431225e+00   7.086622651677436e+00  1.25995068e+00  -6.97272590e-01   1.08936130e+00
C     2.304728323969500e-02   1.754983035374715e+00   1.792615024724995e+00 -3.29522620e-01   3.19447530e-01  -1.32316920e-01
C     1.769699673809127e+00   3.720477315081800e-03   1.808338215802399e+00  1.23655768e+00   2.61218010e-01  -2.53215358e+00
C     9.146427999579597e-01   8.976808240705683e-01   8.870063190747928e-01 -1.36678547e+00  -3.99534420e-01   6.29003800e-02
C     2.661798182511983e+00   2.637922199363248e+00   8.931386131006144e-01 -6.10826410e-01   1.44300917e+00  -5.96767260e-01
C     9.007424216930022e-01   2.634667679150907e+00   2.667557142181802e+00 -8.33071210e-01   2.18260695e+00   6.48958500e-02
C     2.660575320568664e+00   8.694846970745286e-01   2.643200274242824e+00 -4.30688800e-02   9.93000320e-01   1.46292407e+00
C     3.569422268143407e+00   7.094998932555939e+00   7.098123226465882e+00  8.16857680e-01   5.28136180e-01   5.75504170e-01
C     5.377247113664190e+00   1.799939401224190e+00   7.099647983117872e+00 -1.74347447e+00  -1.15029741e+00   1.58722641e+00
C     3.550091054996769e+00   1.773002673463736e+00   1.754306668962421e+00  9.33821700e-02   9.84199600e-02   1.49510124e+00
C     5.312678538721907e+00   7.237795911684000e-04   1.766185411834251e+00  7.39089240e-01  -5.84279320e-01   6.12034180e-01
C     4.457465279573100e+00   8.970427009719707e-01   9.271193611721313e-01 -3.96554160e-01   1.14819880e-01  -2.37487574e+00
C     6.275211990302653e+00   2.642155478286137e+00   9.496532030459839e-01 -1.58762269e+00   1.11399581e+00  -2.52830516e+00
C     4.445693163040571e+00   2.681527538409567e+00   2.682556553668038e+00  4.35678730e-01  -1.20211068e+00  -3.38427550e-01
C     6.186938176522968e+00   8.926872282642444e-01   2.657578480676298e+00  1.96813478e+00  -1.09209900e+00  -1.89819300e-02
C     7.064603672853950e+00   3.544115572773945e+00   7.089137824853070e+00  2.26876185e+00   9.31935870e-01   1.17816721e+00
C     1.812886326763127e+00   5.347483792733119e+00   2.730999103223040e-02 -1.45786487e+00  -3.89359380e-01  -1.83764728e+00
C     4.036603085838440e-02   5.284621950061898e+00   1.752386541844307e+00 -1.91823817e+00   3.43463124e+00   1.47763369e+00
C     1.758422872164759e+00   3.593774231270777e+00   1.793039042134278e+00  1.14853772e+00  -2.57776396e+00  -7.98469610e-01
C     8.860896879779439e-01   4.475127364004336e+00   8.925349658517241e-01  8.59274430e-01  -1.82678765e+00  -8.12658010e-01
C     2.700718431293685e+00   6.240350082163160e+00   8.535918279491850e-01 -1.19875954e+00  -8.05309380e-01   1.93230734e+00
C     9.175527749259093e-01   6.235089707255907e+00   2.649924273367535e+00 -1.26562125e+00  -1.16674197e+00   3.86155430e-01
C     2.701057503052659e+00   4.408803008674914e+00   2.647446774831786e+00 -1.64476770e+00   2.04022789e+00   1.08571024e+00
C     3.536980351400667e+00   3.536738736115814e+00   4.829959917611400e-03  3.58553000e-02   2.42441330e-01   4.15408800e-01
C     5.349840234831648e+00   5.278448071763750e+00   7.105662988170463e+00 -7.84831970e-01   2.88046412e+00  -1.65835430e-01
C     3.539533554637319e+00   5.342775813347666e+00   1.772112414614807e+00  6.59770880e-01  -4.14497330e-01  -6.72070600e-02
C     5.366075729927276e+00   3.551892400372904e+00   1.798194425639432e+00 -1.35920787e+00   5.16544220e-01   3.02191900e-01
C     4.390305613501602e+00   4.461970171324300e+00   9.015025253237587e-01  2.48146456e+00  -1.42383553e+00  -8.31819000e-01
C     6.217083788422543e+00   6.207410220415890e+00   8.816130877487726e-01  4.76677800e-01  -4.87421440e-01   5.51997060e-01
C     4.428128179662324e+00   6.212382562038580e+00   2.649359722443054e+00 -6.28364600e-02   2.01049420e-01   8.51744130e-01
C     6.238615413791202e+00   4.487896223556642e+00   2.689864225374076e+00 -1.59174740e-01  -1.33572713e+00  -8.86680630e-01
C     7.108274693725278e+00   7.098525918607305e+00   3.538954076025337e+00 -7.52106480e-01  -6.83478870e-01  -4.52415200e-02
C     1.714851155957433e+00   1.773285801936690e+00   3.571281973669251e+00  2.81832458e+00  -2.25559420e-01  -1.33013011e+00
C     7.096053467051616e+00   1.752665973937499e+00   5.318178325303001e+00  1.84956750e-01   5.57031180e-01   2.86679680e-01
C     1.772035003892475e+00   4.201035117884280e-02   5.376731113266203e+00  3.67673800e-02  -2.38612795e+00  -1.44947163e+00
C     9.064111754797736e-01   8.569141625133206e-01   4.413582356623471e+00 -1.58744388e+00   9.95396190e-01   1.91633822e+00
C     2.617783469406978e+00   2.671159406428713e+00   4.419521443722481e+00  8.38757140e-01  -6.63174670e-01   8.92045570e-01
C     8.704525798984678e-01   2.718041586134399e+00   6.213365230381569e+00 -4.92629820e-01  -2.67291551e+00  -3.09051170e-01
C     2.666253315304842e+00   8.308711767288790e-01   6.265634670338274e+00 -7.51123300e-02   3.41957056e+00  -1.98547125e+00
C     3.535733462988893e+00   7.092869959981249e+00   3.548944182091259e+00  1.10773217e+00   7.23835840e-01   3.31381400e-01
C     5.362008219419885e+00   1.745604182569886e+00   3.556293864574981e+00 -8.31838200e-01   2.09535937e+00  -7.62125890e-01
C     3.552062860347331e+00   1.776397442854369e+00   5.297139669043039e+00  8.35663100e-02  -8.58178900e-02   1.65109557e+00
C     5.339044175809071e+00   5.628349512599320e-02   5.304223070015418e+00 -1.21121266e+00  -3.47814449e+00   5.40562670e-01
C     4.495727217335965e+00   8.996012355255874e-01   4.425147902394664e+00 -2.62145929e+00   1.61242860e-01  -1.05188010e-01
C     6.247372635037912e+00   2.661220338837203e+00   4.417853807775829e+00 -9.01655870e-01   4.03612050e-01   6.18441460e-01
C     4.455032919520988e+00   2.691662087623127e+00   6.256947467054372e+00 -2.76084860e-01  -8.55189510e-01  -1.60605409e+00
C     6.149349548550671e+00   8.254001792593960e-01   6.229052310672063e+00  3.89740045e+00   3.32850700e+00   7.31137700e-02
C     2.769953259180640e-02   3.612624915048302e+00   3.531571908050240e+00 -8.73523530e-01  -2.10029937e+00   1.26327351e+00
C     1.778431233650178e+00   5.362906510786376e+00   3.553837975643997e+00  8.70891360e-01  -7.98684260e-01   6.56948120e-01
C     2.788719494897440e-02   5.341363511941524e+00   5.319510443701990e+00 -2.12308490e+00   2.76053410e-01   7.03904800e-01
C     1.726030430043455e+00   3.560770038298795e+00   5.308283045594830e+00  1.65035619e+00   2.74663210e-01   8.29427480e-01
C     8.851346003147206e-01   4.469957550401262e+00   4.469678260476522e+00  4.28477170e-01   7.41810100e-02  -2.15141374e+00
C     2.671389790405827e+00   6.235538533060135e+00   4.480682098692283e+00 -2.29118340e-01  -8.55620950e-01  -6.94164920e-01
C     8.471238742072470e-01   6.233967074071531e+00   6.212411919824000e+00  2.16811188e+00   6.65309200e-02   6.21029260e-01
C     2.661350849476506e+00   4.413553994017217e+00   6.205257363541197e+00 -3.09310320e-01   4.29587380e-01   9.16947770e-01
C     3.555237552973650e+00   3.539225191264064e+00   3.563707593946511e+00 -2.13282050e-01   3.49801650e-01  -5.49565490e-01
C     5.315607493178253e+00   5.347429626552754e+00   3.584794232059157e+00 -5.65264100e-01  -8.38236790e-01  -1.69085679e+00
C     3.560393789489519e+00   5.266112044064776e+00   5.344092364301116e+00 -2.06956490e-01   2.99368247e+00  -2.97161430e-01
C     5.298967671003999e+00   3.563351248720569e+00   5.317219541260016e+00  2.06069266e+00  -2.96986100e-01   4.92532350e-01
C     4.438250644557431e+00   4.442705350844932e+00   4.457482624124293e+00 -4.14253820e-01  -7.72313810e-01  -7.82726070e-01
C     6.147060281045900e+00   6.186087369419581e+00   4.441873452145714e+00  3.61921347e+00   2.34132634e+00   2.65524250e-01
C     4.475593036770173e+00   6.243954478936858e+00   6.187963708654356e+00 -1.11842180e+00  -1.72122388e+00   9.36444730e-01
C     6.246621701272335e+00   4.470200871707545e+00   6.210946305248209e+00 -1.42025927e+00  -1.82459257e+00  -5.52027300e-02
