64
Lattice="7.10842262195238 0 0 0 7.10842262195238 0 0 0 7.10842262195238 " PBC="1 1 1" Properties=species:S:1:pos:R:3:force:R:3 Energy="-513.33181847"
C     1.543274092915100e-02   7.030046716044856e+00   7.089241252402192e+00  8.89100400e-02   1.96410945e+00   1.21814250e-01
C     1.754783573035997e+00   1.767746137104699e+00   1.253406835316740e-02  2.89366030e-01  -1.95053140e-01  -2.29954990e-01
C     1.957190433655080e-02   1.711648100724861e+00   1.795970200201635e+00 -7.10567400e-01   1.64421156e+00  -1.85284177e+00
C     1.793843360153731e+00   7.105528994404077e+00   1.819053665312465e+00 -4.37744450e-01  -8.68006060e-01  -1.44599080e+00
C     8.986347743861722e-01   8.184979719796022e-01   8.764428476403419e-01 -2.16438090e-01   1.37116558e+00   8.98293790e-01
C     2.631050771553399e+00   2.681649234604821e+00   8.871637706358259e-01 -1.58630860e-01  -3.08011160e-01   1.11720444e+00
C     8.531076732845368e-01   2.644878288486502e+00   2.668988636329018e+00  9.89681840e-01  -1.43695270e-01   5.68175400e-01
C     2.671655787580268e+00   9.063447828125029e-01   2.661810693335794e+00 -1.16713420e-01   1.80887000e-02  -2.35907510e-01
C     3.555581245207327e+00   2.958781397658320e-02   7.075828440844740e+00 -8.89786910e-01  -4.22536300e-01   1.81277277e+00
C     5.323544260286161e+00   1.794523422945786e+00   7.053746197059936e+00  2.07782670e-01   4.79157280e-01   1.37539788e+00
C     3.528428421399224e+00   1.823781263944349e+00   1.794093221208824e+00  1.25768029e+00  -1.07846260e+00  -6.52401070e-01
C     5.369720004951872e+00   2.145720018382720e-02   1.718227159112349e+00 -1.52505546e+00  -1.70083310e-01   6.81363520e-01
C     4.427208349775297e+00   9.453941916332107e-01   8.697554568921244e-01  4.61771940e-01  -8.25817040e-01  -1.91070380e-01
C     6.233637385430415e+00   2.684167251149503e+00   8.375112253824472e-01 -4.20777700e-01  -1.54507575e+00   2.03522489e+00
C     4.486809487906496e+00   2.653968183911827e+00   2.718308365235328e+00 -1.69813379e+00   5.68066250e-01  -2.02140499e+00
C     6.226805551534560e+00   8.524374911999232e-01   2.652245955279453e+00 -1.10378060e-01   1.54217585e+00   2.52879620e-01
C     7.950912868922400e-03   3.591283297816276e+00   8.835200642850399e-03 -7.88904910e-01  -1.02470455e+00   2.60212300e-02
C     1.816714496680902e+00   5.336371693240856e+00   7.084634994544432e+00 -7.16475820e-01  -2.25715790e-01   1.90864927e+00
C     7.087576033319230e+00   5.363111233357831e+00   1.770671253012828e+00  3.30694860e-01  -1.26028071e+00   3.22772650e-01
C     1.733765175780503e+00   3.562810297759188e+00   1.828545968542309e+00  4.02089760e-01  -4.40902550e-01  -1.75659211e+00
C     8.705774748839011e-01   4.444369503664501e+00   9.337366628733156e-01  6.29853580e-01   9.33838260e-01  -1.62258856e+00
C     2.669140401151955e+00   6.195605973813119e+00   9.265324898006242e-01  9.65931480e-01   7.17868920e-01  -1.05042917e+00
C     8.541056958203848e-01   6.229012290252713e+00   2.676052418054964e+00  1.24960077e+00  -1.98081460e-01   4.61502400e-01
C     2.657590636078978e+00   4.427384496487820e+00   2.666387024734324e+00  2.07026880e-01   6.62885410e-01   3.71189990e-01
C     3.509524993125858e+00   3.552807041111419e+00   2.694603979408640e-02  1.44936701e+00   1.71041340e-01  -1.06008371e+00
C     5.288323305720133e+00   5.309086581687795e+00   2.363408352697600e-02  4.33233220e-01   2.55114310e-01  -7.29315860e-01
C     3.589611254647600e+00   5.283587319149558e+00   1.796647277456190e+00 -8.68573010e-01   1.52727286e+00  -6.29258000e-01
C     5.328414169538896e+00   3.519210005692929e+00   1.807409358218643e+00  9.91921450e-01   5.22221300e-01  -1.28377219e+00
C     4.444282354403180e+00   4.386928899504423e+00   9.073359812626356e-01 -6.44185440e-01   9.78476210e-01   3.95706810e-01
C     6.208266501004696e+00   6.210719759819310e+00   8.448852186715304e-01  2.50054210e-01  -4.97956230e-01   9.64144520e-01
C     4.502885541082757e+00   6.243224941523367e+00   2.626536709937020e+00 -1.27794590e+00  -5.59368800e-01   5.05051450e-01
C     6.220593145585811e+00   4.432230734693232e+00   2.660710309514218e+00  1.00253750e-01   4.50647850e-01   6.07604150e-01
C     7.094399408192168e+00   1.754564846871980e-02   3.557443936270671e+00  5.56162560e-01  -8.05165230e-01   8.89907880e-01
C     1.788136363053264e+00   1.766755862749506e+00   3.546667425410299e+00 -9.81543180e-01   6.64673350e-01   2.02052110e-01
C     4.400923961958680e-02   1.732736871364293e+00   5.363625954239745e+00 -1.28678634e+00   1.20762439e+00  -2.32295190e-01
C     1.827354739079649e+00   8.892139108036599e-03   5.317776130751162e+00 -1.73467829e+00  -9.28935320e-01  -5.37353750e-01
C     9.164212562132577e-01   8.860829349764549e-01   4.463604184431959e+00 -3.14721910e-01  -1.63311350e-01  -9.24038290e-01
C     2.654493069838087e+00   2.672816450825661e+00   4.390880400554655e+00 -7.08652300e-02   4.02837400e-01   1.50694758e+00
C     8.941733150971815e-01   2.680454735267756e+00   6.246313266814853e+00 -1.98873420e-01  -3.78423530e-01  -2.16555390e-01
C     2.629346100724897e+00   8.864384271916810e-01   6.188344293601430e+00  1.54287581e+00   1.03698395e+00   9.63709400e-01
C     3.572177563835145e+00   3.935109027670080e-02   3.509011622844242e+00  4.09303780e-01  -1.42941856e+00   5.08599390e-01
C     5.355655066703260e+00   1.783577020784795e+00   3.563687974700080e+00 -5.34253090e-01  -1.69724256e+00   5.25799290e-01
C     3.505691136469987e+00   1.787357990776374e+00   5.288239568501669e+00  9.94885080e-01   4.31166120e-01   8.90745120e-01
C     5.298328339473557e+00   1.551370586279280e-02   5.382516516268169e+00  6.58966770e-01  -8.04324720e-01  -2.18989035e+00
C     4.413698508249082e+00   8.873013896977490e-01   4.441497772010247e+00  1.01684464e+00   6.30857200e-01   2.03080820e-01
C     6.235093687972575e+00   2.605048517030570e+00   4.479792835022520e+00  6.15968100e-02   2.06290983e+00  -7.45288270e-01
C     4.401569619985255e+00   2.702125827888219e+00   6.212182246689149e+00  4.68630110e-01  -1.04946854e+00  -1.10011420e+00
C     6.220032646462224e+00   8.531764828154984e-01   6.226578508516077e+00  4.52479520e-01   7.43505510e-01   1.19129500e-02
C     7.095154891348222e+00   3.540972583712512e+00   3.574364114633057e+00  6.02546490e-01  -1.51925780e-01  -9.44330700e-02
C     1.791196823328078e+00   5.332989790095164e+00   3.587041346617792e+00 -1.02618076e+00   1.75190980e-01  -1.42614646e+00
C     7.104728301680160e+00   5.332697705009709e+00   5.366603601391037e+00  1.11074300e-01   4.68383320e-01  -1.06163452e+00
C     1.774354268940703e+00   3.567846615185458e+00   5.364155531724935e+00  3.95464530e-01  -3.37595770e-01  -1.40171711e+00
C     8.933667934667164e-01   4.460035116518682e+00   4.466870149204718e+00 -5.29682380e-01  -8.53826560e-01   1.79345450e-01
C     2.684037167015557e+00   6.242426665663141e+00   4.390770575425177e+00  3.19084530e-01  -4.86939720e-01   1.19356379e+00
C     9.490126630836956e-01   6.210659409311265e+00   6.211263269812835e+00 -1.42893453e+00  -3.41947160e-01  -2.25104700e-01
C     2.697401996720324e+00   4.465181330158658e+00   6.213681484103933e+00 -1.15647959e+00  -8.25461510e-01   2.21459140e-01
C     3.547926895730110e+00   3.560661137264257e+00   3.506440932887945e+00  7.40687610e-01  -2.35168730e-01   2.19872877e+00
C     5.373276419872884e+00   5.362114845759185e+00   3.547477785588979e+00 -1.25912782e+00  -5.11922560e-01  -1.49547500e-02
C     3.548304921645042e+00   5.323259212539099e+00   5.301120030289109e+00  9.09696250e-01   1.13840169e+00   4.17764270e-01
C     5.329289785037228e+00   3.588346950600407e+00   5.285753895279907e+00 -4.36209250e-01  -1.67947326e+00   2.00360559e+00
C     4.450046929726868e+00   4.458113567716045e+00   4.428407896092422e+00 -1.58716220e-01   2.92079780e-01  -1.02793109e+00
C     6.209789907056387e+00   6.240449031406031e+00   4.455553469309452e+00  5.04768570e-01  -1.61968760e-01   5.97392350e-01
C     4.419949441848432e+00   6.235328621340166e+00   6.235372124886601e+00  2.79213400e-02  -8.74327610e-01  -3.57590290e-01
C     6.171969046917094e+00   4.447019879038367e+00   6.236063134649491e+00  1.61998365e+00   4.11423910e-01  -6.45687760e-01
