64
Lattice="7.10842262195238 0 0 0 7.10842262195238 0 0 0 7.10842262195238 " PBC="1 1 1" Properties=species:S:1:pos:R:3:force:R:3 Energy="-508.19982245"
C     7.072928559836911e+00   7.071122736154527e+00   7.074342993769839e+00  1.59930474e+00   5.61744300e-01   1.99310562e+00
C     1.779819935093221e+00   1.735577112706341e+00   4.611077368296360e-02  8.77375440e-01   1.65632630e+00   4.80307200e-02
C     7.082819858828415e+00   1.793990788838869e+00   1.800732914441261e+00  1.09627536e+00   1.96424270e-01  -1.76557244e+00
C     1.783115257651400e+00   5.090839027765400e-03   1.729502965577551e+00 -1.41128184e+00  -4.56934500e-01   2.34209107e+00
C     8.567631796168718e-01   8.843495461205678e-01   9.017480502410535e-01  5.13114380e-01  -1.18215640e-01  -7.19198400e-01
C     2.678630003181202e+00   2.707148141721928e+00   9.295387128108484e-01 -9.56207850e-01  -1.48565808e+00  -8.22045960e-01
C     8.232377970983920e-01   2.686653848466206e+00   2.666142352827743e+00  1.99356411e+00  -4.13194180e-01   6.50908140e-01
C     2.621992082103376e+00   9.269489011977038e-01   2.702167625413225e+00  1.97144821e+00  -5.92468740e-01  -3.21039308e+00
C     3.514449566148541e+00   7.028018256566013e+00   2.110177905282720e-02  1.69478398e+00   2.45193924e+00   3.41852000e-02
C     5.303536396390326e+00   1.773231706840552e+00   5.721683101599920e-02  6.15839060e-01   1.35964080e+00  -2.53657430e+00
C     3.534681203188455e+00   1.855515679383720e+00   1.800441753450746e+00 -3.19848760e-01  -2.21055192e+00   1.56003490e-01
C     5.329665180835790e+00   6.264020205392820e-02   1.786780360354272e+00 -1.51775087e+00  -2.37293886e+00  -1.43300421e+00
C     4.363496553011403e+00   9.499021400061363e-01   9.474444739694974e-01  1.79386882e+00  -2.23096360e+00  -1.12610303e+00
C     6.259929094922331e+00   2.756883855519960e+00   8.844171472196840e-01 -7.72286230e-01  -3.10419186e+00  -1.80656960e-01
C     4.483284563297691e+00   2.652496242839903e+00   2.642000727925700e+00 -6.10968160e-01   1.23770710e-01   6.68679760e-01
C     6.232730492872556e+00   8.538532046489224e-01   2.623302306560694e+00 -8.92101870e-01   2.21931562e+00   2.00513158e+00
C     9.743728137912600e-03   3.699902127976662e+00   3.525955330085500e-02  1.20399784e+00  -4.59982315e+00  -2.72617990e-01
C     1.843401221217811e+00   5.294527608067095e+00   9.140223057474599e-03 -3.61145158e+00   1.11251063e+00  -5.34501130e-01
C     7.090623200843746e+00   5.441507183064763e+00   1.772621164421720e+00  1.38830030e-01  -3.46373238e+00  -5.09418990e-01
C     1.812245928969291e+00   3.570507084519445e+00   1.802953798920427e+00 -1.78802053e+00   3.30740160e-01  -4.44490690e-01
C     9.741876393820090e-01   4.515362244465381e+00   9.522071882091235e-01 -3.37104230e+00  -1.05565995e+00  -1.81988030e+00
C     2.583850134514337e+00   6.159669058920803e+00   8.795996981258838e-01  4.81350378e+00   2.49403150e+00   6.18683500e-02
C     8.672060922036876e-01   6.219724283088968e+00   2.620645817943374e+00  6.09418210e-01   2.59976220e-01   1.91056760e+00
C     2.729741552177336e+00   4.468378911905813e+00   2.633814597352281e+00 -3.17541861e+00  -7.09073770e-01  -7.96418680e-01
C     3.570892218856996e+00   3.547207949866324e+00   4.496027548191660e-02 -9.41449820e-01   4.54683100e-02  -1.55645134e+00
C     5.338471236945899e+00   5.233652071928582e+00   7.774623987946401e-03 -2.23982936e+00   3.88112133e+00   1.99125518e+00
C     3.596696717062537e+00   5.316741713091499e+00   1.710697775704793e+00 -1.72656725e+00   7.08530010e-01   2.73129273e+00
C     5.365097824227442e+00   3.510200222190532e+00   1.757754751522705e+00 -1.07875769e+00   1.86668880e+00   1.63312711e+00
C     4.440423405015459e+00   4.365694406201282e+00   9.550635656705181e-01  1.18747167e+00   1.58387988e+00  -3.19945384e+00
C     6.176643190210875e+00   6.255868977174466e+00   8.614590746838701e-01  7.19909200e-01  -1.30768584e+00   5.22588000e-01
C     4.436081935900295e+00   6.199776556448499e+00   2.645573918724095e+00  8.27972100e-01   2.56903899e+00  -8.06514850e-01
C     6.180908883540910e+00   4.448205563931384e+00   2.639596801564068e+00  4.65067140e-01   1.49859110e+00   6.96463950e-01
C     7.082419299213778e+00   7.095127523921135e+00   3.497063288514962e+00  1.92377572e+00  -2.51166600e-01   1.90995021e+00
C     1.768087483558911e+00   1.710898304306903e+00   3.603596507478640e+00 -1.34901221e+00   2.83184518e+00  -2.66109475e+00
C     6.973604276589081e-02   1.646386099155998e+00   5.347937878770083e+00 -1.64451332e+00   4.17383184e+00   3.92002000e-02
C     1.840863443258244e+00   7.104963519384656e+00   5.366249886281466e+00 -1.08709357e+00  -1.47287634e+00  -2.70947274e+00
C     9.485145048264860e-01   8.179986052905472e-01   4.383691652759050e+00 -2.26828108e+00   2.09323340e-01   3.55990571e+00
C     2.643999118776860e+00   2.635133707337875e+00   4.348264553937041e+00  5.03770960e-01   9.06621390e-01   2.84985738e+00
C     9.520746161272605e-01   2.665103599030283e+00   6.303868814168695e+00 -1.39134144e+00  -5.18287030e-01  -2.44007863e+00
C     2.736019000193057e+00   8.771531212285322e-01   6.228323910606192e+00 -2.99301000e+00  -4.69061710e-01   3.24075840e-01
C     3.589333386407384e+00   8.259020338963680e-02   3.473261659466833e+00 -1.45581599e+00  -3.32472072e+00   2.34429146e+00
C     5.348016284671583e+00   1.753861041948374e+00   3.569846925310726e+00 -1.12928010e-01   5.39177640e-01   1.01974320e-01
C     3.505314674408032e+00   1.787436752099003e+00   5.320419682039314e+00  2.25406522e+00   2.31881550e-01  -7.92951960e-01
C     5.336257460889352e+00   3.152727600422400e-03   5.442273257770521e+00 -1.08240056e+00  -6.52533510e-01  -3.58113524e+00
C     4.431464659987474e+00   9.101459407243215e-01   4.464819511447300e+00  8.30806630e-01  -6.90725490e-01  -7.62332700e-02
C     6.264295870022023e+00   2.637204248678628e+00   4.436106459958334e+00 -1.55946386e+00   6.59777960e-01   6.59395020e-01
C     4.382537458178240e+00   2.687440182176430e+00   6.174923165189513e+00  1.95681669e+00  -1.00232270e-01   1.41331326e+00
C     6.203659958810031e+00   8.256795402683620e-01   6.262881791510227e+00  8.05494530e-01   2.78109529e+00  -3.04458650e-01
C     7.017760447304222e+00   3.585639636761353e+00   3.513915297104423e+00  3.88898538e+00  -1.23920435e+00   2.00799482e+00
C     1.778408842118924e+00   5.257483769604394e+00   3.548362997457847e+00  4.93350030e-01   3.14980912e+00  -9.70068650e-01
C     7.098709813500484e+00   5.351706409022077e+00   5.334531251540311e+00  1.06912613e+00  -3.09683110e-01   4.63332260e-01
C     1.848684698498578e+00   3.510334002704240e+00   5.359424663218647e+00 -2.26628582e+00   9.95552330e-01  -5.88578340e-01
C     9.321251834653616e-01   4.445424322497082e+00   4.486745938608274e+00 -2.20015714e+00  -1.09533516e+00  -1.01200899e+00
C     2.677766969590908e+00   6.214896455698143e+00   4.332286810245614e+00  5.26704600e-01   5.14082680e-01   3.47700645e+00
C     9.168783277877235e-01   6.207521111808761e+00   6.227634109275147e+00 -2.84329820e-01  -7.43804400e-02  -1.56657670e-01
C     2.672907438635197e+00   4.452468769313502e+00   6.259032438493044e+00  2.07633287e+00  -1.23900299e+00  -2.04951017e+00
C     3.492180726269963e+00   3.538252901218100e+00   3.392164935669658e+00  3.72357496e+00  -4.87982800e-01   5.66087475e+00
C     5.292394583691511e+00   5.338926673583162e+00   3.553187554974267e+00  5.04801100e-01   6.25213770e-01  -2.30830560e-01
C     3.573432484764480e+00   5.322772143421176e+00   5.267046019712818e+00 -1.34091618e+00   1.28856549e+00   1.87320078e+00
C     5.307830239073937e+00   3.632758882361416e+00   5.292588714713263e+00 -1.61183470e-01  -3.75500843e+00   9.02333730e-01
C     4.384949772478564e+00   4.484116888502267e+00   4.402593303926761e+00  1.81957764e+00  -2.26349079e+00  -5.74157100e-01
C     6.229732302379893e+00   6.264878476339959e+00   4.484122290903457e+00 -9.41338820e-01  -1.40389913e+00  -1.43764336e+00
C     4.472239851651866e+00   6.184004317255016e+00   6.260898897020378e+00 -1.59029369e+00  -5.06139120e-01  -7.07197960e-01
C     6.150479645578798e+00   4.447714727349473e+00   6.264077428194911e+00  3.63515710e+00   1.03835080e-01  -2.98754972e+00
