64
Lattice="7.10842262195238 0 0 0 7.10842262195238 0 0 0 7.10842262195238 " PBC="1 1 1" Properties=species:S:1:pos:R:3:force:R:3 Energy="-512.5205538"
C     7.097195008640163e+00   7.092215416426399e-03   7.088910284245005e+00  6.31272660e-01  -4.71073500e-01   1.36582061e+00
C     1.733423758242064e+00   1.746218208115802e+00   2.745585586439280e-02  8.81771810e-01   1.08060252e+00  -6.93649670e-01
C     2.481088289171700e-02   1.724644216548328e+00   1.781478827680050e+00 -9.25524060e-01   2.18802255e+00   3.28768280e-01
C     1.806109369889898e+00   3.477795766835000e-03   1.774265769079084e+00 -9.67569160e-01  -1.89431524e+00   5.33254130e-01
C     8.992013156689861e-01   8.535073798884594e-01   9.586633419695124e-01 -3.99989960e-01   4.24945730e-01  -2.75570633e+00
C     2.639488255950660e+00   2.660085408081694e+00   8.385860899668174e-01  7.20600000e-01  -2.55903810e-01   2.28714113e+00
C     8.635731906552842e-01   2.705373524014845e+00   2.656090545653480e+00  1.59542175e+00  -2.55523350e+00   8.38790000e-04
C     2.677700719092090e+00   8.469553335069268e-01   2.656044340906450e+00 -8.65664000e-02   2.14597192e+00  -6.58600360e-01
C     3.605858478640551e+00   5.932440723860299e-02   7.094057066558790e+00 -2.33896108e+00  -1.04714977e+00   8.24464100e-02
C     5.360947784933434e+00   1.794448144750240e+00   3.781552882232840e-02  4.84220410e-01   3.16831680e-01  -2.03166752e+00
C     3.570877788759078e+00   1.780672377133811e+00   1.751739675385887e+00 -3.96715140e-01   4.78990140e-01   7.97822310e-01
C     5.275567383496995e+00   9.315516759283800e-03   1.745342948038602e+00  1.84340161e+00  -3.96747510e-01   4.45077500e-01
C     4.456103803388692e+00   9.379166286265542e-01   8.530471095238145e-01 -1.40956450e-01  -1.09032583e+00   1.59073959e+00
C     6.258364602187895e+00   2.686457442749215e+00   8.901326033430689e-01 -1.00092208e+00  -1.03458646e+00   1.14245619e+00
C     4.487264782375307e+00   2.680488358106749e+00   2.720521075028481e+00 -2.13464309e+00  -7.95144060e-01  -1.26872452e+00
C     6.222155221456556e+00   8.462383780014736e-01   2.644629635863254e+00 -1.35873456e+00   1.87340563e+00  -3.22052910e-01
C     7.098743365255251e+00   3.569854886744060e+00   7.101370922592507e+00  1.09357900e-01  -2.86784700e-02   3.84193740e-01
C     1.796633273863628e+00   5.319160496056407e+00   7.057909813441149e+00 -7.98519060e-01   3.44651400e-01   2.20782954e+00
C     2.091155766351600e-03   5.350204896912054e+00   1.794157125928177e+00  1.63111930e-01  -8.05273420e-01  -8.06892940e-01
C     1.787833544249652e+00   3.524406262628149e+00   1.793376336787597e+00 -9.34565580e-01   1.78555835e+00  -1.49165619e+00
C     9.054851612650661e-01   4.453424212397857e+00   8.863845453482214e-01 -5.69564270e-01  -3.16126760e-01  -3.01337050e-01
C     2.645690212518158e+00   6.193458377171163e+00   8.616390599446083e-01  1.52930212e+00   1.83125254e+00   2.15594270e-01
C     9.089324618988613e-01   6.203495967500187e+00   2.701877530686103e+00 -6.21777740e-01   5.67361210e-01  -5.91327910e-01
C     2.615206524038776e+00   4.477887991013039e+00   2.662142727756374e+00  1.86424493e+00  -1.75852211e+00   6.66921260e-01
C     3.532961035998641e+00   3.543519602621484e+00   7.103494137344875e+00  1.57533563e+00  -1.14611860e-01  -1.50139180e-01
C     5.293889556052724e+00   5.336842839492109e+00   7.090893178734853e+00  7.18283310e-01  -1.20918105e+00   1.68070715e+00
C     3.514056825798787e+00   5.354993414725791e+00   1.787062564732286e+00  9.17888950e-01  -1.29449869e+00  -4.66049550e-01
C     5.331454584061923e+00   3.551529799735057e+00   1.854238366923132e+00  8.44985970e-01  -2.16970730e-01  -2.42253663e+00
C     4.446204685132306e+00   4.402573684680330e+00   9.481320006053037e-01 -1.29931620e+00   1.35359312e+00  -1.46269465e+00
C     6.193661322636965e+00   6.209987165784092e+00   8.788211125963151e-01  2.17908620e-01   5.98994270e-01  -2.40021770e-01
C     4.426331525845120e+00   6.231437897303335e+00   2.663244462178248e+00  6.13683860e-01  -1.27705154e+00  -1.28618495e+00
C     6.221314579397514e+00   4.425596159525081e+00   2.671764119940996e+00  1.95812290e-01   1.54477465e+00   1.58002560e-01
C     7.051866943371887e+00   2.816854631627400e-03   3.505342894845834e+00  3.11540867e+00  -3.75017470e-01   1.77700322e+00
C     1.766331987508676e+00   1.790082080492810e+00   3.559870467416234e+00  1.58354470e-01  -9.47718480e-01  -1.31700220e-01
C     7.092109785266267e+00   1.793896531154928e+00   5.298861400085830e+00  5.97895810e-01   1.73972600e-02   1.30991245e+00
C     1.792383361231809e+00   1.350586080954760e-02   5.374951235326382e+00 -4.07393380e-01   2.22267440e-01  -1.80320516e+00
C     8.613009833648012e-01   9.076432783724983e-01   4.467118019901477e+00  6.88597920e-01  -7.44255770e-01  -1.33179084e+00
C     2.678023157142133e+00   2.632543824640504e+00   4.437534542062693e+00 -9.87376870e-01   1.94264553e+00  -5.83562100e-02
C     8.557356571271508e-01   2.646097667302736e+00   6.228879647086624e+00  4.94236010e-01   7.11129950e-01  -9.12717000e-03
C     2.673584160468621e+00   9.507828024845280e-01   6.224539457487530e+00 -4.50433810e-01  -2.00122296e+00   3.60582620e-01
C     3.555385763585276e+00   7.069421619537335e+00   3.469860065990484e+00 -4.02432880e-01   1.35864664e+00   4.38146411e+00
C     5.358940508553999e+00   1.775958924262942e+00   3.566930623846645e+00 -7.84998780e-01  -6.55159130e-01   4.89307270e-01
C     3.544473410768636e+00   1.780224191087620e+00   5.314051032961377e+00  1.26009620e+00  -8.60912700e-02   1.00664068e+00
C     5.342011515747563e+00   7.070409832449966e+00   5.325092332564345e+00 -5.34470950e-01   1.41074403e+00   5.71668210e-01
C     4.411138907432072e+00   8.448832283131967e-01   4.501759282602845e+00  1.20859663e+00   6.94340270e-01  -3.06791375e+00
C     6.262706213471512e+00   2.682939626563029e+00   4.420911566850048e+00 -9.21803820e-01  -3.79361100e-02  -3.35498020e-01
C     4.531059418715996e+00   2.642461424795701e+00   6.203079840440012e+00 -2.90629872e+00   1.26005640e+00   1.36285060e-01
C     6.232368247655841e+00   9.245889759720900e-01   6.206053791211541e+00 -3.52861030e-01  -1.47939713e+00   3.55566770e-01
C     1.486996711032560e-02   3.570801515384366e+00   3.505858184401557e+00  3.40870900e-02  -2.03104030e-01   1.91478063e+00
C     1.806995861274838e+00   5.298324572009568e+00   3.630323963277162e+00 -1.75886831e+00   1.47299845e+00  -2.24662924e+00
C     7.092907634621135e+00   5.320354213466983e+00   5.285498134234039e+00  7.00266850e-01   1.05586805e+00   1.51593081e+00
C     1.752221768607976e+00   3.557347617144170e+00   5.355442240530017e+00  9.12490060e-01  -1.37204935e+00  -5.33833600e-01
C     9.055020082266755e-01   4.436585851979827e+00   4.457298018388852e+00 -8.89876270e-01  -3.43791260e-01  -2.49737890e-01
C     2.674050188655589e+00   6.215952269709891e+00   4.429341089813975e+00  2.13522280e-01   1.97100740e-01   1.14133035e+00
C     9.122065302734073e-01   6.228048032724311e+00   6.247997394301983e+00 -1.14095812e+00  -3.33423060e-01  -1.73424647e+00
C     2.663439872716072e+00   4.439237222532861e+00   6.206031044259158e+00  2.33799520e-01  -2.42081900e-01   2.01770340e-01
C     3.521282750644695e+00   3.576525359446442e+00   3.551699548867223e+00  1.20318151e+00  -6.11156880e-01   6.03003620e-01
C     5.344127195571954e+00   5.316850969547168e+00   3.563059590140471e+00 -1.06634009e+00   7.97019310e-01  -5.97152800e-01
C     3.550219930698870e+00   5.335999993822056e+00   5.354434621623633e+00  1.61879890e-01   3.43204710e-01  -5.90123550e-01
C     5.377854812713974e+00   3.573242974217430e+00   5.305312364697707e+00 -1.76965048e+00  -1.31564939e+00   3.01542420e-01
C     4.422798497634527e+00   4.450569398789439e+00   4.469508866765488e+00  7.76180960e-01   2.57100800e-02  -7.99364920e-01
C     6.231986738613825e+00   6.247569751597164e+00   4.387312754325904e+00 -9.43927260e-01  -1.74931375e+00   1.75057348e+00
C     4.426042426297164e+00   6.233244218575304e+00   6.251201657966400e+00  7.78054950e-01  -4.33117200e-01  -1.27567742e+00
C     6.172887668372277e+00   4.433179211523418e+00   6.205924560088310e+00  1.86847814e+00   1.41932227e+00   5.43173000e-03
