64
Lattice="7.10842262195238 0 0 0 7.10842262195238 0 0 0 7.10842262195238 " PBC="1 1 1" Properties=species:S:1:pos:R:3:force:R:3 Energy="-514.16836957"
C     7.098378418837940e+00   7.380461953667400e-03   1.845296753193660e-02  4.19316670e-01  -2.97743230e-01   2.37428260e-01
C     1.762417805677199e+00   1.745793764201162e+00   1.456956517040440e-02  9.16934910e-01   8.95349770e-01  -3.47641230e-01
C     5.052880050974600e-03   1.810931581626853e+00   1.805530033446368e+00 -3.50922480e-01  -1.40108112e+00  -3.94455270e-01
C     1.788444939679198e+00   7.096179357216216e+00   1.767494285691272e+00 -7.34282260e-01   7.79570360e-01   1.47864457e+00
C     8.815426432806084e-01   8.910707729604563e-01   9.306248087029582e-01  2.48130110e-01  -1.04062120e-01  -1.25540925e+00
C     2.698927250961897e+00   2.659214341973839e+00   8.675054989644420e-01 -9.30938350e-01  -3.39634450e-01   3.14891890e-01
C     9.200000626655227e-01   2.674963763130711e+00   2.632632395586349e+00 -8.21564200e-02   6.75124470e-01   6.72891750e-01
C     2.666498555885232e+00   8.655627670623959e-01   2.691747744115698e+00  2.34207850e-01   8.25962400e-01  -1.07748773e+00
C     3.571158358199889e+00   5.845753510009400e-03   2.611634470588000e-04 -8.54413660e-01   1.15718140e-01  -9.95543100e-02
C     5.324739612633940e+00   1.778455544455538e+00   2.274098130899920e-02  8.87899230e-01  -4.49211060e-01  -8.70607520e-01
C     3.569423547659478e+00   1.769468365737072e+00   1.778116970286147e+00 -7.89279590e-01  -2.88433120e-01  -1.05124290e-01
C     5.312480569151940e+00   7.108161385468715e+00   1.780666974732620e+00  5.10940040e-01   1.56849180e-01   7.43741400e-01
C     4.455030573741524e+00   8.724228924802794e-01   8.735827027149586e-01 -2.55488480e-01   7.33935300e-01   9.79619190e-01
C     6.210722461019905e+00   2.672657435411652e+00   9.108029011428620e-01 -2.98893230e-01   4.15524900e-02  -5.50099900e-02
C     4.400169473981792e+00   2.686911955291538e+00   2.656096303475802e+00  1.22503597e+00  -6.02397500e-01   4.52386750e-01
C     6.222471048673563e+00   8.997915990833509e-01   2.685301399978524e+00 -1.02785378e+00   2.09801140e-01  -4.17130460e-01
C     7.740290306691799e-03   3.530076722436350e+00   3.033625979424300e-02 -5.60557550e-01   8.12510080e-01  -1.36445766e+00
C     1.767403084629057e+00   5.365737013589433e+00   7.078550326950165e+00  6.01060630e-01  -1.46626775e+00   1.02931468e+00
C     9.557274212590000e-03   5.348097605026355e+00   1.775923666486746e+00 -2.93947330e-01  -1.02236258e+00   8.16910100e-02
C     1.791944131798119e+00   3.557795661021909e+00   1.711414944462925e+00  3.73215220e-01   1.89552730e-01   1.57571801e+00
C     8.922668361504975e-01   4.434890564269184e+00   8.457338221639059e-01  1.40057140e-01   9.00317270e-01   1.14806872e+00
C     2.662441068253735e+00   6.230009246525168e+00   9.145518121484238e-01 -3.81880250e-01   2.26070840e-01  -2.18848802e+00
C     8.825770609402708e-01   6.226815361157776e+00   2.656810131275302e+00  4.53368940e-01  -6.19637600e-01   6.74449020e-01
C     2.687263253537418e+00   4.449113167331506e+00   2.651894728117798e+00 -1.47259703e+00  -7.27973010e-01  -9.46095100e-02
C     3.585148871263669e+00   3.546756849366858e+00   7.105968294921992e+00 -1.14524843e+00   2.93724240e-01  -6.85303370e-01
C     5.331911584552163e+00   5.371955817118540e+00   5.044705364961600e-03  5.64830010e-01  -1.11120889e+00   8.56487000e-03
C     3.523347747415805e+00   5.349979559915000e+00   1.736181684050172e+00  9.99400520e-01  -1.02385667e+00   1.58227559e+00
C     5.284161679697254e+00   3.574615184119995e+00   1.769529356003152e+00  1.29226140e+00   6.63958800e-02   2.04538690e-01
C     4.427953099213194e+00   4.472088939839643e+00   8.559936928682568e-01  4.59085530e-01  -4.23878740e-01   6.02027220e-01
C     6.223624034822527e+00   6.234044626962315e+00   9.476517555730966e-01 -4.02635540e-01  -8.66514200e-02  -2.21273760e+00
C     4.401207943442349e+00   6.194611647657032e+00   2.658863825654447e+00  1.08640068e+00   1.14660154e+00  -8.32470900e-02
C     6.213388403839311e+00   4.443728821533760e+00   2.657769483992098e+00  2.95074010e-01  -1.73835980e-01   1.90909800e-02
C     7.088338980319035e+00   6.594483664574000e-04   3.561028998134842e+00  1.02093485e+00   6.90009820e-01  -5.96832150e-01
C     1.805136653338577e+00   1.816997056480047e+00   3.528188085630442e+00 -1.86200790e-01  -1.50279519e+00   1.08879417e+00
C     7.096402917107616e+00   1.793083256522974e+00   5.329396198123849e+00  3.38720360e-01  -4.33768250e-01   1.32061200e-01
C     1.736340983801086e+00   7.107864253403199e+00   5.340819006768832e+00  1.33254602e+00   3.08485870e-01  -7.99971120e-01
C     8.867300857717796e-01   9.318758199998520e-01   4.418135656732712e+00 -2.69013460e-01  -1.07586757e+00   7.35518100e-01
C     2.720346918674291e+00   2.644871748737691e+00   4.490706040849876e+00 -2.09988125e+00   1.01720499e+00  -1.76364425e+00
C     8.820775520827634e-01   2.640338778717144e+00   6.242697141143831e+00  2.23074320e-01   5.71925610e-01  -5.02306850e-01
C     2.663653196478898e+00   8.889706605816037e-01   6.215701058054501e+00 -5.93851280e-01  -8.78900780e-01   6.20869440e-01
C     3.537076599442942e+00   7.086859291066456e+00   3.576968640681025e+00 -1.83826370e-01  -2.88245260e-01  -5.37974110e-01
C     5.296228653600060e+00   1.791107257203066e+00   3.544636193646634e+00  9.55458090e-01  -2.77274720e-01   4.60441130e-01
C     3.559450501807845e+00   1.747599658967773e+00   5.345127421718814e+00  3.99531800e-01   2.21381200e-02  -9.63398000e-03
C     5.347221634106893e+00   7.064821261670349e+00   5.318956768664118e+00 -3.04872700e-01   1.88931329e+00   1.97676960e-01
C     4.431407223932704e+00   8.548088609859552e-01   4.431054788339205e+00  6.01408930e-01   6.12556350e-01   5.96480080e-01
C     6.219145088813891e+00   2.684808288701375e+00   4.451388999917524e+00 -2.51935700e-02  -6.35928670e-01  -8.91768720e-01
C     4.447371674873832e+00   2.635112666406919e+00   6.225108771055166e+00  5.15173140e-01   1.03555435e+00  -3.27987980e-01
C     6.237105798079392e+00   8.875312760852797e-01   6.225855724104076e+00 -7.59650230e-01  -1.99711030e-01  -2.22766850e-01
C     3.820585230839260e-02   3.541343074699467e+00   3.543592819374470e+00 -1.23820082e+00   6.93041740e-01  -4.57293400e-02
C     1.777312439014016e+00   5.294619022381988e+00   3.558376845655320e+00  1.89132350e-01   1.43388368e+00  -5.52927940e-01
C     1.215540268020000e-05   5.321973654308271e+00   5.308159359041242e+00  3.84539250e-01  -1.75300030e-01   6.35291540e-01
C     1.783967273186634e+00   3.541201972510459e+00   5.334184360516455e+00  2.02616540e-01   1.06347360e-01   8.40006160e-01
C     9.053661662704074e-01   4.440304481105028e+00   4.439291175460546e+00 -2.83445230e-01  -9.56191850e-01  -1.68024380e-01
C     2.645934315750929e+00   6.194484975565944e+00   4.459862879438600e+00  1.21820850e-01   5.36557330e-01   5.99775000e-03
C     8.892654468676550e-01   6.201306928754359e+00   6.216602548211169e+00 -1.09728194e+00   1.47419827e+00  -1.61730730e-01
C     2.664289968977198e+00   4.457378912238267e+00   6.226266875268417e+00  3.87415960e-01  -8.14646010e-01  -1.17805970e-01
C     3.541471737148889e+00   3.549079881879074e+00   3.573309793390059e+00  6.65888330e-01   7.13121160e-01  -4.93549290e-01
C     5.323969272874610e+00   5.331426292539896e+00   3.534465320393485e+00 -6.18759100e-02  -1.18467330e-01   2.01334270e-01
C     3.561806588485243e+00   5.324775154747040e+00   5.357643505762753e+00 -3.95074570e-01   5.94913030e-01  -7.22241920e-01
C     5.342862891524762e+00   3.554374235046450e+00   5.315291097287436e+00 -3.95233710e-01   4.07581360e-01   8.38104480e-01
C     4.437469713248397e+00   4.472621289609655e+00   4.437964388378524e+00  4.40778890e-01  -1.27947648e+00   3.75682910e-01
C     6.225266862374235e+00   6.211782611169452e+00   4.419218838171548e+00 -2.90229070e-01  -2.52368900e-01   5.84241390e-01
C     4.447224957030954e+00   6.247722227262362e+00   6.222028691533920e+00  2.12587270e-01  -1.19128020e+00   4.82521000e-03
C     6.243246551128132e+00   4.441113775020314e+00   6.222305138089611e+00 -9.26312930e-01   5.92247200e-02   1.98140700e-02
