64
Lattice="7.10842262195238 0 0 0 7.10842262195238 0 0 0 7.10842262195238 " PBC="1 1 1" Properties=species:S:1:pos:R:3:force:R:3 Energy="-510.92173664"
C     7.234113748766839e-02   6.991865956468312e+00   4.434653427290580e-02 -2.06313904e+00   3.81588748e+00  -2.08191408e+00
C     1.777617248175961e+00   1.818132129404009e+00   7.106941366894445e+00  9.81399460e-01  -1.24169148e+00  -1.13746450e-01
C     2.304685673433780e-02   1.706765964985219e+00   1.804416854464076e+00 -1.07038716e+00   1.32116559e+00  -1.66924032e+00
C     1.792214109689226e+00   7.060285235028075e+00   1.773690626604900e+00  1.99757550e-01   2.06509729e+00  -7.76065030e-01
C     9.224171396090014e-01   8.350293196246742e-01   8.238794033240732e-01 -1.04093020e-01   1.24102420e+00   2.91534086e+00
C     2.659361841743204e+00   2.736518509050565e+00   9.579692045006694e-01 -1.18089627e+00  -2.39218406e+00  -2.36854346e+00
C     8.581299160340192e-01   2.614708934455376e+00   2.698911967853264e+00  5.84182630e-01   9.22843850e-01  -4.53469260e-01
C     2.705774652303291e+00   9.420921160735422e-01   2.633680248164763e+00 -1.74363525e+00  -2.98522169e+00   9.44194230e-01
C     3.603786942120630e+00   7.098691687022803e+00   7.102540968955759e+00 -2.82490162e+00   5.38083090e-01  -7.43407700e-02
C     5.286760661175578e+00   1.841248222174665e+00   7.069517369990026e+00  1.35957107e+00  -2.41797676e+00   7.15814280e-01
C     3.530055539336942e+00   1.825800695726465e+00   1.763531553333300e+00  1.39582852e+00  -1.47332648e+00  -7.83232310e-01
C     5.395662406556239e+00   7.080927525642744e+00   1.709015638575996e+00 -2.11229066e+00   1.90333338e+00   9.05789480e-01
C     4.422631805124088e+00   9.374053197874975e-01   7.823714754560119e-01  8.89345020e-01  -8.15281740e-01   3.16772390e+00
C     6.182904502107250e+00   2.627622450407999e+00   9.111912342705926e-01  1.10611506e+00   8.73632720e-01  -4.30763140e-01
C     4.458507729750323e+00   2.629917688987771e+00   2.629906173343127e+00 -4.16750560e-01   1.83030794e+00   6.99428010e-01
C     6.228305144370474e+00   8.864485211518014e-01   2.646656957994478e+00  6.02279780e-01  -1.67066337e+00   6.78523990e-01
C     7.105740256724342e+00   3.499948881593325e+00   5.658005851769960e-02 -1.05107268e+00   1.81896493e+00  -1.27366100e+00
C     1.822695381304918e+00   5.308693841338040e+00   1.006225655551480e-02 -1.29278367e+00   1.10628780e+00   8.26361660e-01
C     7.063331549541875e+00   5.358138536314009e+00   1.786220074483364e+00  5.97738960e-01  -2.67930510e+00  -4.87722220e-01
C     1.743170471917477e+00   3.510047462188428e+00   1.794863276631248e+00 -4.66421090e-01   2.00131759e+00   1.57580929e+00
C     8.466468990494449e-01   4.417264164119500e+00   9.320211161582047e-01  1.26636055e+00   1.32492200e-01  -8.15903320e-01
C     2.711785036881180e+00   6.195944334729830e+00   9.433232948713263e-01 -7.56941850e-01   3.46632680e-01  -1.65697861e+00
C     8.301984356121221e-01   6.198279025055142e+00   2.615009976153333e+00  2.94326159e+00   2.09723828e+00   2.55267899e+00
C     2.683540146105967e+00   4.397885537793987e+00   2.655782964206713e+00 -4.94816340e-01   2.21458860e+00   7.96938130e-01
C     3.489202012855278e+00   3.611785623589559e+00   8.514831143789620e-02  1.37809120e+00  -1.05888418e+00  -3.24304660e+00
C     5.313767549067292e+00   5.351595944134562e+00   7.088753045936650e+00 -3.94199200e-02  -4.64494580e-01   6.89666380e-01
C     3.578530858720223e+00   5.332210422639108e+00   1.807326545095120e+00 -8.02064460e-01  -1.07483075e+00  -1.26908967e+00
C     5.285083144521485e+00   3.576144063657105e+00   1.766347839291118e+00  1.45623655e+00  -1.00680933e+00  -9.45786700e-02
C     4.399461404004615e+00   4.452939062554042e+00   8.752279471303576e-01  1.65595103e+00   9.47104080e-01   1.05296951e+00
C     6.249312168149778e+00   6.201052731561466e+00   8.564312873647439e-01 -9.23180650e-01  -5.95385830e-01   9.30438470e-01
C     4.462695514768444e+00   6.211510785088463e+00   2.601883776195919e+00  3.56382310e-01   1.17379032e+00   2.05541718e+00
C     6.180759606665891e+00   4.463118465914334e+00   2.649783313346980e+00  3.52793120e-01  -6.93592890e-01   1.15004608e+00
C     5.259614306032060e-02   1.228399404539580e-02   3.586738741066858e+00 -2.76297421e+00  -1.27646289e+00  -7.90665490e-01
C     1.790654521766398e+00   1.743514093066928e+00   3.554577678101834e+00 -8.93507370e-01   1.13427639e+00  -3.94348050e-01
C     2.171530700915940e-02   1.696955773095809e+00   5.399780173611553e+00 -2.83226400e-01   2.04679087e+00  -1.71085652e+00
C     1.808785406669423e+00   2.781412036444080e-02   5.340702428637864e+00 -8.55337040e-01  -1.51898936e+00   2.63573100e-01
C     9.143679883394705e-01   8.675324398861718e-01   4.450191159621828e+00  3.98027650e-01   2.85174180e-01   4.23985210e-01
C     2.624451951751027e+00   2.673087779317067e+00   4.375093446926350e+00  1.56464880e+00   1.41832650e-01   2.64138961e+00
C     9.161658505885208e-01   2.703682714610451e+00   6.207785047540643e+00 -1.25508460e+00  -1.73215018e+00   1.27077743e+00
C     2.656888679345254e+00   8.688965461869498e-01   6.214164785757867e+00  1.34373001e+00   1.97075791e+00   1.75487120e-01
C     3.595784422103486e+00   1.781100588512440e-02   3.536098480490430e+00 -1.05305243e+00   2.46248550e-01  -9.10032220e-01
C     5.335577184844618e+00   1.759337299650596e+00   3.496983247676261e+00  6.96843250e-01   7.81005520e-01   1.22655484e+00
C     3.545756694304224e+00   1.810026608343101e+00   5.282200110475265e+00 -7.54438840e-01  -4.37571010e-01   8.17759880e-01
C     5.263042271756329e+00   1.962827412792740e-02   5.278680090678067e+00  2.14958429e+00  -1.21408420e-01   2.24766519e+00
C     4.430281107621244e+00   9.340702611468722e-01   4.363108930725935e+00  6.69367360e-01  -9.37902750e-01   1.91551299e+00
C     6.224310850616071e+00   2.621576736969689e+00   4.508379143336172e+00 -4.76624530e-01   9.37108760e-01  -1.28386184e+00
C     4.384389628776107e+00   2.711730230942779e+00   6.227727869369505e+00  3.63359180e-01  -1.13526380e-01  -5.64399130e-01
C     6.225534067980520e+00   8.137372480983096e-01   6.255679324458964e+00 -4.53286080e-01   1.84861547e+00  -9.99300390e-01
C     7.090509394997600e+00   3.572469080246792e+00   3.599920457804934e+00  2.26484690e-01  -8.06287390e-01  -8.61412730e-01
C     1.818861169227916e+00   5.440212383884530e+00   3.528328192640282e+00 -1.70161991e+00  -4.32390218e+00   5.88198570e-01
C     2.128695346207820e-02   5.338563504271507e+00   5.441744391127592e+00 -1.10718447e+00  -2.73376940e-01  -3.39861106e+00
C     1.774995022155669e+00   3.580326730610939e+00   5.332234306939110e+00  3.90282440e-01   1.99298000e-01  -1.05017153e+00
C     9.106799254315360e-01   4.485417303336369e+00   4.432843054217718e+00 -7.33109920e-01   1.50931730e-01   1.08046969e+00
C     2.681186547376485e+00   6.242167137153285e+00   4.482479605520202e+00  6.29626910e-01   4.14659450e-01  -2.37615919e+00
C     9.233290791469212e-01   6.220589022700691e+00   6.240210259490225e+00  8.42348850e-01  -1.11334755e+00   2.73937560e-01
C     2.682745069035920e+00   4.484935565535412e+00   6.234866005196057e+00 -6.93287180e-01  -2.00111302e+00  -5.67172620e-01
C     3.571043059584993e+00   3.522995738327663e+00   3.532114849369956e+00 -6.99812090e-01   4.55261080e-01  -7.33842200e-02
C     5.302661847155387e+00   5.348132365212967e+00   3.529131017890985e+00  1.51352746e+00  -3.22049440e-01   9.63273950e-01
C     3.564120380048053e+00   5.297833593259204e+00   5.298940445745364e+00 -2.47739880e-01   1.54324179e+00   1.37487597e+00
C     5.296055563509264e+00   3.563778251667353e+00   5.348419403318363e+00  8.64033540e-01   1.09878590e-01  -2.95192790e-01
C     4.450109128424794e+00   4.440489371177374e+00   4.403888600696577e+00 -5.55493820e-01  -4.75433540e-01   5.52923830e-01
C     6.197755845150311e+00   6.225687894246017e+00   4.523104240793502e+00  8.78913660e-01  -8.55556900e-02  -2.64570245e+00
C     4.426476537666567e+00   6.238798455673667e+00   6.224027153469307e+00  4.87234900e-01  -7.98026550e-01  -1.77260038e+00
C     6.173545837222663e+00   4.465423087611964e+00   6.256048535929847e+00  1.71860071e+00  -1.71525861e+00  -2.08035490e-01
