64
Lattice="7.10842262195238 0 0 0 7.10842262195238 0 0 0 7.10842262195238 " PBC="1 1 1" Properties=species:S:1:pos:R:3:force:R:3 Energy="-514.58638926"
C     7.087090243717380e+00   1.563504663691620e-02   1.515927991095960e-02  1.16431004e+00  -6.11227810e-01  -4.55432550e-01
C     1.790467712419945e+00   1.781378741089561e+00   7.092774351697011e+00 -4.61871810e-01  -1.87887210e-01   1.35922880e-01
C     3.892714395164400e-03   1.772276761345781e+00   1.799021064105912e+00  3.64079400e-02   2.66826110e-01  -1.21536114e+00
C     1.796842972330918e+00   7.106016916532713e+00   1.768221974914881e+00 -6.02224230e-01  -3.47185800e-02  -6.75382200e-02
C     9.175037268098313e-01   8.890509146729834e-01   8.812116751234211e-01 -1.13408674e+00   3.04342540e-01   3.85455760e-01
C     2.668456641980137e+00   2.662327404576042e+00   8.704867003270438e-01 -2.39820450e-01   1.03885980e-01   6.71507240e-01
C     8.878812948150886e-01   2.667571074690137e+00   2.668497373241749e+00 -2.89956700e-02  -2.69938020e-01   2.57875060e-01
C     2.661659639355119e+00   8.746792479883199e-01   2.652850953128641e+00  1.05149680e-01   6.38800460e-01   1.79524380e-01
C     3.565048384621095e+00   3.635247327868000e-04   7.096423176112083e+00  7.74619000e-03  -2.87025940e-01   5.61102100e-01
C     5.326272686140396e+00   1.749296723784072e+00   7.107568614106433e+00 -5.54932400e-02   1.47061378e+00   7.32507730e-01
C     3.533999860880328e+00   1.762414677971246e+00   1.748539037017006e+00  1.20116337e+00   2.33102890e-01   9.15159710e-01
C     5.330630860048717e+00   7.102566488192966e+00   1.762795049665642e+00 -6.48083400e-02  -2.40072300e-01   7.25184380e-01
C     4.448839990650218e+00   8.764359524704004e-01   8.808826973245676e-01 -4.25195460e-01  -3.32306600e-02  -1.08419140e-01
C     6.211460599624766e+00   2.658906049684810e+00   8.919462462903356e-01  1.56314210e-01  -2.77307500e-01   1.52505210e-01
C     4.457729641810338e+00   2.650783397325388e+00   2.674868083762246e+00 -1.07087116e+00   9.63694370e-01  -8.95380540e-01
C     6.205505589659087e+00   8.847952442188418e-01   2.646318028403956e+00  9.91731890e-01   1.25152360e-01   6.02751450e-01
C     7.095427570439925e+00   3.530171833131006e+00   7.098605532940649e+00  4.65649300e-02   1.87490820e-01   1.02680495e+00
C     1.767611005990692e+00   5.329813036026287e+00   7.100023165663756e+00  8.38179400e-02   5.61653500e-02   1.15174485e+00
C     5.874045032037000e-03   5.313931753629814e+00   1.790195388749373e+00  1.12286730e-01   4.52586780e-01  -3.43282500e-01
C     1.791154883634620e+00   3.533306149916842e+00   1.782661953540923e+00 -4.51798070e-01   4.23764040e-01  -6.57984500e-02
C     8.790202195139013e-01   4.400828922348251e+00   9.175835543958538e-01  1.95507790e-01   1.03522554e+00  -1.36614644e+00
C     2.671113628187041e+00   6.239968288784240e+00   9.007553590221705e-01 -1.06811510e-01  -7.04689750e-01  -1.02608020e+00
C     9.162502986492466e-01   6.204400514278582e+00   2.641859412484014e+00 -6.92792150e-01   3.31627320e-01   7.59958010e-01
C     2.670658191549777e+00   4.461384366216185e+00   2.665649312634820e+00  4.19963800e-02  -7.38692160e-01  -5.88601500e-02
C     3.527962606464936e+00   3.571512641983270e+00   1.689259768262040e-02  1.05063559e+00  -1.05510250e-01  -3.92009510e-01
C     5.339607589385932e+00   5.336007955255391e+00   7.098589112484397e+00 -2.99912360e-01   1.47452810e-01   1.57357810e-01
C     3.535628969176379e+00   5.361266597687941e+00   1.783778260229168e+00  6.02725700e-01  -5.61721660e-01  -3.45990980e-01
C     5.323804286385601e+00   3.562498238006170e+00   1.783935072032165e+00  6.62396300e-02   1.48543540e-01  -4.42943470e-01
C     4.418889718204241e+00   4.488537332192740e+00   8.810850030323327e-01  3.95309510e-01  -1.22571719e+00   5.79633040e-01
C     6.234189283362633e+00   6.213219294465180e+00   9.137030664875957e-01 -2.86495000e-01   4.42856300e-02  -1.17155526e+00
C     4.446699218093980e+00   6.205955908232064e+00   2.659743919459029e+00 -3.82375340e-01   5.31571030e-01   4.64775930e-01
C     6.221297092677870e+00   4.468827453373135e+00   2.678780559572294e+00 -2.55646580e-01  -1.29307786e+00  -2.69898410e-01
C     1.096196960652820e-02   7.102869662417707e+00   3.523882016459924e+00 -1.22302990e-01  -2.26316070e-01   9.15158400e-01
C     1.775026796804781e+00   1.768793421009303e+00   3.542368109241270e+00  7.69348500e-02   3.88751810e-01   9.02896770e-01
C     7.092551573732099e+00   1.790152951466331e+00   5.333621373444951e+00  3.42233280e-01  -6.38755080e-01  -1.51544410e-01
C     1.795377926428936e+00   1.541816866278000e-03   5.356947662272482e+00 -6.73470120e-01  -1.73630150e-01  -7.00449250e-01
C     9.023701793887560e-01   8.784338457319776e-01   4.459962752776411e+00 -5.95527230e-01   4.43303470e-01  -7.54157660e-01
C     2.651458270968931e+00   2.687118170631744e+00   4.451698713891078e+00  5.22358630e-01  -8.21952460e-01  -3.62998950e-01
C     8.670276707959256e-01   2.670442095502129e+00   6.215232755172296e+00  6.03496250e-01  -2.04577900e-01  -1.18680480e-01
C     2.681399871139312e+00   8.658032449996306e-01   6.234123956958754e+00 -1.39967770e-01   1.19332898e+00  -6.41936700e-01
C     3.547159896929412e+00   3.659629217454600e-03   3.542467271736820e+00  4.05980650e-01  -4.69532000e-01   2.46588480e-01
C     5.345603046276318e+00   1.794326732891890e+00   3.539484506521241e+00 -6.03197010e-01  -1.05750797e+00   4.08240400e-01
C     3.567167760825248e+00   1.762885468801368e+00   5.338693801658131e+00 -3.94943650e-01   8.82193480e-01  -1.51806050e-01
C     5.331093120771696e+00   1.578567411223400e-02   5.321750236585325e+00  3.22333480e-01  -6.55685300e-01  -5.31578590e-01
C     4.446543259301697e+00   8.730325108041705e-01   4.417670979146043e+00  4.36881400e-02   1.16742137e+00   5.66414350e-01
C     6.203290960591826e+00   2.671595223819546e+00   4.446566859264795e+00  7.70935770e-01   2.40894210e-01  -3.72253600e-01
C     4.449501216122330e+00   2.683009146936253e+00   6.264802060796794e+00 -5.82744080e-01  -8.81874660e-01  -1.50800557e+00
C     6.200524007086991e+00   8.966434919576315e-01   6.227395763864698e+00  5.33478560e-01  -2.27955360e-01  -4.43415580e-01
C     4.045261144589600e-03   3.582670519717206e+00   3.547381324294025e+00  2.13344300e-02  -8.96386910e-01   4.09981400e-01
C     1.777607154215841e+00   5.314893878631430e+00   3.565340114285419e+00  6.45306640e-01   1.24975625e+00  -6.69943750e-01
C     1.142423032950680e-02   5.316152140519397e+00   5.317311950754076e+00 -3.42683870e-01   6.27121490e-01   4.41243500e-01
C     1.747279069107611e+00   3.577063324870323e+00   5.334607809251929e+00  1.16400903e+00  -7.73024950e-01  -1.02475230e-01
C     9.174953388711395e-01   4.456019142075288e+00   4.426232221181118e+00 -1.53722221e+00  -4.49969370e-01   6.90782100e-01
C     2.661382481957165e+00   6.227365055478980e+00   4.456505144929817e+00  2.34771500e-01  -4.07743720e-01  -4.58653110e-01
C     8.931927792809788e-01   6.226999469303633e+00   6.218401476723613e+00 -6.87646050e-01  -3.99389200e-01   3.50330690e-01
C     2.663545290623526e+00   4.447260499144055e+00   6.229793932404007e+00 -5.86277980e-01   1.29083840e-01  -2.37109590e-01
C     3.556366725906837e+00   3.573237145310882e+00   3.540039887580542e+00  1.00039860e-01  -7.13544810e-01   1.07778385e+00
C     5.320627390148270e+00   5.302624385768179e+00   3.564290200264445e+00  3.32233850e-01   1.47545865e+00   1.41538400e-02
C     3.547701132227699e+00   5.332108630027189e+00   5.340520595187245e+00  3.54813750e-01   3.13199210e-01  -1.86235530e-01
C     5.327506352886097e+00   3.555813974963905e+00   5.336753060114419e+00 -3.68665340e-01  -4.68122530e-01   4.80196840e-01
C     4.446108934679615e+00   4.447666247907204e+00   4.475181316932021e+00 -4.89555300e-01  -3.51755250e-01  -1.13998008e+00
C     6.227250965295929e+00   6.211338690176833e+00   4.429321612735997e+00 -4.64246400e-02   1.27250990e-01   2.05264260e-01
C     4.448513714051961e+00   6.244362289142567e+00   6.190236271365970e+00  5.71729300e-02  -9.05703160e-01   9.78626960e-01
C     6.205525422158197e+00   4.403304004020308e+00   6.226377695577062e+00  9.22245220e-01   1.61167315e+00  -3.83872710e-01
