64
Lattice="7.10842262195238 0 0 0 7.10842262195238 0 0 0 7.10842262195238 " PBC="1 1 1" Properties=species:S:1:pos:R:3:force:R:3 Energy="-512.94165998"
C     4.748284141707600e-02   1.762689773926640e-02   7.067895583369273e+00 -1.15517914e+00  -3.74234410e-01   1.12955368e+00
C     1.814247163189500e+00   1.785439143174331e+00   2.344734526474860e-02 -1.14074526e+00  -3.40827140e-01  -9.18975380e-01
C     7.079674097482160e+00   1.776815631357104e+00   1.736008238538244e+00  1.43303429e+00   1.18401450e-01   5.95366550e-01
C     1.745411615401111e+00   4.079090127838180e-02   1.796973340801769e+00  5.50048820e-01  -2.47420187e+00  -5.11764480e-01
C     9.132757081196814e-01   8.947567744258311e-01   8.667267712664209e-01 -1.06775049e+00   4.74259390e-01   4.31760570e-01
C     2.663274601890157e+00   2.659328076735759e+00   9.102675658353497e-01  3.22840520e-01   1.86067330e-01  -2.24184640e-01
C     9.021609074268232e-01   2.685168898980888e+00   2.626531805125413e+00 -1.16958511e+00  -1.08113847e+00   1.23786349e+00
C     2.664225851005165e+00   8.159823012143842e-01   2.669454806684437e+00  7.58380460e-01   2.92175375e+00  -1.10617080e-01
C     3.518682845071430e+00   7.076803289922847e+00   3.647018875726720e-02  1.19079363e+00   1.02849384e+00  -1.05309067e+00
C     5.295552287187768e+00   1.727658472076113e+00   7.067924656817788e+00  1.43433560e-01   2.12164399e+00   8.85777520e-01
C     3.553112845452532e+00   1.706534585828938e+00   1.777074377940472e+00 -4.20004000e-02   2.19894294e+00  -3.02410580e-01
C     5.365006978586359e+00   4.892656205119800e-02   1.783544108788065e+00 -9.17156950e-01  -1.93797787e+00  -4.88382770e-01
C     4.450974578878778e+00   8.665666895890186e-01   8.867897965217876e-01 -7.44106360e-01   1.43072730e-01  -3.13193560e-01
C     6.183357308628143e+00   2.622561182418333e+00   8.594887621020584e-01  4.30993320e-01   1.18291724e+00  -1.25781200e-01
C     4.407692246556313e+00   2.668179840003314e+00   2.628303152958090e+00  7.96610650e-01  -7.78639700e-01   1.31867298e+00
C     6.225931926394562e+00   8.988807258088242e-01   2.663723214441705e+00  4.64392380e-01   7.99005200e-02  -5.85094200e-02
C     7.092184708040682e+00   3.537104606628065e+00   7.077203636284805e+00  8.70697920e-01   2.66792470e-01   1.97433307e+00
C     1.815719459682554e+00   5.371457445608652e+00   4.652995736486500e-02 -1.78585014e+00  -6.25655770e-01  -1.52290556e+00
C     7.095220715341683e+00   5.267085755795264e+00   1.803162288955872e+00  3.29744280e-01   2.72676575e+00  -7.24234880e-01
C     1.786182044422347e+00   3.577471063991807e+00   1.821631108270251e+00 -5.66154830e-01  -2.81916320e-01  -2.55548653e+00
C     8.905731122928302e-01   4.488957439969582e+00   9.017857248809396e-01  7.44638100e-02  -1.93173548e+00  -4.09476780e-01
C     2.645923866369678e+00   6.236895957443650e+00   9.123880083028958e-01  1.12207948e+00  -3.91576070e-01   1.00398177e+00
C     8.789585894897860e-01   6.229291935598584e+00   2.686042808457791e+00 -6.87677690e-01  -7.07313480e-01  -8.40770890e-01
C     2.644209457002186e+00   4.458455838265198e+00   2.661115845024689e+00  1.44217207e+00  -4.97571690e-01   8.69871880e-01
C     3.499805078203722e+00   3.581136522115810e+00   7.090522403410994e+00  2.38786320e+00  -7.35843640e-01   1.79601645e+00
C     5.349617599035190e+00   5.393531514707442e+00   2.684709055121600e-03 -8.29545360e-01  -2.05590238e+00   7.00827140e-01
C     3.608272356793850e+00   5.313367202705333e+00   1.820120852800406e+00 -1.95636888e+00   1.58148689e+00  -7.34087210e-01
C     5.320273603954473e+00   3.549959833515204e+00   1.765295010816870e+00  1.96207600e-02  -9.62234010e-01  -1.20343080e-01
C     4.467581702308980e+00   4.475138595312075e+00   9.395047924083145e-01 -6.87042800e-01  -6.49021280e-01  -2.45602103e+00
C     6.207891816048395e+00   6.240263075070292e+00   8.985666046132464e-01  1.74534510e+00  -1.23466570e-01  -2.81295450e-01
C     4.479763263984421e+00   6.234062824524223e+00   2.670120581547026e+00  1.94580760e-01  -3.20588030e-01  -9.78198000e-02
C     6.232601972591587e+00   4.374227072377424e+00   2.666315087497409e+00 -4.32801150e-01   1.25271826e+00   4.27880920e-01
C     1.425494638524320e-02   1.463816144868740e-02   3.568957661640964e+00 -7.31959440e-01  -4.48743340e-01  -6.33344870e-01
C     1.811729715318627e+00   1.813074771046784e+00   3.500319372580279e+00 -8.59380930e-01  -1.18220849e+00   1.40425320e+00
C     4.195888619907401e-03   1.803320380274941e+00   5.355955752980087e+00  5.38289850e-01  -4.39391910e-01  -1.31523485e+00
C     1.784473535045630e+00   7.096323587111177e+00   5.292078543221826e+00 -3.39758960e-01   5.32497630e-01  -2.58136610e-01
C     9.003783993706319e-01   9.117155515230438e-01   4.382592477369319e+00 -2.58768100e-02   3.26598060e-01   2.13155638e+00
C     2.686790401264736e+00   2.678362726490690e+00   4.450092423631636e+00 -8.83870160e-01   2.64086200e-02  -7.20116000e-02
C     9.391666447442811e-01   2.681749960953347e+00   6.243870101960358e+00 -1.37925523e+00  -7.34780000e-03  -6.07734640e-01
C     2.656162411806168e+00   8.507380806041598e-01   6.201886051945210e+00 -2.85198000e-03   8.25511700e-01   1.22986135e+00
C     3.573063770883180e+00   7.074716185957389e+00   3.547782310414020e+00 -4.35646180e-01   2.86718790e-01   5.56319180e-01
C     5.325665271427517e+00   1.756061027665038e+00   3.520533238563643e+00 -6.34648380e-01   1.03117878e+00   1.89855565e+00
C     3.506872200888300e+00   1.744212637757795e+00   5.355979068606280e+00  1.85264989e+00   1.08351316e+00  -1.52745333e+00
C     5.351169012272005e+00   7.103175040253463e+00   5.355832990521439e+00 -8.39190140e-01   1.47610850e-01  -1.02809936e+00
C     4.450121568164379e+00   8.754586865286027e-01   4.467604662514042e+00 -5.98106600e-01  -1.33896890e-01  -1.09205028e+00
C     6.183635105784133e+00   2.649263545485006e+00   4.476964606914701e+00  4.28238080e-01   2.46848280e-01  -7.05762380e-01
C     4.396146746536909e+00   2.679149344537819e+00   6.197288039857689e+00 -1.26287900e-02  -6.27026240e-01   1.14138204e+00
C     6.219543444817516e+00   9.167976471909866e-01   6.200812253624232e+00  8.78456980e-01  -1.50585082e+00   4.25910380e-01
C     7.066896139148900e+00   3.488525717527211e+00   3.587196949988943e+00  1.54902206e+00   1.10222216e+00  -1.04012503e+00
C     1.751679182709391e+00   5.304045999207953e+00   3.525310880490771e+00  2.45062150e-01   1.03695411e+00   8.88324940e-01
C     7.105161915459980e+00   5.275192272035337e+00   5.325567743869170e+00  2.93731460e-01   1.56288100e+00   1.06474840e-01
C     1.796141655355229e+00   3.613355305472508e+00   5.369396216301531e+00 -5.02127340e-01  -1.94286567e+00  -1.51154858e+00
C     8.727795931273510e-01   4.409353058417250e+00   4.426378299265959e+00  7.09924300e-02   2.90841920e-01   7.40393080e-01
C     2.646158799737268e+00   6.204444373246147e+00   4.393555442155014e+00  9.27836990e-01  -2.91085030e-01   1.52777002e+00
C     9.234590211124147e-01   6.232576808775512e+00   6.195323911603557e+00 -1.03550775e+00  -8.80782100e-01   2.28774420e-01
C     2.669867521701754e+00   4.482905471119366e+00   6.234437580564750e+00 -4.52416100e-02   1.79823230e-01   7.46136600e-02
C     3.547421344713376e+00   3.574561942034571e+00   3.559571416076611e+00  4.17374130e-01  -4.53140840e-01  -1.71110320e-01
C     5.395295967370179e+00   5.356132041861063e+00   3.528680486065329e+00 -2.05279111e+00  -1.46763413e+00   4.97196810e-01
C     3.561924232879604e+00   5.354102160697695e+00   5.335865644634538e+00 -3.08179150e-01  -1.07850310e-01  -6.09485270e-01
C     5.292504764242121e+00   3.581627429781947e+00   5.356747560175728e+00  3.22441800e-01  -1.07955353e+00  -1.08938639e+00
C     4.450697919070408e+00   4.472357993635810e+00   4.429328223569033e+00  9.01797100e-02  -8.13816800e-02   3.45628510e-01
C     6.212719216933863e+00   6.195385044038088e+00   4.436102123820536e+00  1.45872148e+00   9.80479380e-01   1.05846345e+00
C     4.424035363170407e+00   6.240586366131049e+00   6.242292387559849e+00  7.05928560e-01  -4.48878510e-01  -3.99347830e-01
C     6.212991540604436e+00   4.415187936040650e+00   6.241606566945472e+00 -1.91796340e-01   1.41939602e+00  -7.17663100e-01
