64
Lattice="7.10842262195238 0 0 0 7.10842262195238 0 0 0 7.10842262195238 " PBC="1 1 1" Properties=species:S:1:pos:R:3:force:R:3 Energy="-512.34650095"
C     7.089288096907258e+00   4.945827206317400e-03   4.504806450127360e-02 -1.44975790e-01  -5.10850600e-02  -1.52514393e+00
C     1.752829823078890e+00   1.793220022574183e+00   3.634607569832199e-03  2.95913320e-01  -8.12510370e-01   5.09667000e-03
C     7.104123374915198e+00   1.785559346600835e+00   1.791596672100453e+00 -2.11370810e-01  -4.37289430e-01   6.98415490e-01
C     1.769570300517443e+00   7.059055975504397e+00   1.806786447144453e+00  4.81562060e-01   2.99552455e+00  -5.89712910e-01
C     8.755034695911087e-01   9.289970510072044e-01   9.140256467060914e-01  2.04364200e-01  -2.17593133e+00   8.25095200e-02
C     2.642506207858208e+00   2.656935452766093e+00   8.591717264532064e-01  7.58051230e-01   5.61911550e-01   8.51775620e-01
C     8.552177374550576e-01   2.661134255839275e+00   2.705479368427656e+00  1.21107555e+00   1.04778315e+00  -2.02476359e+00
C     2.667729308177658e+00   9.378540034232719e-01   2.663407671561603e+00 -6.61145820e-01  -2.29408091e+00   5.98999890e-01
C     3.537835423557627e+00   7.106532063919984e+00   1.435581490222100e-02  8.73438910e-01   4.90454690e-01  -4.98135810e-01
C     5.375345184107982e+00   1.818383127806721e+00   3.991876890713400e-03 -1.75647930e+00  -1.64979874e+00  -4.04185780e-01
C     3.570414959362290e+00   1.785416467306173e+00   1.751619471959383e+00 -1.08786358e+00   6.00701880e-01   1.38171417e+00
C     5.273354744788068e+00   4.042439100809460e-02   1.746516477528937e+00  1.43170544e+00  -1.10184938e+00   1.23520513e+00
C     4.417777036811533e+00   9.480061104407035e-01   8.712709725947083e-01  9.97872760e-01  -1.92789329e+00  -3.92595110e-01
C     6.259781026479157e+00   2.618050888265943e+00   8.908307215285790e-01 -9.89263100e-01   3.08420018e+00  -1.31851280e-01
C     4.500688754156273e+00   2.637014809215805e+00   2.675743272755220e+00 -1.12528100e+00   1.76176161e+00  -2.47175300e-02
C     6.164605005419679e+00   9.175913025765096e-01   2.649649603917498e+00  1.88559684e+00  -1.37296031e+00   1.18046446e+00
C     7.092679312086581e+00   3.547479491610408e+00   7.094837926783597e+00  7.24472290e-01   4.57731900e-01   6.69322420e-01
C     1.756015462676043e+00   5.315208213079687e+00   7.104806138907849e+00  1.41635932e+00   7.09870870e-01  -9.04551840e-01
C     7.104738537808732e+00   5.363719145660293e+00   1.782158108545618e+00  9.85889000e-03  -1.40587462e+00   3.82066570e-01
C     1.756125145637070e+00   3.574765882679539e+00   1.739099762619908e+00  1.00410695e+00  -9.36385520e-01   1.78242999e+00
C     8.863121816059498e-01   4.452495923487911e+00   8.885629925443466e-01 -6.84912050e-01   8.03001200e-02  -4.17681410e-01
C     2.692686269154216e+00   6.264296651948512e+00   8.870742045108139e-01 -1.96239518e+00  -2.48628497e+00   2.77221270e-01
C     8.826961981033820e-01   6.185491470351346e+00   2.689610739023447e+00 -7.97925400e-02   1.71479766e+00  -3.40390630e-01
C     2.686299351430146e+00   4.457590316726986e+00   2.656449592080016e+00 -1.05327959e+00  -3.23566900e-01  -3.62313050e-01
C     3.573385711343640e+00   3.487317498934490e+00   7.077290501209221e+00 -1.08634546e+00   2.29179726e+00   8.30562330e-01
C     5.312398395786453e+00   5.320005261000568e+00   3.280110533772800e-03  6.38796720e-01   8.64064200e-02  -1.15709529e+00
C     3.531769166777945e+00   5.328072965253137e+00   1.732326715379120e+00  7.40792950e-01   4.49300820e-01   1.48674494e+00
C     5.366813797447910e+00   3.550502063992658e+00   1.772349764846089e+00 -2.91780180e-01   1.46248530e-01   4.55422270e-01
C     4.403283460678937e+00   4.452479218694754e+00   8.766256051859020e-01  1.60268336e+00  -1.60513107e+00  -3.51531860e-01
C     6.211785667791179e+00   6.190182318438285e+00   9.015947926493665e-01 -7.44942000e-01   2.01292847e+00  -3.60024580e-01
C     4.452251749170914e+00   6.202934046692076e+00   2.653934703241287e+00 -1.46218874e+00   8.95806660e-01  -3.77101640e-01
C     6.250587348083580e+00   4.487616862547676e+00   2.691625550330860e+00 -9.57722290e-01  -1.55891963e+00  -1.05818855e+00
C     7.098171848076603e+00   7.077857255744714e+00   3.568615817597168e+00 -1.53186870e-01   1.42205025e+00  -3.70045190e-01
C     1.729296252647761e+00   1.805868963036890e+00   3.573426513689479e+00  2.17768244e+00  -1.17637335e+00  -3.60894860e-01
C     1.232017591653160e-02   1.765026170273382e+00   5.336162492363149e+00 -6.04630520e-01   1.56400780e-01   7.58810740e-01
C     1.776053892789145e+00   7.106395440037228e+00   5.350758287613021e+00  6.49171850e-01  -2.71762120e-01   2.25058620e-01
C     9.057659439585561e-01   8.851640291843674e-01   4.488587588740663e+00 -6.37930820e-01  -1.20902740e-01  -1.59694629e+00
C     2.642147303600124e+00   2.668637409167363e+00   4.446372017400781e+00  1.36827789e+00  -5.35898190e-01  -4.52540950e-01
C     8.476403011105900e-01   2.699992661344183e+00   6.218099653099167e+00  1.46865350e+00  -2.11172572e+00  -5.68357900e-02
C     2.667020314105540e+00   8.369672888835648e-01   6.280621357748021e+00 -6.07309080e-01   2.33504090e+00  -2.41553235e+00
C     3.533535467630563e+00   7.069879757375193e+00   3.565740176310473e+00  9.12818130e-01   1.97446863e+00  -9.61464360e-01
C     5.366996483909245e+00   1.792883509847352e+00   3.629983469833664e+00 -4.95446090e-01  -8.08565470e-01  -3.30338011e+00
C     3.605929136361393e+00   1.766967551575130e+00   5.342811710881897e+00 -2.41792069e+00  -3.61157200e-01   3.07400000e-03
C     5.284472602102652e+00   2.146601462787600e-02   5.350899460886255e+00  2.33569728e+00  -1.16804610e+00  -2.52316310e-01
C     4.469920373350959e+00   8.828871303349551e-01   4.441860159395415e+00 -1.18166569e+00   5.13300200e-02   6.48141620e-01
C     6.278085143641430e+00   2.670457236442310e+00   4.441374014372433e+00 -1.31326082e+00   1.74217850e-01   3.08982370e-01
C     4.447827466932226e+00   2.674350093005927e+00   6.222157211814889e+00  1.74986283e+00  -9.46114730e-01  -8.51364300e-01
C     6.195058767439830e+00   8.749346536130563e-01   6.236374270307569e+00  5.60346180e-01   7.63364050e-01   3.28516600e-02
C     5.811853442534620e-02   3.596099183057100e+00   3.551353510854081e+00 -2.50788351e+00  -1.12858175e+00   1.35697900e-02
C     1.744412526601870e+00   5.356417302860803e+00   3.593366492149294e+00  1.88847457e+00  -2.07909877e+00  -1.62633052e+00
C     3.560942986221140e-02   5.326711204731824e+00   5.284300009601439e+00 -1.61601496e+00  -8.10674600e-02   2.12820173e+00
C     1.742012794209584e+00   3.512375470596478e+00   5.308277145604055e+00  1.64861116e+00   1.34894510e+00   7.76447590e-01
C     8.984609734531132e-01   4.424991232760118e+00   4.433650855364255e+00  8.21208520e-01   1.10362211e+00   4.86309570e-01
C     2.667798330961298e+00   6.184214015722306e+00   4.437907094492207e+00 -7.50883500e-01   1.51344392e+00   5.27344040e-01
C     8.516546406167826e-01   6.250014977894217e+00   6.202517564210770e+00  1.45482552e+00  -1.51326910e+00   9.67381770e-01
C     2.710068494986902e+00   4.352491222026893e+00   6.179826910533921e+00 -1.87999459e+00   2.64091336e+00   3.79908300e-01
C     3.611461408433861e+00   3.576565522034245e+00   3.527583087781254e+00 -2.06424579e+00  -7.44415740e-01   5.69381730e-01
C     5.298060707361913e+00   5.327419487961680e+00   3.554147049859515e+00  2.35152672e+00   8.73885640e-01  -1.46240870e-01
C     3.582222689092146e+00   5.321667352377577e+00   5.266925247612503e+00 -1.46488486e+00  -3.80426400e-01   2.73870876e+00
C     5.338010966581254e+00   3.534807519858412e+00   5.296297178794117e+00  6.69071900e-01   1.30940349e+00   1.16635229e+00
C     4.452051718158387e+00   4.478773842639944e+00   4.443179838054817e+00  7.38861800e-01  -2.17771175e+00  -1.35910797e+00
C     6.233602127654221e+00   6.207531561190013e+00   4.462906706004484e+00 -1.42753534e+00   4.82553690e-01  -8.38634090e-01
C     4.422270270749635e+00   6.229205710432203e+00   6.187278456713789e+00  1.55116690e-01  -5.77012840e-01   1.39881471e+00
C     6.255490951259534e+00   4.419647262802855e+00   6.192984245382410e+00 -1.81329198e+00   8.05215900e-01   4.63607920e-01
