64
Lattice="7.10842262195238 0 0 0 7.10842262195238 0 0 0 7.10842262195238 " PBC="1 1 1" Properties=species:S:1:pos:R:3:force:R:3 Energy="-512.44428297"
C     7.098646335286487e+00   7.104650180115565e+00   5.540020253123200e-03  6.74769930e-01  -2.16295540e-01  -1.40481616e+00
C     1.771176235355753e+00   1.786628240110204e+00   2.995354232038220e-02 -1.20946301e+00  -1.86791290e+00  -1.17017033e+00
C     7.097809247438756e+00   1.733855808168908e+00   1.747686026302606e+00  3.76710690e-01   1.62087201e+00   1.23028729e+00
C     1.770314268028852e+00   1.672121361325220e-02   1.774467648281492e+00  1.72780332e+00  -1.52329077e+00  -5.21329130e-01
C     8.835388305207568e-01   8.499752757728075e-01   8.885134468386852e-01 -3.88454810e-01   1.10963784e+00   8.44161600e-02
C     2.655480856245362e+00   2.617121888513735e+00   8.887503705646098e-01  1.18299965e+00   2.18268662e+00  -4.50308990e-01
C     9.589335331132987e-01   2.673197675530772e+00   2.661614500871482e+00 -2.04475336e+00  -1.52575783e+00  -9.69765300e-02
C     2.717878021329913e+00   8.969384204121353e-01   2.626333409050088e+00 -1.07835869e+00  -1.11924843e+00   1.39015082e+00
C     3.534590855136954e+00   1.865875636678560e-02   7.069042811695914e+00  1.09165913e+00  -3.89346380e-01   6.87965320e-01
C     5.347687022535824e+00   1.751491164931092e+00   7.097264102508029e+00 -1.21987818e+00   1.22665137e+00   5.93012920e-01
C     3.570593878359635e+00   1.768520955170279e+00   1.758727681326704e+00 -3.41178700e-01   4.01050430e-01   4.80268720e-01
C     5.369249143037523e+00   7.059377702712179e+00   1.795340109620598e+00 -1.18430566e+00   9.98504530e-01  -1.54681079e+00
C     4.452537507760238e+00   8.791127000921876e-01   9.221306701774155e-01  1.27941670e-01  -5.29285730e-01  -2.05858825e+00
C     6.160479845604840e+00   2.648999823005804e+00   9.513784172158577e-01  1.67637432e+00   6.07663590e-01  -2.45813357e+00
C     4.370745793483506e+00   2.688756733129881e+00   2.670949779045649e+00  1.85527955e+00  -2.80463220e-01   1.49622600e-01
C     6.201739547355011e+00   8.670192828572340e-01   2.627025769413276e+00  1.49044035e+00   4.75350900e-02   1.16906433e+00
C     7.073126387238426e+00   3.587159986191319e+00   2.521563647569980e-02  3.05804280e-01  -1.56976027e+00   4.94133630e-01
C     1.746967435859950e+00   5.330564893886804e+00   1.244642150226280e-02  4.36580750e-01   4.46232370e-01  -1.16064058e+00
C     2.275725959679900e-02   5.289528538775353e+00   1.769981736018688e+00  5.44353210e-01   1.63609085e+00   1.15460869e+00
C     1.830837084236961e+00   3.552234955258962e+00   1.780607690487969e+00 -1.59384446e+00  -3.21284860e-01   3.87325400e-02
C     9.271404021030867e-01   4.458612081394385e+00   9.329247388416592e-01 -1.25176512e+00  -1.37667704e+00  -1.58621609e+00
C     2.651983796653227e+00   6.212953012953835e+00   7.728795276472998e-01  6.16292780e-01   9.17445730e-01   4.26451869e+00
C     9.780392670944297e-01   6.205728936297808e+00   2.717625814495356e+00 -2.62576053e+00   3.81703240e-01  -2.54623170e+00
C     2.633455550925745e+00   4.450515943451337e+00   2.674239414865733e+00  1.88113727e+00   6.62874060e-01   5.40262300e-02
C     3.557003000815552e+00   3.567403760456231e+00   7.090374974725856e+00 -1.53792770e-01  -2.13845610e-01   1.10702813e+00
C     5.345465569382847e+00   5.312930319051108e+00   5.481489501270120e-02 -1.02421515e+00   7.30410680e-01  -1.65053240e+00
C     3.559628781047154e+00   5.323707327501063e+00   1.763045408310319e+00 -1.05907803e+00   1.11232406e+00   1.75985580e-01
C     5.285446384917366e+00   3.564876218625238e+00   1.792901778493486e+00  6.22775690e-01  -8.13607310e-01   6.26931990e-01
C     4.429833134827732e+00   4.452759930304017e+00   9.315689493953465e-01  2.52515790e-01  -9.30944020e-01  -1.57291035e+00
C     6.254242570079009e+00   6.187218674879554e+00   8.611877461924646e-01 -2.99376730e-01   5.03898110e-01   1.82340306e+00
C     4.468380760095694e+00   6.215627414796158e+00   2.649461515054973e+00 -8.70348970e-01  -5.07798490e-01   8.24208940e-01
C     6.225517576440042e+00   4.443552959158142e+00   2.648894049677218e+00 -2.92067390e-01  -6.07039760e-01   6.36776500e-01
C     7.151172673636680e-02   7.107048846244459e+00   3.494836575129248e+00 -1.89652543e+00   1.52143240e-01   1.75797426e+00
C     1.856959826523199e+00   1.744522422815575e+00   3.562577639086835e+00 -1.87798839e+00   2.42544068e+00  -1.04852886e+00
C     7.084057506290783e+00   1.799611916194087e+00   5.288319609340370e+00  1.09600340e-01  -7.09215410e-01   2.92207460e-01
C     1.761184352184176e+00   3.628821313819520e-02   5.275518832970501e+00 -3.32200160e-01  -3.78527630e-01   1.85954051e+00
C     8.971388068457932e-01   9.152332255407769e-01   4.392688356763826e+00  9.39274000e-02  -2.47471520e-01   6.15095540e-01
C     2.658520062336544e+00   2.707448756914527e+00   4.447313812313705e+00  1.07580949e+00  -1.69488348e+00   1.06091867e+00
C     8.257086137168778e-01   2.626787850508185e+00   6.263709993829683e+00  1.39159699e+00   1.68647118e+00  -2.82487000e-01
C     2.643495415950007e+00   8.993628190309125e-01   6.181381664729367e+00  6.03824150e-01   7.63752380e-01   7.83239910e-01
C     3.552312081644388e+00   7.085855723960964e+00   3.560684381806224e+00  1.07900187e+00   8.70355130e-01  -9.40534750e-01
C     5.295123151714198e+00   1.766123852894362e+00   3.532852845806365e+00 -1.32725430e-01  -1.68262830e-01  -2.09391060e-01
C     3.574597128726540e+00   1.782196991617349e+00   5.327379894047686e+00 -1.00212519e+00   5.08090490e-01  -3.92654010e-01
C     5.350922918680901e+00   1.468500595375320e-02   5.332040247001585e+00  4.43767100e-01  -1.39469936e+00  -6.43557570e-01
C     4.437671734619258e+00   8.684015156356930e-01   4.459573779890645e+00  2.96834620e-01   5.48754040e-01  -8.37346130e-01
C     6.164139616990748e+00   2.672277348054160e+00   4.359544198950458e+00  1.18290508e+00  -1.00283910e-01   2.39473952e+00
C     4.428491633310885e+00   2.691285767729624e+00   6.191059000200009e+00  9.53283180e-01  -9.16115220e-01   9.83486160e-01
C     6.219925806870245e+00   8.857551656094466e-01   6.190654033363347e+00  2.84484050e-01   4.26503250e-01   7.08031000e-01
C     7.093196520916412e+00   3.516403458274101e+00   3.532161480622344e+00  1.28983535e+00   9.49248450e-01   1.48055090e-01
C     1.777335612471757e+00   5.325732374937050e+00   3.596778748259572e+00  6.51515140e-01  -7.73345360e-01   3.73137710e-01
C     7.092076091343048e+00   5.305262463570914e+00   5.351200786921116e+00  7.38349740e-01   7.98974580e-01  -6.51546670e-01
C     1.797117002022919e+00   3.510692196120062e+00   5.445661700665022e+00 -1.50585039e+00   1.05407300e+00  -3.32294649e+00
C     8.899875204373945e-01   4.381070919507508e+00   4.500986668148277e+00 -4.45247050e-01   1.00059993e+00  -4.60969940e-01
C     2.672332011824108e+00   6.265258848034355e+00   4.467214410112204e+00 -6.48110360e-01  -1.17114896e+00  -7.67159560e-01
C     8.738137264501086e-01   6.237109849880285e+00   6.204429800979777e+00 -1.75850400e-02  -6.91711030e-01   2.08404800e-02
C     2.649055339786466e+00   4.474093159597352e+00   6.248843438762215e+00  1.88980330e-01  -7.45938340e-01   1.70452700e-01
C     3.537587979366225e+00   3.606132863753682e+00   3.563057528697912e+00 -7.70780270e-01  -6.98781700e-01   4.62231550e-01
C     5.340410770057765e+00   5.342226829868723e+00   3.547677176843470e+00  1.85311140e-01  -2.02553810e-01   2.56214680e-01
C     3.518598468094931e+00   5.419546919812118e+00   5.383660190383501e+00  1.25630212e+00  -2.42021908e+00  -1.04671829e+00
C     5.316980627175758e+00   3.581581580456048e+00   5.318507445270308e+00 -7.14181010e-01  -1.03909380e-01  -2.34975600e-01
C     4.392789296365031e+00   4.494106639147057e+00   4.467937478861110e+00  1.35128285e+00  -9.40424200e-02  -5.58546590e-01
C     6.292086816928722e+00   6.205090102356949e+00   4.405246735922354e+00 -1.78271374e+00   7.31926240e-01   7.12747420e-01
C     4.490040479239966e+00   6.217143499172551e+00   6.237947435317600e+00 -1.34290178e+00   1.09710587e+00   1.13796920e-01
C     6.179974694640190e+00   4.468785940185033e+00   6.236766655236192e+00  1.05126707e+00  -1.28976876e+00  -7.32036500e-02
