64
Lattice="7.10842262195238 0 0 0 7.10842262195238 0 0 0 7.10842262195238 " PBC="1 1 1" Properties=species:S:1:pos:R:3:force:R:3 Energy="-514.43460606"
C     3.794547078782200e-02   7.091057170044697e+00   7.090801053577699e+00 -1.46760836e+00   8.01418430e-01   4.45709000e-01
C     1.781553892622918e+00   1.773598430363518e+00   3.172851544859620e-02 -9.38829300e-02  -2.35617000e-01  -1.16122669e+00
C     3.738817045441400e-03   1.773664325441205e+00   1.751079516177168e+00 -8.25964500e-02  -1.18958970e-01   1.18116013e+00
C     1.746531618469118e+00   5.505899824547199e-03   1.791123819827771e+00  1.45609681e+00  -9.38005600e-01   6.95350430e-01
C     8.886283900324506e-01   8.499865781647734e-01   9.073329246409090e-01  2.30931800e-02   1.41389638e+00  -7.41364950e-01
C     2.674910449961061e+00   2.677188343989640e+00   8.853430903501651e-01 -1.93238160e-01  -4.06191320e-01   2.74908920e-01
C     9.054617745546464e-01   2.656529988339848e+00   2.656019887932637e+00 -4.53172280e-01   6.05139000e-02   8.63430000e-04
C     2.672659425769986e+00   8.756020634128481e-01   2.696373905556794e+00 -3.21982350e-01   9.40427250e-01  -1.84052394e+00
C     3.543069639469638e+00   7.210073063466000e-04   4.416462973806000e-03  2.62853140e-01   3.85929050e-01  -4.95136600e-01
C     5.335356041816910e+00   1.766474084876849e+00   1.174737922181200e-03 -1.55425720e-01   6.71813830e-01  -5.92470380e-01
C     3.573762457742501e+00   1.798865531818987e+00   1.786745813420339e+00 -9.06867200e-01  -7.16350400e-01  -2.13526100e-01
C     5.338678163128368e+00   6.735301516676200e-03   1.747797273116609e+00  2.90004240e-01  -2.70825060e-01   1.19186257e+00
C     4.453071705720131e+00   9.118174863034146e-01   9.003220295792553e-01 -3.48334500e-01  -9.01308100e-01  -5.85468850e-01
C     6.223057067034356e+00   2.669518071645755e+00   8.857359017841464e-01 -3.20746180e-01  -4.36070000e-03  -3.10562740e-01
C     4.424743148810681e+00   2.676633105098792e+00   2.666329730848006e+00  9.48352490e-01  -6.52548540e-01   6.46500310e-01
C     6.225158601097732e+00   8.865584173655067e-01   2.675967472404655e+00 -3.92819030e-01   2.22061110e-01  -7.56465040e-01
C     7.100860964353749e+00   3.578812139003296e+00   7.085046358961452e+00  2.79927760e-01  -7.02309420e-01   1.05467835e+00
C     1.752499850100870e+00   5.324055924546348e+00   1.742416552614400e-02  1.17867802e+00   3.43755150e-01  -4.70365100e-01
C     7.087777628184734e+00   5.319096235915922e+00   1.748108053353555e+00  6.96181960e-01   5.66990060e-01   1.34365034e+00
C     1.787212481365342e+00   3.539544928113511e+00   1.769609467926079e+00 -5.78181970e-01   9.54233480e-01   1.16664720e-01
C     8.784713782034111e-01   4.462806406161317e+00   8.868642217066189e-01  1.92295000e-01  -1.24837290e+00  -3.83644100e-02
C     2.653213411598035e+00   6.210497337275529e+00   8.911941751771396e-01  2.43395480e-01   3.87739000e-01   3.45845210e-01
C     8.807265252796062e-01   6.225937257711527e+00   2.713309580280491e+00 -3.67426090e-01  -2.75258520e-01  -1.96408780e+00
C     2.651597667136509e+00   4.445573030698293e+00   2.654407484429743e+00  4.56446230e-01  -3.51090340e-01   6.95176860e-01
C     3.542025127849855e+00   3.579596837776317e+00   2.834910025082200e-03  7.25341710e-01  -8.58770750e-01   3.32284600e-02
C     5.320656037091429e+00   5.353364875103549e+00   2.335365625461700e-02  2.59240980e-01  -1.38463674e+00  -6.47750670e-01
C     3.572260448042894e+00   5.318824978508743e+00   1.779841757950664e+00 -9.94319240e-01   6.13127930e-01   4.93342320e-01
C     5.313825553795871e+00   3.543777069688780e+00   1.795196306230995e+00  8.77490800e-01   3.63486000e-02  -5.98961630e-01
C     4.450443366456386e+00   4.436090394923212e+00   9.279015719972361e-01 -3.46463920e-01   2.89659270e-01  -1.43582087e+00
C     6.227420856596548e+00   6.206224606607100e+00   8.607286842596650e-01 -1.79635660e-01   1.11838024e+00   6.32568540e-01
C     4.455699405225841e+00   6.221178026598985e+00   2.670984681400714e+00 -5.13356800e-02  -1.79891300e-02  -7.24967180e-01
C     6.225439739212353e+00   4.431530270728257e+00   2.630986440328688e+00 -5.17694580e-01   4.33587000e-03   1.47241372e+00
C     1.069817604310000e-03   1.579740300955700e-02   3.570360295592342e+00  6.14050000e-04  -5.95154900e-02  -8.70712430e-01
C     1.788175175040769e+00   1.789202342109359e+00   3.547421131460697e+00 -1.84803500e-02  -8.20720490e-01   3.47070070e-01
C     1.083202764103460e-02   1.791422018156680e+00   5.324402602317526e+00 -3.00957900e-01  -4.36475570e-01   2.08347650e-01
C     1.754005769432917e+00   7.092195655011515e+00   5.313278916096392e+00  1.27168445e+00   9.48835790e-01   4.43330770e-01
C     8.808852563567108e-01   8.927249739883567e-01   4.434375416881912e+00  3.71764750e-01   3.36795510e-01   4.08888630e-01
C     2.695296837361411e+00   2.659358785121477e+00   4.429489940183638e+00 -1.34614955e+00   4.85149540e-01   9.87896300e-02
C     8.864340199696565e-01   2.652396796007449e+00   6.233318785928588e+00  4.93156480e-01   7.94866920e-01  -4.61121870e-01
C     2.663931277971792e+00   9.064522621625171e-01   6.189137664650049e+00 -4.59110300e-01  -7.37278890e-01   1.17358149e+00
C     3.557768080342143e+00   7.107239707391806e+00   3.528323074575995e+00  7.77227800e-02  -4.59197300e-02   1.14570416e+00
C     5.310264944905512e+00   1.756994861144627e+00   3.567025308035943e+00  6.30071630e-01   6.99788050e-01  -2.27199460e-01
C     3.541344212047085e+00   1.791492960214427e+00   5.309430771511055e+00  5.20332120e-01  -8.72801900e-01   7.58759290e-01
C     5.336280776515546e+00   7.078096880671235e+00   5.313661064896444e+00 -9.94440000e-03   1.38279650e+00   6.75772640e-01
C     4.427626253941126e+00   8.833766163165684e-01   4.457671708165985e+00  4.14795650e-01  -4.08630450e-01  -8.02723240e-01
C     6.213540524083378e+00   2.660827669571674e+00   4.453841618974103e+00 -4.52800000e-03   1.16503660e-01  -3.65866780e-01
C     4.422815771101494e+00   2.658709075294009e+00   6.201943985589563e+00  6.76584270e-01   5.30363810e-01   1.03879664e+00
C     6.233467423045571e+00   9.109081768818642e-01   6.194212509726920e+00 -1.54606980e-01  -1.43697097e+00   7.42837390e-01
C     7.100624822554312e+00   3.531036999248085e+00   3.558209300134167e+00  1.59709790e-01   7.54685160e-01  -6.78487580e-01
C     1.754719455063965e+00   5.324534321388675e+00   3.560158927206154e+00  7.97571640e-01   1.32761250e-01  -2.11625790e-01
C     7.103083554854345e+00   5.351252322985111e+00   5.331808299171494e+00  1.82809090e-01  -6.49162310e-01   2.33097410e-01
C     1.801711602067582e+00   3.545288107085114e+00   5.317045313821600e+00 -8.06365960e-01   3.19945120e-01   8.04563800e-01
C     8.666578195670069e-01   4.443957428405219e+00   4.442124095127295e+00  7.81855910e-01  -4.73240170e-01   3.49499600e-01
C     2.679727899054861e+00   6.235495242766379e+00   4.420119759654407e+00 -7.80777740e-01  -9.45189590e-01   6.98501520e-01
C     9.020515088027014e-01   6.217562043096416e+00   6.245608253459400e+00 -2.36916370e-01  -2.43152930e-01  -1.63161751e+00
C     2.665449352706520e+00   4.454118136614022e+00   6.237617106918449e+00 -3.26374540e-01   3.01459600e-02  -8.21111090e-01
C     3.563510974976841e+00   3.539010659069392e+00   3.564324249608795e+00 -5.25680990e-01   9.91118530e-01  -5.90104780e-01
C     5.343910673018948e+00   5.340946105365278e+00   3.557877123545134e+00 -3.49646000e-03  -6.80447570e-01  -5.09316970e-01
C     3.560276074010932e+00   5.347693135779277e+00   5.331006682352637e+00 -4.21339780e-01  -6.92292530e-01   1.04756170e-01
C     5.334485615467091e+00   3.551506484108863e+00   5.350881760913931e+00 -3.68497470e-01   1.58686860e-01  -4.42405690e-01
C     4.432020965141715e+00   4.424089102845414e+00   4.454711263397434e+00  8.82440120e-01   9.24391950e-01  -1.99488620e-01
C     6.247400357886129e+00   6.237679163447922e+00   4.415602001658265e+00 -1.14541898e+00  -7.36354920e-01   1.27033853e+00
C     4.448762011254077e+00   6.201397987648120e+00   6.223453930269230e+00 -1.80180890e-01   9.33676110e-01   9.19547700e-02
C     6.212936094908000e+00   4.459394007882585e+00   6.238152300057509e+00 -2.96901790e-01  -1.90865100e-02  -8.21594630e-01
