64
Lattice="7.10842262195238 0 0 0 7.10842262195238 0 0 0 7.10842262195238 " PBC="1 1 1" Properties=species:S:1:pos:R:3:force:R:3 Energy="-512.30202638"
C     7.082145838195586e+00   7.089304730616188e+00   7.067291012025441e+00  5.16084310e-01   8.53753340e-01   5.87538760e-01
C     1.784244217331909e+00   1.799077433897289e+00   7.052920767025302e+00 -2.28635869e+00  -8.60252490e-01   1.24494485e+00
C     7.076980787235668e+00   1.730729879321763e+00   1.796512288510636e+00  1.59366505e+00   1.47574517e+00  -1.15622805e+00
C     1.782908118216254e+00   1.237491077070560e-02   1.756001672336160e+00 -4.22077860e-01  -6.93039910e-01  -1.48238383e+00
C     8.369639479249334e-01   8.918334356233562e-01   8.104777519901347e-01  1.65094427e+00  -1.81472860e-01   2.30388372e+00
C     2.617236334117917e+00   2.611587981504065e+00   8.754344468074685e-01  4.93161830e-01   2.27592193e+00   1.75739600e-01
C     8.748616501127490e-01   2.615745982231408e+00   2.734973422309882e+00  1.55958880e-01   1.83777980e-01  -1.30563351e+00
C     2.669321879181443e+00   8.697454340162302e-01   2.627607664888949e+00 -3.26805570e-01   1.29881150e-01   1.55880146e+00
C     3.575416800938853e+00   7.106011300878843e+00   7.055143641862802e+00  2.64157560e-01   1.32888479e+00   1.47420151e+00
C     5.357112933098397e+00   1.811846293449595e+00   1.420191755249800e-03 -9.89010340e-01  -7.47187410e-01   5.92097730e-01
C     3.505735493027136e+00   1.789051145960231e+00   1.740354257043885e+00  1.79895939e+00  -9.36258410e-01   1.19264959e+00
C     5.333289054687467e+00   8.744781507124000e-04   1.789032237556062e+00  7.11752900e-02  -7.68107000e-02  -8.90194320e-01
C     4.463429459403959e+00   9.281151800969671e-01   9.204948088798747e-01 -8.26850020e-01  -1.36295560e+00  -2.16623675e+00
C     6.224718731906006e+00   2.636913656361922e+00   9.382153956292728e-01 -3.38992930e-01   1.97588193e+00  -8.55479100e-01
C     4.422450540347278e+00   2.656606830388371e+00   2.646725980778118e+00 -4.06385690e-01   1.43609505e+00   5.20578990e-01
C     6.220139272801524e+00   8.808538371287303e-01   2.639136744452101e+00  2.28639170e-01  -5.79316430e-01   1.66264877e+00
C     7.047518365834102e+00   3.566831816772227e+00   1.287264252255800e-03  2.09346473e+00  -1.11913614e+00   1.53518451e+00
C     1.827260125974577e+00   5.291316093811605e+00   7.093346224296790e+00 -1.63647918e+00   2.08324894e+00   9.28749760e-01
C     1.645144897482320e-02   5.333702907052403e+00   1.754911382474705e+00 -4.03279400e-02   2.62292750e-01   1.19111984e+00
C     1.750291121024384e+00   3.511249709706149e+00   1.827828017857688e+00 -8.93218170e-01   7.89446690e-01  -1.22843406e+00
C     8.653232132201020e-01   4.476039161373803e+00   8.920628244213036e-01  1.16214933e+00  -2.61373226e+00  -3.16091710e-01
C     2.683934805729829e+00   6.248226072257668e+00   8.166962000981107e-01 -2.77886200e-02  -1.13134185e+00   2.01929501e+00
C     9.162148987045989e-01   6.194839543686229e+00   2.653974510407958e+00 -4.94958240e-01   2.11184334e+00  -2.87661370e-01
C     2.579973342985841e+00   4.457223735372472e+00   2.691153195647761e+00  2.94523205e+00  -2.04196240e-01  -4.71138550e-01
C     3.506946554988906e+00   3.504686503101103e+00   7.096535347021026e+00  2.10484985e+00   1.36983987e+00   7.38991660e-01
C     5.329159843071735e+00   5.293760253845265e+00   1.874206707989200e-03 -4.59296720e-01   1.43679153e+00  -1.16925720e-01
C     3.538379573309189e+00   5.343894465815376e+00   1.769655743757335e+00 -3.01693000e-03  -2.90509810e-01   8.46777600e-02
C     5.353430983433915e+00   3.588225680910509e+00   1.834275570426707e+00 -9.26147400e-01  -1.71741904e+00  -1.22078970e+00
C     4.432054374728030e+00   4.412236518968826e+00   9.143318775525611e-01 -1.94798940e-01   8.96066440e-01  -2.52902090e-01
C     6.243252237866228e+00   6.209691952992684e+00   8.427460099682677e-01 -1.61112899e+00  -8.28142600e-02   1.85743009e+00
C     4.450702041955528e+00   6.227959390694238e+00   2.675038756989352e+00  1.56737280e-01  -1.10357345e+00  -5.76952900e-01
C     6.263543585656149e+00   4.444514657654402e+00   2.727660134949974e+00 -9.70931560e-01   3.28713330e-01  -2.54477995e+00
C     3.865432269148840e-02   7.096422962859404e+00   3.544873970383273e+00 -1.09917579e+00  -6.64439820e-01   5.52970310e-01
C     1.765788832936281e+00   1.692800828990193e+00   3.612115596567579e+00  6.18930490e-01   2.52042608e+00  -1.65647453e+00
C     7.069015586437279e+00   1.771476281874543e+00   5.323831795981140e+00  1.54244485e+00  -6.49878900e-02  -3.71037210e-01
C     1.848472512083371e+00   3.520887024757440e-02   5.340515121701828e+00 -2.38454072e+00  -1.82989992e+00   7.23272300e-01
C     9.056824199927712e-01   8.343095207501731e-01   4.483523264129269e+00 -4.67429520e-01   1.13672209e+00  -8.63414340e-01
C     2.658285057884727e+00   2.671838900546959e+00   4.454817960820960e+00 -1.13653430e+00  -8.09502870e-01  -2.85393100e-02
C     8.410244921781560e-01   2.685018911263606e+00   6.202828699868848e+00  2.02078550e-01  -4.18129680e-01   8.85565460e-01
C     2.682138649502208e+00   9.347819564195866e-01   6.214746610149313e+00  9.31993390e-01  -8.37691230e-01  -9.93558970e-01
C     3.579985241988275e+00   7.094392939527584e+00   3.553522077342765e+00  8.15041800e-02   1.07120653e+00  -5.02505770e-01
C     5.356188269483988e+00   1.827718334896662e+00   3.519774840954315e+00 -1.12965528e+00  -1.77051891e+00   2.50051420e-01
C     3.563474295516122e+00   1.792283558978224e+00   5.279058329845676e+00  7.57006000e-01   9.08752460e-01   1.88860823e+00
C     5.312343021174243e+00   7.153603754172719e-02   5.299665575936831e+00  1.53707828e+00  -2.53256932e+00   7.48245510e-01
C     4.471972077371770e+00   9.247860214471165e-01   4.436873245506353e+00 -1.04582251e+00   1.18750500e-02  -1.47882129e+00
C     6.234206272492695e+00   2.678509515417793e+00   4.400536339673211e+00 -6.65271510e-01  -7.28946300e-02   2.10689665e+00
C     4.484335756834736e+00   2.720695942224933e+00   6.198224716706326e+00 -1.83480325e+00  -2.71545661e+00   1.13452698e+00
C     6.206363220848190e+00   8.992905263728671e-01   6.203458790449885e+00 -2.58019960e-01   2.03675300e-01   1.12196500e-01
C     1.151621331820960e-02   3.572049398975307e+00   3.597905433244842e+00  2.86923680e-01  -8.78100310e-01  -1.14442043e+00
C     1.790818655244694e+00   5.407612802328079e+00   3.580832494880352e+00 -1.23168483e+00  -2.99993119e+00  -2.02525250e-01
C     2.598910394098200e-03   5.277433842024328e+00   5.402503197064597e+00 -4.44743440e-01   2.60158489e+00  -2.05813446e+00
C     1.708677064406606e+00   3.559394771774504e+00   5.381325286805509e+00  2.55658072e+00   4.12159960e-01  -2.58294993e+00
C     8.563011321465718e-01   4.449350233225883e+00   4.451447004646104e+00  1.60957260e+00   6.83903270e-01   1.56554743e+00
C     2.698244771306151e+00   6.230298061736218e+00   4.454053094547048e+00  1.86565430e-01   3.99335830e-01   1.29955600e-02
C     8.827737509941662e-01   6.227335626609333e+00   6.260621668538198e+00  1.68668795e+00  -1.42323662e+00  -1.89284028e+00
C     2.700046827524548e+00   4.435501319940694e+00   6.215222945549080e+00 -1.51667847e+00  -1.90397830e-01  -1.51852300e-02
C     3.503827805648607e+00   3.545598887322060e+00   3.557300346133747e+00  1.04729735e+00   4.90657400e-01   1.25647220e-01
C     5.356571271294753e+00   5.316420270220624e+00   3.542049936244799e+00 -4.97014810e-01   5.18816780e-01   1.43289185e+00
C     3.597808758697210e+00   5.339428172799003e+00   5.318841114628090e+00 -6.69196630e-01  -7.41457440e-01   1.09830640e-01
C     5.348244962627268e+00   3.563490715972374e+00   5.363617637385280e+00 -2.15466270e-01  -1.03922490e-01  -2.08417718e+00
C     4.462086536202588e+00   4.410621343181110e+00   4.461392327649519e+00 -5.34439070e-01   1.17355994e+00  -1.19058014e+00
C     6.231211351874436e+00   6.208733026781245e+00   4.450592714415632e+00 -9.30537700e-02   5.04577290e-01   3.48950200e-02
C     4.472424741724212e+00   6.239339193382370e+00   6.183410124208210e+00 -4.80004760e-01  -2.95277180e-01   6.51722380e-01
C     6.197049694447240e+00   4.420773734535446e+00   6.243344718444514e+00  2.92160870e-01   4.76349690e-01  -6.98430800e-02
