64
Lattice="7.10842262195238 0 0 0 7.10842262195238 0 0 0 7.10842262195238 " PBC="1 1 1" Properties=species:S:1:pos:R:3:force:R:3 Energy="-514.77637643"
C     6.192573449639200e-03   8.273635255870399e-03   7.083108460786787e+00  1.86878000e-01  -2.29429570e-01   6.48482210e-01
C     1.757574126503931e+00   1.780922024936226e+00   1.489953814842480e-02  3.34499260e-01  -1.00440710e-01  -6.87147710e-01
C     9.876868893585199e-03   1.761028535560346e+00   1.753265285048591e+00 -9.04403320e-01   7.97279380e-01   6.77029760e-01
C     1.781828917494085e+00   7.099185793479119e+00   1.793182490102749e+00  2.53394600e-02   4.65405000e-02  -4.83346850e-01
C     8.823992082063185e-01   8.896180246296070e-01   9.074908737915254e-01  4.91765170e-01  -6.23901170e-01  -8.31540780e-01
C     2.654822900647655e+00   2.667705708214560e+00   8.608961586965922e-01  1.96011720e-01   1.46194420e-01   9.92691180e-01
C     8.699862673745958e-01   2.678231860430256e+00   2.650376937719976e+00  6.86548050e-01  -8.41226860e-01   4.05942500e-02
C     2.685929926706585e+00   8.858998930939898e-01   2.647341925598141e+00 -7.13596950e-01  -1.59546300e-02   5.87440460e-01
C     3.569446081359184e+00   3.278966077730980e-02   7.086898600643544e+00 -5.67359340e-01  -6.41421960e-01   8.20798100e-01
C     5.333568273527980e+00   1.791079818691753e+00   2.151719527074000e-04  1.85873330e-01  -5.38813990e-01  -5.91943770e-01
C     3.559899043275166e+00   1.780110669578379e+00   1.754800277829154e+00 -1.38722000e-01   2.60998950e-01   7.18934160e-01
C     5.327676670692072e+00   2.478635883367800e-03   1.760071173201884e+00  5.22450900e-01  -9.12677300e-02   6.01636700e-02
C     4.452832151877836e+00   9.063840213053651e-01   8.795869740493939e-01 -1.46625150e-01  -2.56358120e-01  -4.24121700e-02
C     6.213519056647065e+00   2.666215925001861e+00   8.563135718861568e-01  2.40006120e-01  -2.66309000e-02   1.35682669e+00
C     4.440515245835710e+00   2.666962096124282e+00   2.695116283426863e+00 -3.55667320e-01  -2.22354180e-01  -7.09186930e-01
C     6.223947396967510e+00   8.747376081380299e-01   2.647921404210123e+00 -3.66645970e-01   6.83760480e-01   3.20490840e-01
C     7.094741038983286e+00   3.559058614468804e+00   7.085435900521027e+00  6.29126500e-02   2.38862040e-01   7.31721620e-01
C     1.790306564479150e+00   5.335437788677040e+00   1.287548589160600e-03 -3.57848320e-01   8.76015300e-02   1.97432390e-01
C     7.108222731155926e+00   5.324616779091067e+00   1.781049336785350e+00  1.19021220e-01   8.15313600e-02  -7.15601000e-02
C     1.760020916653961e+00   3.557130952422713e+00   1.762991597551085e+00  4.37637490e-01  -2.81073600e-02   4.12923310e-01
C     8.852011351504439e-01   4.437134906542996e+00   8.894935561495309e-01 -8.72321500e-02   4.63888380e-01  -4.14776970e-01
C     2.678465443197549e+00   6.223409431543629e+00   8.788135065841118e-01 -1.15608820e-01   2.33264450e-01   4.29980770e-01
C     8.947921743704786e-01   6.210150232998995e+00   2.699250542022655e+00  1.39307000e-02   1.98508640e-01  -7.68277250e-01
C     2.645685307706550e+00   4.445354873208085e+00   2.678954929179162e+00  4.29415290e-01   4.51073000e-03  -2.49415500e-01
C     3.546064702256349e+00   3.554989184687306e+00   7.099219416318111e+00  4.27368940e-01   1.67088520e-01   2.95286250e-01
C     5.318198797560147e+00   5.327151145007775e+00   1.533009530651820e-02  3.90146390e-01  -1.13105190e-01  -1.52388710e-01
C     3.550368709984306e+00   5.330037306759948e+00   1.786617861813179e+00  3.09504500e-01   5.42786400e-02  -3.59146100e-02
C     5.328797029181209e+00   3.538839630421155e+00   1.812726529422630e+00  2.25556330e-01  -7.26526000e-03  -1.10617451e+00
C     4.450814355032924e+00   4.430582789077237e+00   9.256491261216367e-01 -6.75486680e-01   1.14100220e-01  -7.60125910e-01
C     6.225157179413208e+00   6.221371446778475e+00   8.604680184021896e-01 -6.52277300e-02  -1.93166600e-02   8.73932180e-01
C     4.471462403469916e+00   6.220235094338442e+00   2.661872110107231e+00 -8.08484630e-01  -5.71036090e-01  -7.77058800e-02
C     6.225715901431141e+00   4.411613039220827e+00   2.672296896216365e+00 -2.02486130e-01   1.01421399e+00  -2.22569850e-01
C     7.099411272644626e+00   2.334405988408000e-03   3.544764998264508e+00  4.97050730e-01   1.95011570e-01   4.62831450e-01
C     1.771950769084429e+00   1.790604407386928e+00   3.549126086626104e+00  2.25734900e-02  -4.57662200e-01  -7.94128200e-02
C     7.096306669065341e+00   1.799096839891041e+00   5.308979671011591e+00  1.73147300e-01  -3.08027140e-01   1.03030396e+00
C     1.785334649361817e+00   1.328080814939840e-02   5.330186654719194e+00 -1.80603580e-01  -1.61188970e-01   3.17978200e-02
C     8.600971719941042e-01   9.169514023722571e-01   4.470215017468559e+00  1.21547080e+00  -9.37720470e-01  -1.72122143e+00
C     2.663636065180384e+00   2.660315578806129e+00   4.437391733852256e+00 -3.20257140e-01   5.43478780e-01   2.02930320e-01
C     8.753147409705477e-01   2.669248733512683e+00   6.226333125767234e+00  1.39335100e-02   9.10571500e-02  -3.35559070e-01
C     2.659105440939300e+00   9.156959838533389e-01   6.214704315034724e+00  1.20289740e-01  -5.31915380e-01   6.60767000e-02
C     3.562887779565746e+00   7.083299606271039e+00   3.536322609055639e+00  2.38999750e-01   7.66224290e-01   6.28406770e-01
C     5.325707140036749e+00   1.779979092675683e+00   3.573229752551357e+00 -5.97291800e-02  -8.18272930e-01  -4.90377140e-01
C     3.552436336871786e+00   1.780947473089205e+00   5.316943094704325e+00 -1.23082600e-02  -1.58924300e-02   7.20546200e-01
C     5.337393600076706e+00   7.092525770157989e+00   5.335490319920202e+00  1.86102210e-01   2.19375170e-01  -5.92858200e-02
C     4.433762884104747e+00   8.647543972420495e-01   4.471965324370281e+00  3.08824520e-01   3.69537540e-01  -1.20648989e+00
C     6.212940573214250e+00   2.668130649718784e+00   4.435740660530309e+00  1.05938780e-01  -7.92245000e-03  -6.79994700e-02
C     4.458304855368748e+00   2.666447801747725e+00   6.221870244793720e+00 -7.93436400e-01   3.58341200e-02  -3.61477410e-01
C     6.234833306452004e+00   8.992866878246524e-01   6.196626601132897e+00 -6.40039820e-01  -1.97227780e-01   5.09561280e-01
C     7.101891685633649e+00   3.541944873758476e+00   3.539947549170708e+00  2.00214320e-01   2.07541430e-01   5.40962330e-01
C     1.783587399081821e+00   5.326080261140072e+00   3.596333689919334e+00 -5.95985290e-01  -3.13499030e-01  -1.04704244e+00
C     4.929477834291400e-03   5.318430461053333e+00   5.319398628214177e+00 -1.91129800e-01   6.73926860e-01   5.76895870e-01
C     1.759252425084513e+00   3.558410539578539e+00   5.340689278056018e+00  6.31129320e-01  -4.15463760e-01  -2.00228100e-02
C     8.764523018424264e-01   4.424779757187174e+00   4.459181181709342e+00  3.08997070e-01   2.16777940e-01  -5.11225210e-01
C     2.682695310077580e+00   6.203801842925525e+00   4.436384043861645e+00 -2.84313170e-01   7.53531830e-01   4.48735930e-01
C     9.129262580636822e-01   6.218875608512366e+00   6.227656287553722e+00 -5.99367620e-01   1.04255900e-01  -6.45209410e-01
C     2.657928499406107e+00   4.463724387858463e+00   6.218266203441154e+00  3.32060120e-01  -8.18465950e-01   9.54363000e-02
C     3.534855359542645e+00   3.561714960917672e+00   3.565304572172320e+00  6.13641350e-01  -1.00671740e-01   1.36666750e-01
C     5.348084099023377e+00   5.312388301826333e+00   3.554390371165798e+00 -2.07652440e-01   4.10766950e-01   2.24297090e-01
C     3.562472363347833e+00   5.330932114999353e+00   5.344313080823467e+00 -1.10990900e-02   3.36406560e-01   1.18490170e-01
C     5.340146123483623e+00   3.544091688473942e+00   5.332621076213865e+00 -3.81710120e-01   4.10487240e-01   1.62355720e-01
C     4.453248492190690e+00   4.443222062085180e+00   4.486318295903454e+00 -4.32953230e-01  -1.04858880e-01  -1.58107966e+00
C     6.240811845296555e+00   6.220193296813436e+00   4.420650403402989e+00 -6.79873050e-01  -3.69340020e-01   7.39696540e-01
C     4.447382124255083e+00   6.222412901776531e+00   6.244262771225887e+00 -7.73513800e-02   2.62655000e-03  -7.25669720e-01
C     6.197830554672048e+00   4.448461324977251e+00   6.210974170264880e+00  7.18432260e-01  -4.82038400e-02   1.92609730e-01
