64
Lattice="7.10842262195238 0 0 0 7.10842262195238 0 0 0 7.10842262195238 " PBC="1 1 1" Properties=species:S:1:pos:R:3:force:R:3 Energy="-512.90217193"
C     1.067578451184700e-02   4.407932866662000e-03   1.570613086311620e-02 -6.29277000e-01   8.84548390e-01  -2.02178150e-01
C     1.804065058628612e+00   1.805681016342817e+00   7.087507863546304e+00 -4.70238800e-01  -1.12870164e+00  -3.08318240e-01
C     3.576410913842260e-02   1.776156467327551e+00   1.748603297157491e+00 -2.34261713e+00   1.17355038e+00   1.49413932e+00
C     1.729721691741568e+00   6.790818297338400e-02   1.761144402849052e+00  1.74648833e+00  -2.16727794e+00   6.54180230e-01
C     8.941854704998619e-01   9.539784649575752e-01   8.697317858447998e-01  3.94936010e-01  -1.57844652e+00  -8.39845300e-02
C     2.654849699400933e+00   2.666872743251949e+00   8.686599778821562e-01  4.86930750e-01  -2.63287940e-01   1.28337844e+00
C     8.359693374319430e-01   2.724432129154005e+00   2.685571733290763e+00  2.18688121e+00  -2.70737724e+00  -3.15950230e-01
C     2.681890920973901e+00   8.865557872491372e-01   2.683265903161288e+00 -1.59318519e+00   7.86430040e-01  -5.80499630e-01
C     3.595539608028454e+00   7.049576609603723e+00   5.992755689791000e-03 -2.29145076e+00   1.10229979e+00  -2.82912930e-01
C     5.281873194118971e+00   1.763704856676776e+00   3.217122800936980e-02  1.25011769e+00   8.86792400e-02  -1.82789921e+00
C     3.567364806300274e+00   1.758246441115330e+00   1.762245852934021e+00 -9.42543530e-01   4.82443870e-01   5.17044660e-01
C     5.327914660681389e+00   8.393483261243600e-03   1.792808444904485e+00  7.88399540e-01  -2.15488250e-01   2.80686550e-01
C     4.417323448364151e+00   8.663996416574486e-01   9.056145345567502e-01  1.16908771e+00  -4.45665360e-01  -3.95254470e-01
C     6.190490681811539e+00   2.656499422122582e+00   8.427620750033887e-01  8.94438280e-01   9.99363700e-02   1.94740068e+00
C     4.452163320393521e+00   2.687704899834799e+00   2.605145618083559e+00  9.53152400e-02  -7.82726500e-01   1.70601742e+00
C     6.249533595514391e+00   8.725254670186859e-01   2.693805916801093e+00 -7.24518100e-01   1.55851587e+00  -1.12411494e+00
C     3.359803059765620e-02   3.524953611169889e+00   7.102460430527475e+00 -1.62565976e+00   4.21809510e-01   1.33140960e-01
C     1.748994544738496e+00   5.313218067998766e+00   7.097713568070291e+00  9.40110230e-01   7.72636440e-01   1.17069418e+00
C     7.097180294205338e+00   5.316902647779616e+00   1.769988844441308e+00  3.56430820e-01  -2.93094970e-01   3.33042280e-01
C     1.789299585330800e+00   3.522688725554705e+00   1.787772696152024e+00 -8.90695820e-01   1.93440619e+00  -4.83881200e-02
C     8.971085960496581e-01   4.448081237619760e+00   8.936005184024619e-01 -2.18336370e-01  -1.37545124e+00  -2.00081650e-01
C     2.624360821773038e+00   6.176865612754655e+00   9.005368461108317e-01  1.34048736e+00   1.84401241e+00  -3.45519050e-01
C     8.665753618646149e-01   6.236414077474240e+00   2.655478652634350e+00  4.11911780e-01   2.10600560e-01   2.40122550e-01
C     2.676083552946039e+00   4.437966094399952e+00   2.645605764457433e+00  6.30985660e-01  -3.60154120e-01   6.94618200e-01
C     3.515238529975135e+00   3.566306148919478e+00   2.321433117126500e-02  1.94035375e+00   2.61969970e-01  -1.47815198e+00
C     5.376871788949853e+00   5.385231933709009e+00   7.061396352567806e+00 -1.01397315e+00  -3.09145666e+00   8.21508450e-01
C     3.580332061927904e+00   5.335746009881843e+00   1.775976553151039e+00 -5.74932490e-01   2.46179540e-01   1.03750960e-01
C     5.294420270885533e+00   3.583654538660492e+00   1.757973051181365e+00  1.93286249e+00  -1.00534084e+00  -1.19479306e+00
C     4.490927965804071e+00   4.469736620626232e+00   8.380332679396599e-01 -1.99269384e+00   2.96109120e-01   1.34811710e+00
C     6.232088389057292e+00   6.192754927668688e+00   8.760530217438610e-01 -2.54467630e-01   1.97153910e+00   7.08545640e-01
C     4.471348100034186e+00   6.271716139142363e+00   2.711690565944560e+00 -6.35186980e-01  -2.47906749e+00  -1.38197752e+00
C     6.205133321566477e+00   4.392332651295922e+00   2.639711744757833e+00 -1.24403960e-01   1.92889038e+00   1.66265639e+00
C     7.089375530505484e+00   7.103541905944882e+00   3.572461189897683e+00  1.29148782e+00   3.98098110e-01  -3.02650090e-01
C     1.759661301553615e+00   1.820716894037093e+00   3.600025235954353e+00  2.61214400e-01  -1.71112033e+00  -1.34697162e+00
C     1.751650393597780e-02   1.759112602411577e+00   5.316117806838141e+00 -1.22864608e+00   9.63881740e-01   1.93708264e+00
C     1.762597222264128e+00   7.084363594968800e+00   5.338465976713160e+00  5.34439440e-01   4.29441010e-01   2.45263790e-01
C     8.650901991266183e-01   8.933960090836847e-01   4.493254836864502e+00  1.30003500e+00  -7.70217650e-01  -2.15481678e+00
C     2.703494910084831e+00   2.634600220220244e+00   4.431542781552068e+00 -1.61909552e+00   2.25930173e+00   3.34526990e-01
C     9.044746989896333e-01   2.655161332648594e+00   6.201050314697776e+00  2.53338250e-01   8.98018620e-01  -1.15546820e-01
C     2.682545677781429e+00   8.785849707968788e-01   6.208088719354969e+00 -1.90792840e-01  -5.80614930e-01   4.72689650e-01
C     3.546874564845445e+00   7.093043974166987e+00   3.553264965696600e+00  4.09161790e-01   1.47348182e+00   3.77973960e-01
C     5.358521893545906e+00   1.840928911830574e+00   3.579305463533124e+00 -1.10096997e+00  -2.36174239e+00  -1.36759417e+00
C     3.539425080108138e+00   1.782744340159089e+00   5.321659959618051e+00  6.18058920e-01  -7.13139160e-01   6.03187840e-01
C     5.314254191679857e+00   7.108050991665426e+00   5.325227108257220e+00  7.59978290e-01   7.73915260e-01  -1.13331390e-01
C     4.425299809386053e+00   9.209116467823115e-01   4.456986171888513e+00  6.02289880e-01  -8.78055370e-01  -7.85474080e-01
C     6.203949484863343e+00   2.660730852855590e+00   4.499463404265037e+00  1.15076772e+00   2.87949440e-01  -1.49132020e+00
C     4.420308914780325e+00   2.645852853227704e+00   6.215554624548528e+00 -2.13569780e-01   6.46161490e-01   9.12473190e-01
C     6.225066831361708e+00   9.117743381781113e-01   6.210210867843944e+00 -9.10274020e-01  -1.44444824e+00   1.02580565e+00
C     7.079397793094921e+00   3.528482800832268e+00   3.594252699197328e+00 -4.56282000e-02   1.59832550e+00  -1.44039176e+00
C     1.798907613680897e+00   5.352992962432070e+00   3.550759317807275e+00 -1.31757532e+00  -1.13927348e+00  -1.69165688e+00
C     7.626768797450400e-03   5.294116527986980e+00   5.347473130099188e+00 -5.88632370e-01   1.72572181e+00  -3.92791070e-01
C     1.773484198012015e+00   3.601103086076223e+00   5.329986339369762e+00  7.49405320e-01  -1.58355023e+00  -7.14078830e-01
C     8.705189725657386e-01   4.462838749484237e+00   4.407214134050891e+00  9.35152110e-01  -3.54700250e-01   1.49279367e+00
C     2.674346325541938e+00   6.189399467855144e+00   4.397758652450221e+00 -3.51583050e-01   1.11980996e+00   2.08957435e+00
C     8.663672272503014e-01   6.223997511346981e+00   6.273603283179520e+00  8.68576240e-01  -8.86123330e-01  -2.08342636e+00
C     2.673955077960933e+00   4.464341825447236e+00   6.229806229975140e+00 -1.16746184e+00  -5.10716660e-01  -6.61118220e-01
C     3.589542231863960e+00   3.521510575589666e+00   3.530861207956693e+00 -1.25064187e+00   9.65849590e-01   3.06168900e-01
C     5.344668430870241e+00   5.320133568028859e+00   3.593866356427932e+00 -2.28157580e-01   4.67391770e-01  -1.29819228e+00
C     3.556317891043436e+00   5.311797734075063e+00   5.307524932322408e+00 -2.27300300e-01   9.68272700e-02   8.08478620e-01
C     5.349235947824722e+00   3.535093847121546e+00   5.358346884181002e+00 -1.69128955e+00   9.54372000e-02   3.22416470e-01
C     4.425192969794074e+00   4.421792726918023e+00   4.461196490606339e+00  1.55875966e+00  -2.19061930e-01  -7.68521150e-01
C     6.243228495734677e+00   6.249634748368273e+00   4.438461124951209e+00 -1.24258793e+00  -2.08769704e+00   1.26488936e+00
C     4.450231961967667e+00   6.184664405379509e+00   6.195606755739607e+00  3.43094730e-01   1.43119520e+00  -1.46019160e-01
C     6.210736251359788e+00   4.398917751842637e+00   6.232183215415042e+00  1.51850732e+00   1.46904881e+00  -6.36062920e-01
