64
Lattice="7.10842262195238 0 0 0 7.10842262195238 0 0 0 7.10842262195238 " PBC="1 1 1" Properties=species:S:1:pos:R:3:force:R:3 Energy="-510.91324573"
C     5.630297220397200e-03   7.103732624923776e+00   7.090851310125622e+00  2.89964070e-01  -1.05944420e-01   6.44456800e-02
C     1.781687530968173e+00   1.813209333486980e+00   2.543727709299140e-02 -5.19251700e-02  -2.25605595e+00  -6.27035890e-01
C     7.093441903665255e+00   1.779755603868510e+00   1.788372007263116e+00  7.74091500e-01   3.55571570e-01  -1.26345770e+00
C     1.730917754931609e+00   9.051865364308000e-03   1.789989884251428e+00  2.20784324e+00  -6.46518890e-01   1.07800590e-01
C     8.857282957719429e-01   8.407846539989572e-01   8.929225881371926e-01 -6.22441490e-01   2.76970564e+00   3.82200100e-02
C     2.692103236330924e+00   2.646926438296002e+00   8.792044698282118e-01 -1.67733101e+00   2.17031140e+00   3.00945020e-01
C     8.420756146309755e-01   2.684221061908737e+00   2.669510607802004e+00  1.06818211e+00  -1.34577024e+00  -4.62755370e-01
C     2.675788126901952e+00   9.414728302948878e-01   2.676242426191596e+00 -1.60507014e+00  -1.15039560e+00   2.41073650e-01
C     3.532070350644355e+00   3.824836067566020e-02   2.131169077279580e-02 -9.28750200e-02  -8.94994400e-01   7.28309420e-01
C     5.369682045975081e+00   1.776270344257924e+00   1.942710576778140e-02 -3.49886260e-01   8.49931920e-01   2.28087240e-01
C     3.545701746197372e+00   1.876548009147549e+00   1.798530511860906e+00  1.51974948e+00  -2.76648200e+00   8.44927250e-01
C     5.323496989275737e+00   7.108355516490467e+00   1.805193378551084e+00 -1.04068400e-01   1.85091189e+00  -1.43880933e+00
C     4.458683592125943e+00   9.936143897286593e-01   9.483586882026556e-01 -8.45573750e-01  -3.07888494e+00  -1.25783771e+00
C     6.279526945001446e+00   2.717100359895285e+00   8.572043994088951e-01  6.42510740e-01  -2.02547812e+00  -8.28085680e-01
C     4.520643020545553e+00   2.639843250576303e+00   2.715901240083517e+00 -1.75367305e+00   2.09566972e+00  -1.17074289e+00
C     6.204523703242587e+00   9.352676038529849e-01   2.645957702461349e+00  1.86199900e-01  -1.95547680e+00   2.11451751e+00
C     4.938469988905700e-02   3.607900515206598e+00   7.005164677842713e+00 -9.32504880e-01  -1.04190652e+00   2.68728407e+00
C     1.811819921201675e+00   5.292868573311813e+00   7.105452792113590e+00  7.36862490e-01   8.62357950e-01   2.02666130e-01
C     7.042823394862044e+00   5.408565686380290e+00   1.753916345476357e+00  2.03155778e+00  -4.34767400e-01  -1.47254272e+00
C     1.712628281119933e+00   3.529847333638402e+00   1.743273330792789e+00  2.09064451e+00   1.54648431e+00   7.72234290e-01
C     8.739511322593532e-01   4.484636372027336e+00   8.544835795668639e-01 -9.06218600e-02  -9.48711750e-01   1.14659300e-02
C     2.679961197485250e+00   6.202777874647114e+00   9.455533492156726e-01 -4.17838040e-01   8.41104920e-01  -1.83017395e+00
C     8.480236583424866e-01   6.222971908131368e+00   2.635245807162592e+00  8.58326000e-02   1.29328750e+00   1.95679527e+00
C     2.657679491361729e+00   4.481766772899868e+00   2.669197695038272e+00  2.53552450e-01  -2.20465966e+00  -5.30531430e-01
C     3.560907728444945e+00   3.521463020242339e+00   7.081938201170856e+00  1.15726002e+00   6.18111100e-02   3.70600670e-01
C     5.272189176731066e+00   5.318129988029185e+00   7.092403220952020e+00  9.73894340e-01   4.37220820e-01  -6.37577350e-01
C     3.552836469981066e+00   5.329294974185741e+00   1.804671478162324e+00  7.73309570e-01  -1.93413980e-01  -8.52585520e-01
C     5.461258432904017e+00   3.516920809272385e+00   1.756567218439808e+00 -3.76223535e+00   2.58433353e+00   9.45848180e-01
C     4.462418357370490e+00   4.404518406940709e+00   8.861165578154474e-01 -6.07841480e-01   3.13855260e-01   2.19822230e-01
C     6.174532130861188e+00   6.285132362742672e+00   8.229930541075854e-01  2.82493410e-01  -1.98002239e+00   1.51976111e+00
C     4.466722151845769e+00   6.216622878299862e+00   2.643815579304812e+00 -1.73012030e+00  -1.21444000e-03   2.25445557e+00
C     6.246877533402428e+00   4.544558810860960e+00   2.609422187300204e+00 -1.04372061e+00  -3.69754918e+00   2.09704306e+00
C     7.048875292628034e+00   5.096596850087599e-02   3.610882214158783e+00  6.38204830e-01  -2.03489324e+00  -1.15356005e+00
C     1.713138452611370e+00   1.742552252402216e+00   3.574161524588387e+00  1.36284135e+00   1.06956071e+00  -8.71051850e-01
C     6.789396612814400e-02   1.795731925875412e+00   5.377151505379951e+00 -2.82138453e+00  -1.51668672e+00  -9.07292830e-01
C     1.775800477522742e+00   7.084809435235527e+00   5.325217227549778e+00  8.25235100e-02  -2.53476440e-01   1.29271338e+00
C     8.548712018523326e-01   8.537996071423676e-01   4.518810611362570e+00  7.65082070e-01   8.02719940e-01  -2.21924911e+00
C     2.628898838773646e+00   2.626867180504624e+00   4.389725992721167e+00  1.44497259e+00   7.07985480e-01   1.40071145e+00
C     9.496609512266395e-01   2.664544308338541e+00   6.196401761725427e+00 -1.18955811e+00   1.26716670e+00   5.76131540e-01
C     2.620724721434456e+00   8.870317672277723e-01   6.247104718589362e+00  1.32994271e+00   1.19636900e-02  -3.24435500e-01
C     3.531421564911827e+00   4.387112296808020e-02   3.591806406636882e+00  6.30900740e-01  -2.07500508e+00  -1.38020357e+00
C     5.355049571264489e+00   1.742582463198351e+00   3.608121516065854e+00 -1.24057385e+00   3.59819800e-01  -3.81036080e-01
C     3.542520727074922e+00   1.727016510429301e+00   5.356176469502438e+00  7.12181600e-02   1.60058455e+00  -4.38204470e-01
C     5.265450747508437e+00   7.105407084956144e+00   5.392984877007964e+00  1.70099393e+00  -9.49479710e-01  -8.32031720e-01
C     4.429676536277413e+00   8.292008395816314e-01   4.516946001025117e+00 -3.62991720e-01   2.05252767e+00  -1.90961198e+00
C     6.224497162372941e+00   2.638382754064798e+00   4.459665478542443e+00  2.64922088e+00   3.54803860e-01  -8.10885110e-01
C     4.489611912440205e+00   2.630991487308748e+00   6.226236024714245e+00 -7.20994740e-01   3.95828080e-01  -4.76896860e-01
C     6.199314153557068e+00   8.680200776779038e-01   6.236049699730739e+00  1.36287409e+00   9.53995490e-01   2.88831190e-01
C     1.070066399101700e-02   3.577739122608806e+00   3.519639212250725e+00 -6.45027010e-01   5.88515560e-01   7.29116660e-01
C     1.765246389206149e+00   5.315496601785380e+00   3.516413196813091e+00 -6.14445330e-01   1.41553901e+00   9.26661740e-01
C     7.066621114277733e+00   5.327761687426607e+00   5.337077701775474e+00  2.34916314e+00   9.63609900e-01  -6.00104480e-01
C     1.771419698830488e+00   3.535033852034633e+00   5.249322234173241e+00  1.34405269e+00   1.20435510e-01   1.85833688e+00
C     9.042268282928737e-01   4.461648941706101e+00   4.424126208811491e+00 -1.52175911e+00  -7.92392340e-01  -4.40957900e-01
C     2.638797672693127e+00   6.185782844594540e+00   4.447709538200960e+00  7.77882400e-01   1.11345647e+00  -1.41058915e+00
C     9.788215490037607e-01   6.201872474858005e+00   6.244451570930674e+00 -3.63489714e+00  -2.75671250e-01  -7.75329480e-01
C     2.709778897849364e+00   4.373361124333856e+00   6.169042651492893e+00 -1.02843849e+00   1.46756602e+00   5.19588050e-01
C     3.568254354306941e+00   3.580815221413386e+00   3.568312856625103e+00 -2.25665170e-01  -2.54711222e+00  -1.44752248e+00
C     5.290502534842746e+00   5.283798723638276e+00   3.575336404679020e+00  2.03711069e+00   2.28651855e+00  -1.66245272e+00
C     3.569515246311277e+00   5.314212891744434e+00   5.295427463286560e+00 -5.80640610e-01  -1.13291419e+00   2.68892460e-01
C     5.446726897794629e+00   3.525708525652134e+00   5.318467211598279e+00 -4.85734603e+00  -7.55669740e-01  -3.34757240e-01
C     4.502823129132153e+00   4.352236740497097e+00   4.400986871498866e+00 -1.54729291e+00   2.39777467e+00   2.15959194e+00
C     6.157941854392595e+00   6.227444314391193e+00   4.507172986186011e+00  6.49588690e-01  -1.63999780e-01  -1.65182940e+00
C     4.368321963538538e+00   6.210135305311494e+00   6.189695675825718e+00  1.15768375e+00   1.86234480e-01   2.35576702e+00
C     6.206703501039009e+00   4.432322149008125e+00   6.152692071035047e+00  1.21868471e+00   1.07124610e+00   2.33814168e+00
