64
Lattice="7.10842262195238 0 0 0 7.10842262195238 0 0 0 7.10842262195238 " PBC="1 1 1" Properties=species:S:1:pos:R:3:force:R:3 Energy="-499.76206592"
C     7.075762261430148e+00   7.108253581710096e+00   7.021548810055325e+00 -6.40001800e-02   7.83683530e-01   4.21401055e+00
C     1.738236515776935e+00   1.690230281202348e+00   7.243340481327600e-03 -8.61841100e-02   2.36066653e+00  -9.82358510e-01
C     4.355785478321680e-02   1.838406701316546e+00   1.850046387935665e+00 -2.61140623e+00   1.06713870e-01  -1.42010997e+00
C     1.736450880014791e+00   9.260959615675300e-02   1.781476410816359e+00 -2.57533480e-01  -2.47642081e+00   8.03158150e-01
C     7.719390833346738e-01   9.609482733364852e-01   9.429932508090796e-01  3.77848435e+00  -2.97491556e+00  -2.33828937e+00
C     2.715740234311174e+00   2.600643640785635e+00   7.743698084495827e-01  8.77112190e-01   9.95875180e-01   2.25306005e+00
C     1.039737603151208e+00   2.643201411590443e+00   2.635803107496000e+00 -1.30054903e+00   1.61970214e+00   1.58704300e-02
C     2.676895050472339e+00   9.009440876427317e-01   2.743134957741035e+00  1.75199794e+00  -1.23999209e+00  -3.46422294e+00
C     3.608109147410495e+00   7.015793973270624e+00   7.087872170205580e+00 -1.41769286e+00   3.36057198e+00  -7.24829360e-01
C     5.402252482998789e+00   1.715340144349463e+00   3.898600169093760e-02 -1.70580882e+00   2.61681740e+00  -1.39684477e+00
C     3.552373853836956e+00   1.709571303972202e+00   1.789742511144252e+00  1.65144500e-01   2.91020386e+00  -5.89531990e-01
C     5.340978093267068e+00   7.102802772160854e+00   1.906581379053954e+00  1.59284082e+00   2.59650300e-01  -2.93503152e+00
C     4.481109670312875e+00   8.735234184703078e-01   9.734125369795241e-01 -3.30712670e-01  -1.62522448e+00  -1.92877207e+00
C     6.164414286440785e+00   2.762216238748353e+00   9.339237565566739e-01  2.65930192e+00  -3.16336367e+00  -6.94357970e-01
C     4.333827134343142e+00   2.736971244487233e+00   2.718683547781211e+00  1.10250976e+00  -1.92261778e+00  -2.16075767e+00
C     6.202288175412822e+00   9.824335517896614e-01   2.728274444832794e+00 -2.19206475e+00  -1.25350070e+00  -5.00870700e-01
C     4.759160028316200e-03   3.587285165513657e+00   7.103347703838903e+00 -7.43127590e-01  -1.88580288e+00   3.12802470e-01
C     1.608066654254138e+00   5.363796129877269e+00   6.975454385744388e+00  5.09177731e+00   1.86557360e-01   2.57825299e+00
C     3.429884998376199e-02   5.318184225293776e+00   1.742177140940558e+00  1.25818362e+00   6.07368890e-01   2.45099943e+00
C     1.953488224986131e+00   3.510118262077723e+00   1.720613527670110e+00 -4.06996621e+00   1.60392015e+00  -3.74802050e-01
C     9.919986452671333e-01   4.472387138168552e+00   8.551415351645713e-01 -3.86187802e+00  -1.58521303e+00   2.46067440e-01
C     2.524670454760277e+00   6.235088783160967e+00   7.414344250085629e-01  2.70801264e+00   1.18511856e+00   2.94309970e+00
C     9.057800186353437e-01   6.288878146042281e+00   2.749501189955280e+00 -1.27993735e+00  -2.06668835e+00  -2.17250046e+00
C     2.655926838680541e+00   4.497130348876927e+00   2.654927323375943e+00  3.93148000e-01  -1.43062863e+00  -2.76748820e-01
C     3.638817462044668e+00   3.655954447296965e+00   7.020971392885902e+00 -1.78870300e-02  -4.57704942e+00   3.44928820e+00
C     5.373923286331303e+00   5.337655332197575e+00   8.480895534201741e-02  1.80680421e+00  -3.75861370e-01  -2.21765179e+00
C     3.448732127942415e+00   5.398541033380435e+00   1.658870906140409e+00  2.38304119e+00  -1.42216571e+00   3.30999682e+00
C     5.280480654127713e+00   3.576311253757128e+00   1.812850571397348e+00 -1.14124509e+00  -3.06367330e-01  -1.29805435e+00
C     4.508845882365400e+00   4.505350457710469e+00   8.969529926785064e-01 -4.01713032e+00  -1.29748133e+00  -2.89436150e-01
C     6.329006968837835e+00   6.219905761118457e+00   9.467530377012499e-01 -3.66795974e+00   9.25054310e-01  -2.30693186e+00
C     4.460309359463362e+00   6.165081554072123e+00   2.681112975202368e+00 -1.40791149e+00   1.46603120e+00   6.76190870e-01
C     6.172469053364185e+00   4.406307739082616e+00   2.583489382066372e+00  4.09005241e+00   3.33147200e-01   2.91834812e+00
C     7.029753777948686e+00   1.185394158530842e-01   3.609691908791064e+00  4.31324405e+00  -1.55160484e+00  -4.34983566e+00
C     1.935196902984574e+00   1.821690037093771e+00   3.566417822238838e+00 -5.26023264e+00  -1.20034062e+00   1.04585977e+00
C     7.080914303976671e+00   1.787382159413281e+00   5.225944338197490e+00 -1.63679645e+00   1.77235695e+00   2.09591153e+00
C     1.550026596814517e+00   9.450157392129220e-02   5.364922317272955e+00  5.46375322e+00  -2.67112157e+00  -4.50654827e+00
C     8.210166282823206e-01   9.545834628067634e-01   4.378286692535706e+00  2.30237598e+00   9.54566140e-01   1.86122975e+00
C     2.720740085529404e+00   2.610834773043250e+00   4.547979668162609e+00 -5.16707230e-01   2.62159719e+00  -2.84511549e+00
C     7.885470597755894e-01   2.619778945804865e+00   6.235765860415522e+00  3.61929256e+00   1.89753940e-01  -2.75649800e-02
C     2.607395647095468e+00   8.245597504530333e-01   6.099205740210024e+00  6.44131720e-01   1.62215748e+00   5.71864452e+00
C     3.538330880614241e+00   7.075783942119139e+00   3.598957764129507e+00 -8.87133690e-01  -6.64614650e-01   6.98142090e-01
C     5.150285984209972e+00   1.816679523241612e+00   3.568375766165291e+00  2.62491607e+00  -2.07594117e+00   5.57154020e-01
C     3.591437550587130e+00   1.742643169127525e+00   5.346693975895810e+00 -1.11565743e+00  -1.73886870e-01   1.71953172e+00
C     5.556523877920054e+00   7.021767180798211e+00   5.332842574662704e+00 -7.26109785e+00   1.31827891e+00  -3.93932490e-01
C     4.374238090432486e+00   8.133619944681998e-01   4.589309458959812e+00  3.50622331e+00  -6.27426050e-01  -5.75685253e+00
C     6.073809549799776e+00   2.585357902036265e+00   4.371449314070206e+00  4.12173728e+00   4.17385485e+00   5.52468710e-01
C     4.527352376319666e+00   2.650482568880109e+00   6.140135468982175e+00 -1.89226402e+00   8.46374600e-01   2.98193352e+00
C     6.265835483277289e+00   8.857787655725450e-01   6.127748331724562e+00  5.92733300e-02   1.11454100e-01   3.36947083e+00
C     3.826371486851940e-02   3.487849848704502e+00   3.417736206529037e+00 -6.04512660e-01   2.16238050e-01   3.49887551e+00
C     1.773014189108380e+00   5.217664305361261e+00   3.667310223516641e+00 -9.53177070e-01   3.64712910e+00  -2.45877049e+00
C     7.099284031879728e+00   5.313506243451780e+00   5.235702567517547e+00  1.12858136e+00  -2.47273024e+00   2.30910097e+00
C     1.855511983003957e+00   3.456189574113058e+00   5.438137150984848e+00 -2.70280139e+00   1.53960252e+00  -1.04993942e+00
C     9.032765743570321e-01   4.296934278776890e+00   4.532201884399483e+00  2.16938520e-01   1.93748088e+00  -3.17729503e+00
C     2.516410894181194e+00   6.279940584113703e+00   4.451659333229763e+00  3.33567963e+00  -2.05557097e+00   1.83063154e+00
C     7.431756331293320e-01   6.241096893043617e+00   6.114906468671949e+00  2.22123095e+00  -1.18718824e+00   2.48173367e+00
C     2.687025050295422e+00   4.473810528713980e+00   6.303052056409657e+00 -7.12606500e-01   5.69411210e-01  -3.60639198e+00
C     3.482847225201450e+00   3.612228904824142e+00   3.556534413596442e+00  2.09654311e+00   2.72326690e-01   1.96382608e+00
C     5.397682975685975e+00   5.199859412719589e+00   3.596807110865825e+00 -1.48647719e+00   5.24712283e+00  -2.86672368e+00
C     3.625325107238099e+00   5.410055469592989e+00   5.478313955633087e+00 -2.56263264e+00  -1.47704300e+00  -4.79455020e+00
C     5.343193148839687e+00   3.632124811063712e+00   5.272355371651922e+00 -1.53247975e+00  -5.63741667e+00  -2.56682240e-01
C     4.426956071856512e+00   4.507877146530747e+00   4.475540932032367e+00 -1.66771900e-01  -1.13126830e+00   1.07501480e-01
C     6.399138524238304e+00   6.229825280547763e+00   4.372398075237299e+00 -6.83990825e+00  -2.66212568e+00   1.12110768e+00
C     4.599514879146894e+00   6.199503948441021e+00   6.233375582225321e+00 -1.33053618e+00   5.35380080e-01   1.88706659e+00
C     6.192253073031716e+00   4.323887853498954e+00   6.165688044690063e+00  2.32653983e+00   6.30158779e+00   2.19603832e+00
