64
Lattice="7.10842262195238 0 0 0 7.10842262195238 0 0 0 7.10842262195238 " PBC="1 1 1" Properties=species:S:1:pos:R:3:force:R:3 Energy="-513.04984842"
C     7.065952282793417e+00   7.100477820374531e+00   7.101135704888011e+00  9.46029720e-01   4.10750660e-01   4.94270120e-01
C     1.795648259741175e+00   1.751627291224265e+00   2.638646476544000e-04 -6.12188320e-01   3.96274990e-01  -4.42773600e-02
C     7.288763301869400e-03   1.772261549321375e+00   1.833270439468239e+00  6.18183580e-01   1.66256990e-01  -2.53646675e+00
C     1.782088232751263e+00   7.084452379167324e+00   1.758482298577862e+00  6.35214100e-02   7.39621290e-01   1.89662850e-01
C     8.991337145698700e-01   8.661556805931302e-01   8.509799802259184e-01 -8.66589600e-01   4.25681580e-01   1.91069097e+00
C     2.668513367192644e+00   2.656490820931212e+00   9.029780206069922e-01 -2.77485000e-02  -8.70031500e-02  -7.72689330e-01
C     9.339452950772126e-01   2.663901849102146e+00   2.655737185965040e+00 -1.38638246e+00  -1.76341940e-01  -5.14955300e-02
C     2.678501198563328e+00   8.895484331721571e-01   2.673139315381062e+00 -1.38827485e+00  -5.10530770e-01  -4.19320800e-02
C     3.583971645393570e+00   3.015677212308800e-03   7.105240890035287e+00 -6.69975480e-01   1.43725660e-01   6.13714990e-01
C     5.334039988453044e+00   1.812561471849393e+00   2.189664287019560e-02  1.37804470e-01  -2.04120410e-01   1.00672670e-01
C     3.526508294281110e+00   1.809400924984089e+00   1.813667826745970e+00  1.24205934e+00  -1.33145868e+00  -6.00561270e-01
C     5.333586186752982e+00   7.081330715373751e+00   1.787804541885362e+00 -9.95483800e-01   1.75907622e+00  -2.12133150e-01
C     4.443485073722121e+00   9.475390870745697e-01   9.195746946559420e-01  1.40606290e-01  -1.74027673e+00  -7.78060590e-01
C     6.253269427022332e+00   2.683577323156270e+00   9.388543006543584e-01 -7.86244590e-01   6.46835200e-02  -1.35620085e+00
C     4.419295893472748e+00   2.626908409355820e+00   2.720285928408212e+00  3.95263160e-01   2.66800547e+00  -2.17640472e+00
C     6.223253472751346e+00   8.921169195174417e-01   2.669228048002859e+00 -3.22940880e-01  -5.29952930e-01   4.63325910e-01
C     7.091970389098688e+00   3.590934203181408e+00   7.099268819855321e+00  1.34324502e+00  -1.11708060e+00   7.98139860e-01
C     1.788281161622033e+00   5.327447921652160e+00   7.067386193804323e+00 -1.30097900e-01   6.06631220e-01   1.18035496e+00
C     3.619111208520600e-03   5.399073240981995e+00   1.766621371393536e+00  6.99139000e-01  -2.52795519e+00   3.67917920e-01
C     1.792554745301177e+00   3.533002051597158e+00   1.727304543713863e+00 -1.03386012e+00   1.30835537e+00   1.74676766e+00
C     9.018143007398719e-01   4.473767664925583e+00   8.774973110517926e-01 -4.23089290e-01  -3.99192620e-01  -5.12825700e-01
C     2.671473883045422e+00   6.231261537338133e+00   8.621510085417008e-01 -8.87720900e-02  -7.38777460e-01   1.43397950e-01
C     8.844483531949858e-01   6.205849921650800e+00   2.667030123728755e+00  5.86020990e-01   1.76142026e+00   1.12258060e-01
C     2.645249490315718e+00   4.440622867354177e+00   2.664626126282897e+00  3.99039690e-01   4.66488370e-01  -1.19170198e+00
C     3.527992604008392e+00   3.552438256145893e+00   2.832166173950880e-02  1.94305721e+00  -6.46101680e-01  -5.15077290e-01
C     5.310304396651054e+00   5.282768713200639e+00   5.073721946096440e-02  6.65499910e-01   1.52048760e+00  -1.66987628e+00
C     3.537995149813899e+00   5.333885735682189e+00   1.748135989454452e+00 -7.87443780e-01  -4.81875640e-01   4.48350770e-01
C     5.371205807447904e+00   3.586905220324618e+00   1.802574209152519e+00 -1.49646093e+00  -1.40859435e+00  -1.91100890e-01
C     4.425089542244953e+00   4.439625271323687e+00   9.113849387869876e-01  4.27072880e-01  -8.31905980e-01   8.51317400e-02
C     6.202414492082780e+00   6.209898381585569e+00   9.125346550615463e-01 -4.67054700e-02   6.06320710e-01  -1.06387640e+00
C     4.375161616699276e+00   6.191876539885535e+00   2.620055108023652e+00  2.13802143e+00   1.37521546e+00   1.38923466e+00
C     6.252978692537174e+00   4.480505027884818e+00   2.645745231709237e+00 -6.07736050e-01  -4.31283040e-01  -3.80934500e-02
C     6.930001212238000e-03   1.762021582200360e-02   3.566313186257871e+00 -6.64173210e-01  -1.37404101e+00  -2.35464470e-01
C     1.743795231181549e+00   1.741678840514896e+00   3.557288475067972e+00  1.85394728e+00   1.47461172e+00  -7.72313100e-02
C     7.047489363469812e+00   1.775729606549220e+00   5.349035845727969e+00  2.63321630e+00  -2.81925960e-01  -1.17122518e+00
C     1.786261943092596e+00   7.103042610340053e+00   5.320682551507802e+00 -9.63408000e-01   2.05825380e-01   1.25652809e+00
C     8.902893440618398e-01   8.512089425185086e-01   4.429282445327360e+00 -4.49200220e-01   1.60545514e+00   1.20647856e+00
C     2.687305264315103e+00   2.693478360686763e+00   4.408256442059662e+00 -1.79569367e+00  -2.42593031e+00   1.86974338e+00
C     9.089677196750565e-01   2.667155587387998e+00   6.218152610847686e+00 -1.63173978e+00  -7.05554960e-01   5.81712400e-01
C     2.672510504316096e+00   8.621782338003354e-01   6.240807864579888e+00  6.65572000e-01   1.08153890e+00  -1.61584532e+00
C     3.543877227363496e+00   2.400443234547800e-03   3.564928465531495e+00  4.18034290e-01  -4.57285710e-01  -8.59920100e-02
C     5.318349425035465e+00   1.796875457822291e+00   3.539689229092697e+00  6.15769970e-01  -1.75409715e+00   7.41901890e-01
C     3.585361768521137e+00   1.776371426027580e+00   5.308962610797303e+00 -6.03446400e-01   4.71401360e-01   7.31060620e-01
C     5.314146356908711e+00   5.171803961407200e-03   5.317959599138984e+00  6.25390640e-01  -1.10536939e+00   1.23148212e+00
C     4.472860203693913e+00   8.818075031074295e-01   4.451368243323474e+00 -1.17507339e+00   1.60122400e-01  -6.89160610e-01
C     6.222539360614941e+00   2.646951815364755e+00   4.385162740820259e+00  4.88197840e-01   1.56517694e+00   1.53815293e+00
C     4.462224439601417e+00   2.705768539059838e+00   6.205044181946823e+00 -1.59287410e-01  -1.18587389e+00   5.53755460e-01
C     6.201933180787180e+00   8.821674736289064e-01   6.230947913732138e+00 -7.11325490e-01   5.81883830e-01   3.21535800e-02
C     4.395443368118660e-02   3.591422551815402e+00   3.506211259753093e+00 -4.55530380e-01  -1.05282751e+00   1.11659455e+00
C     1.802493102050425e+00   5.372954052907067e+00   3.568146164114664e+00 -1.12698375e+00  -2.01364799e+00  -3.29959440e-01
C     7.091883168753141e+00   5.333932722355708e+00   5.368072628009686e+00  3.98182810e-01   4.13219680e-01  -1.80616572e+00
C     1.779234698658916e+00   3.515069278432553e+00   5.375382290074058e+00  1.00455212e+00   1.37179049e+00  -2.63458705e+00
C     9.124788539439793e-01   4.444473784224336e+00   4.420206695663049e+00 -4.93770770e-01   2.90689470e-01   1.87054824e+00
C     2.651780424682069e+00   6.218460405547133e+00   4.483051549204207e+00  1.36839075e+00  -6.84449700e-02  -6.68887770e-01
C     8.588362089055424e-01   6.246973497107798e+00   6.234977820683869e+00  8.92250350e-01  -1.37339441e+00  -1.04113670e+00
C     2.707209274156460e+00   4.396692033636089e+00   6.233988470423617e+00 -2.06696497e+00   1.31985684e+00  -2.24263730e-01
C     3.503719188950973e+00   3.550129013973560e+00   3.522322712874002e+00  1.62169044e+00   4.22737150e-01   1.07474440e+00
C     5.299462417218351e+00   5.320234791966968e+00   3.470267662943515e+00  4.14181570e-01   5.35627690e-01   2.89159365e+00
C     3.581388302445010e+00   5.299863474422572e+00   5.377777899581225e+00 -9.02965490e-01   1.31567390e-01  -1.91796304e+00
C     5.364771476544958e+00   3.562248234782624e+00   5.294011323332204e+00 -1.33325183e+00   1.58964350e-01  -1.15782080e-01
C     4.416065044307732e+00   4.432263504521510e+00   4.400865388556291e+00  1.11580249e+00   2.78764700e-01   5.17574650e-01
C     6.205003095264080e+00   6.221643201775238e+00   4.462450700693411e+00 -1.08737800e-01  -8.77961200e-02  -1.37344309e+00
C     4.443783840724839e+00   6.174788958170448e+00   6.243314152227248e+00  5.30311840e-01   1.45802025e+00  -5.13775200e-02
C     6.211584001841449e+00   4.457538425241861e+00   6.210680734579126e+00 -6.29085900e-02  -8.77898940e-01   5.58960080e-01
