64
Lattice="7.10842262195238 0 0 0 7.10842262195238 0 0 0 7.10842262195238 " PBC="1 1 1" Properties=species:S:1:pos:R:3:force:R:3 Energy="-512.45944251"
C     7.075757427702766e+00   3.936864808057220e-02   7.103810462151465e+00  1.41137479e+00  -2.20367066e+00   2.28001170e-01
C     1.756217839468035e+00   1.743456443759480e+00   1.106106101785100e-02  6.65231140e-01   1.51729184e+00  -4.19554470e-01
C     2.251884310212420e-02   1.797206283811026e+00   1.756911621515747e+00 -7.70740170e-01  -2.12065750e-01   2.00792340e-01
C     1.797105699630953e+00   4.077995430754700e-02   1.769905391559750e+00 -1.04258312e+00  -2.17324392e+00   5.16051440e-01
C     9.205489039760131e-01   8.792693697267324e-01   9.007798119959833e-01 -2.12796231e+00   7.41816960e-01  -5.40615880e-01
C     2.630075780306840e+00   2.652206290281233e+00   8.739089793132166e-01  1.37511284e+00   3.88192390e-01   1.35744500e+00
C     8.940358382037108e-01   2.697190307894701e+00   2.653033781758428e+00 -4.89583340e-01  -1.04849664e+00   4.40344570e-01
C     2.659683426782533e+00   8.501637200564638e-01   2.667132982604067e+00  8.39983000e-02   1.95708192e+00   3.44962060e-01
C     3.525368245461314e+00   2.330290211711020e-02   3.986844127498440e-02  1.18547056e+00  -8.68870820e-01  -2.94917330e-01
C     5.339473666703771e+00   1.730184307885678e+00   4.539858082066580e-02 -4.45849310e-01   2.64106134e+00  -2.28623128e+00
C     3.554137098067847e+00   1.744001446521755e+00   1.821338881016343e+00  3.65978950e-01   2.14521970e+00  -1.21827737e+00
C     5.292842485400797e+00   1.319593358331560e-02   1.820934269600812e+00  9.08471150e-01  -2.93648670e-01  -1.56841971e+00
C     4.443703160128102e+00   9.302909260924969e-01   9.228627666230492e-01 -7.81041920e-01  -2.33989618e+00   1.32806270e-01
C     6.235788536283680e+00   2.674824793468490e+00   8.362600008328748e-01  1.18065727e+00   2.97086840e-01   1.05016177e+00
C     4.517267159559089e+00   2.684590557716525e+00   2.648792043812621e+00 -2.25035948e+00  -9.03853740e-01   8.66898160e-01
C     6.183593948017164e+00   8.834761342332484e-01   2.659487092149768e+00  2.03026664e+00   5.82886150e-01   6.45289660e-01
C     7.016574691326981e-02   3.628682344157299e+00   7.059270294446391e+00 -2.53314398e+00  -2.87119652e+00   1.28572440e+00
C     1.800694457874886e+00   5.282821102275348e+00   1.043424031121940e-02 -9.32449500e-02   1.84702721e+00   3.06797500e-02
C     7.107959079760949e+00   5.388922200227956e+00   1.738296724116527e+00  3.13020770e-01  -1.08864785e+00   1.21983682e+00
C     1.782410173211723e+00   3.584937893280307e+00   1.824779073227518e+00  3.47758420e-01  -1.30554197e+00  -2.15617664e+00
C     9.288101705765245e-01   4.457323253289153e+00   9.309014685113285e-01 -1.22861790e+00   2.06785820e-01  -1.74282164e+00
C     2.637036205567891e+00   6.236535915837948e+00   9.113968809369892e-01  1.75602669e+00  -1.01831264e+00  -4.24198280e-01
C     9.053645313332048e-01   6.242013950645823e+00   2.649685288199050e+00 -1.51012087e+00  -8.17646500e-02   2.09158450e-01
C     2.681738160971797e+00   4.439765165080848e+00   2.662395076759384e+00 -5.48902680e-01   5.46974600e-01   7.77797670e-01
C     3.569120871024318e+00   3.534085801709803e+00   7.100348873588204e+00 -3.94294200e-01   1.89734210e-01   2.77574070e-01
C     5.295441111457991e+00   5.288673182281489e+00   7.099149753776436e+00  3.83872160e-01   1.80691524e+00   5.38572830e-01
C     3.582471199546941e+00   5.313000265929689e+00   1.824911218804024e+00 -7.89550270e-01   1.44702060e+00  -1.36512249e+00
C     5.385093674889050e+00   3.560063887595724e+00   1.752441987540743e+00 -7.31050170e-01   1.02966570e-01   3.79230930e-01
C     4.461709718719503e+00   4.448075266544759e+00   9.213992134898173e-01 -7.51113430e-01  -1.04995109e+00  -9.81251180e-01
C     6.191657458300387e+00   6.222478512517314e+00   8.749669969359773e-01  1.23754430e-01   6.46888010e-01  -3.09464200e-02
C     4.452407068205161e+00   6.250550739707087e+00   2.703099468534480e+00 -5.18599720e-01  -2.13526386e+00  -6.26670690e-01
C     6.224269195259517e+00   4.480723043206574e+00   2.666744791644788e+00  5.18513130e-01  -4.28587180e-01  -1.02131406e+00
C     7.067100435214999e+00   7.085373417486197e+00   3.547014387518381e+00  1.07641403e+00   5.54418430e-01  -1.08522500e-02
C     1.725175642223399e+00   1.748765084856322e+00   3.549108315569554e+00  1.48222919e+00   4.33463980e-01   8.29797420e-01
C     2.829166419605240e-02   1.759227758858021e+00   5.327675888765584e+00 -1.37730146e+00   1.02990330e-01   4.31067600e-02
C     1.829918889287135e+00   7.089953232011811e+00   5.339177174396291e+00 -1.34841320e+00  -3.72870400e-02   1.42927710e-01
C     8.861531661919404e-01   8.092871622855109e-01   4.472644534151622e+00 -3.73460920e-01   2.26675468e+00  -1.01267864e+00
C     2.650602914475066e+00   2.675767370307902e+00   4.464519536012736e+00  6.85350200e-02  -1.04261095e+00  -2.10706743e+00
C     9.034889740249178e-01   2.655537936879001e+00   6.203569042084720e+00 -1.99301600e-02   7.44991270e-01   2.16612800e-02
C     2.670306680051218e+00   8.887207284422843e-01   6.263959641632098e+00 -4.35330470e-01  -5.75170800e-02  -1.46856230e+00
C     3.519834267367418e+00   7.070462292608902e+00   3.530262820940541e+00  1.91512862e+00   2.53737330e+00   7.01209330e-01
C     5.378486182811081e+00   1.776114101128736e+00   3.595479897278446e+00 -2.83072004e+00  -8.42607680e-01  -2.25309787e+00
C     3.525631754687837e+00   1.781604646760424e+00   5.328478074258251e+00  3.79288830e-01   1.85780300e-02   6.92978310e-01
C     5.307942765404011e+00   7.097383879429175e+00   5.371562721347654e+00 -3.06333850e-01   3.05213230e-01  -1.04671758e+00
C     4.405504131905425e+00   9.044801013908244e-01   4.471436599895806e+00  7.96440770e-01  -9.05911380e-01  -7.81875290e-01
C     6.210330005007055e+00   2.615198775858120e+00   4.404374177045749e+00  2.62075965e+00   2.91619127e+00   1.65506340e+00
C     4.424643986315131e+00   2.651006459627204e+00   6.195296473092243e+00  1.25213460e+00  -2.71759500e-02   9.92009540e-01
C     6.198391053795634e+00   8.916366744852345e-01   6.225875769855864e+00  6.83535900e-01  -2.00778480e-01   1.82213630e-01
C     1.589663658933220e-02   3.603953137041486e+00   3.499611231518875e+00 -3.69594980e-01  -1.76801635e+00   1.52159566e+00
C     1.733419208851587e+00   5.338994061429600e+00   3.571142293164768e+00  2.66947270e+00   8.46355190e-01  -1.83148216e+00
C     2.337583453319140e-02   5.343277952321543e+00   5.308915126534202e+00 -1.60853442e+00  -2.41298150e-01   2.80540590e-01
C     1.797580044672386e+00   3.560789657545226e+00   5.327217893096178e+00 -4.98089720e-01  -4.89327230e-01  -5.81338740e-01
C     9.105538220142573e-01   4.457364908645706e+00   4.407889505284018e+00 -1.33966621e+00  -5.83153920e-01   1.60508709e+00
C     2.693653441135893e+00   6.265618676387379e+00   4.386437067743346e+00 -2.02273052e+00  -3.00539284e+00   2.73466136e+00
C     9.032508418671479e-01   6.178320067106933e+00   6.212715591638327e+00  2.99666600e-02   1.04720532e+00   4.49162720e-01
C     2.691350027870109e+00   4.422507549896691e+00   6.189935371836465e+00 -7.63393620e-01   6.75708190e-01   1.27385414e+00
C     3.545705869082492e+00   3.554179037761305e+00   3.501760747434937e+00  9.69763150e-01  -5.20495410e-01   2.29784217e+00
C     5.331047058193118e+00   5.304067395560040e+00   3.578501572019028e+00 -6.05720730e-01   1.46811127e+00  -3.47747070e-01
C     3.527731369477107e+00   5.338255069814024e+00   5.309099590101190e+00  9.61873850e-01  -2.70663300e-02   3.30352350e-01
C     5.352110309595346e+00   3.553947942941929e+00   5.282924671992921e+00 -1.35919190e+00  -1.36196064e+00   1.47525659e+00
C     4.416045069640170e+00   4.429410183681842e+00   4.457090665701027e+00  7.74102570e-01   3.06436580e-01  -1.42474922e+00
C     6.190747438036574e+00   6.229597029097434e+00   4.430375223136733e+00  6.92874140e-01  -8.85622700e-01   1.01399721e+00
C     4.405388122448266e+00   6.206163829593699e+00   6.246788038361642e+00  2.15204990e-01   3.49331980e-01  -3.67577720e-01
C     6.166976517374163e+00   4.440396961683314e+00   6.206976819888749e+00  3.00815440e+00   3.69120740e-01  -8.05381670e-01
