64
Lattice="7.10842262195238 0 0 0 7.10842262195238 0 0 0 7.10842262195238 " PBC="1 1 1" Properties=species:S:1:pos:R:3:force:R:3 Energy="-511.74511138"
C     7.088108951763052e+00   3.189399952718980e-02   7.070474448011582e+00  1.11963133e+00  -1.08716791e+00   1.57397698e+00
C     1.788937908787895e+00   1.778331147059688e+00   7.096183337932884e+00  1.09667810e+00   5.85366300e-01   8.05034150e-01
C     7.346270440865200e-03   1.822991447107040e+00   1.724458686717946e+00  6.68595000e-03  -7.96090250e-01   7.45933580e-01
C     1.800532741260282e+00   7.097811308881316e+00   1.733337461991457e+00 -1.68650940e+00   1.06850419e+00   1.51847028e+00
C     8.930130072729190e-01   9.053181133334962e-01   8.502742560282048e-01 -9.28806900e-02   8.50294000e-03   3.09850750e-01
C     2.709848276054135e+00   2.726385594774207e+00   9.541427406043234e-01 -2.06048559e+00  -2.01592160e+00  -1.61795518e+00
C     8.487421066166900e-01   2.673168957503387e+00   2.657427284527171e+00  6.57063220e-01  -1.17655480e-01   8.18044350e-01
C     2.617723758656970e+00   9.130399928256021e-01   2.659012178434526e+00  1.44029371e+00  -8.80885290e-01  -4.52764700e-02
C     3.521078454578597e+00   7.078767844682337e+00   3.248151065673280e-02  2.60989200e-01   6.76788190e-01   3.25023670e-01
C     5.291022587041625e+00   1.756619038840707e+00   2.040849459469860e-02  8.51635830e-01   8.34844740e-01   2.51834010e-01
C     3.524480829981433e+00   1.779461528424721e+00   1.821724584027704e+00  1.22528073e+00   4.27760100e-01  -8.88697790e-01
C     5.357141793294233e+00   7.108198064929434e+00   1.790890592481609e+00 -2.03661645e+00   3.14585870e-01   7.32056700e-02
C     4.395219879311487e+00   8.477212660442318e-01   9.222019676562940e-01  1.13448659e+00   1.51303762e+00   3.24816000e-01
C     6.282961876979882e+00   2.738669375566925e+00   7.907991502300578e-01 -1.40013787e+00  -2.92915518e+00   1.97099592e+00
C     4.506697148375827e+00   2.639549530553645e+00   2.681330848355671e+00 -1.24631440e+00   1.59039400e-02  -1.75503854e+00
C     6.236274610222436e+00   9.073150825001327e-01   2.673188292412914e+00 -4.51836000e-01  -1.44302700e-01  -1.18114796e+00
C     6.851282540144120e-02   3.608680166999559e+00   7.070189542432972e+00 -6.97008970e-01  -9.18178580e-01  -4.32020750e-01
C     1.825362461471941e+00   5.294743206525159e+00   2.015927329764140e-02 -1.25122660e+00   1.09064169e+00   5.43151470e-01
C     7.044644714905741e+00   5.407255390838746e+00   1.749214479334358e+00  2.05552223e+00  -1.65017318e+00  -5.83251300e-02
C     1.743868092513404e+00   3.575867901438318e+00   1.820370642771273e+00  1.23875351e+00  -5.82556510e-01  -1.01595114e+00
C     8.776304518074651e-01   4.453758023924092e+00   9.125937971377448e-01  4.37200960e-01   7.95451620e-01  -7.42252680e-01
C     2.683102196188349e+00   6.205688702625778e+00   9.609145794132664e-01  1.10050520e-01  -8.59222890e-01  -2.67471167e+00
C     8.774587834011921e-01   6.240994958263247e+00   2.604546093719788e+00 -7.18641080e-01  -1.99309390e-01   9.76450050e-01
C     2.684761515280536e+00   4.429812307149455e+00   2.654832283765514e+00 -8.37628490e-01   2.29058730e-01   3.10016310e-01
C     3.575299938470980e+00   3.553437416029360e+00   2.575139828856920e-02 -9.40177810e-01   2.99174170e-01  -2.40635970e-01
C     5.292742256641855e+00   5.274582866964124e+00   2.103026832127000e-03  9.74768640e-01   2.44682605e+00  -2.85573500e-02
C     3.583225474271149e+00   5.306584345841329e+00   1.811261910026005e+00 -3.78208880e-01   3.71461680e-01  -5.83771100e-01
C     5.389746492914971e+00   3.525508850060738e+00   1.694848907715467e+00 -7.34235920e-01   9.94617370e-01   2.76656320e+00
C     4.470268757143566e+00   4.386939917559484e+00   8.884334770842102e-01 -5.07540800e-01   1.72925981e+00   3.15358520e-01
C     6.180504556462285e+00   6.275496256123226e+00   8.680131114237362e-01  7.77920890e-01  -1.85386472e+00  -2.55876400e-01
C     4.419812178207639e+00   6.212492742589189e+00   2.708581270806346e+00  1.32586220e+00   9.64886800e-01  -1.09449151e+00
C     6.213505977149445e+00   4.489274688871112e+00   2.645812193050317e+00 -4.45059210e-01  -6.12453750e-01  -3.19654310e-01
C     7.070452909491043e+00   7.099381132932717e+00   3.537670437068617e+00  1.38379117e+00   2.81006780e-01   1.19445058e+00
C     1.732443648931218e+00   1.694647739355321e+00   3.555795564149319e+00  3.76743790e-01   2.78827639e+00   1.53848320e-01
C     3.627214810307400e-02   1.764074921158373e+00   5.383911686375797e+00 -4.65089880e-01   1.17650330e-01  -1.76040806e+00
C     1.833855960239449e+00   7.017255464961297e+00   5.353867227330104e+00 -1.09384195e+00   1.94076197e+00  -1.29036578e+00
C     9.285794311782795e-01   8.024816295533492e-01   4.462796312201196e+00 -2.04164239e+00   1.05838489e+00   3.82687530e-01
C     2.664246678683442e+00   2.637044735675036e+00   4.402555416034196e+00 -3.05546620e-01   9.19674210e-01   3.09251330e-01
C     1.000596424594476e+00   2.685584457367253e+00   6.206243870432401e+00 -3.15077615e+00   2.12501530e-01  -2.25576160e-01
C     2.655292909551290e+00   8.747133684168958e-01   6.220864616245668e+00  4.63274150e-01  -3.16908420e-01   5.09074510e-01
C     3.579782225438247e+00   9.824963191613960e-02   3.542473384980273e+00 -1.62586066e+00  -3.83327923e+00   7.07605970e-01
C     5.341005389609928e+00   1.746590405124185e+00   3.555859824289804e+00  8.35003910e-01   1.02059714e+00   1.25826953e+00
C     3.506779649225788e+00   1.809762885863899e+00   5.357692340626152e+00  1.69726918e+00  -1.29915473e+00  -4.78207030e-01
C     5.281658306503168e+00   7.090219655691608e+00   5.422036005076738e+00 -1.46569200e-02   8.75484700e-01  -2.04027420e+00
C     4.446880198533885e+00   8.919644438522428e-01   4.481163907577466e+00 -5.86684660e-01   7.86812900e-01   6.14147200e-02
C     6.231603523550381e+00   2.657003196033662e+00   4.444808448761286e+00  4.16455520e-01  -6.51466100e-02   4.28036230e-01
C     4.420299034072882e+00   2.653499241271585e+00   6.291213902630987e+00  3.39885690e-01   1.50066660e-01  -2.45810393e+00
C     6.169912509168902e+00   8.921164930120845e-01   6.267548613128709e+00  1.34818903e+00   1.87840920e-01  -1.52442629e+00
C     7.077400681759832e+00   3.601244685854814e+00   3.541912601519781e+00  7.73239710e-01  -9.30457060e-01   3.27160890e-01
C     1.755440178033407e+00   5.337360688079976e+00   3.477608388814737e+00  7.89749990e-01   4.56477570e-01   1.61134214e+00
C     7.087132325579290e+00   5.388253724164771e+00   5.365315910633424e+00  1.19192277e+00  -8.88422280e-01  -1.94343393e+00
C     1.802167536294429e+00   3.589682836463383e+00   5.283136218650093e+00 -1.93946440e-01  -7.70674120e-01   1.16483260e-01
C     8.833680151251982e-01   4.500747469727114e+00   4.418451697202397e+00 -6.62618250e-01  -1.08804346e+00   2.24951500e-02
C     2.665535791125579e+00   6.191881800118273e+00   4.393405241185054e+00  8.70893840e-01   5.97269730e-01   6.02864810e-01
C     9.615000291002497e-01   6.182502591892314e+00   6.226163803140426e+00 -2.57216933e+00   1.08522205e+00   7.55438780e-01
C     2.673682043448099e+00   4.463756091423348e+00   6.191853935101603e+00  4.04397890e-01  -1.89769729e+00   9.65837150e-01
C     3.583030703491361e+00   3.538300385481201e+00   3.501218161536352e+00 -5.10679230e-01  -1.08646853e+00   1.28870440e+00
C     5.302356540403858e+00   5.325025229054812e+00   3.552501876528342e+00  2.41538900e-02  -4.88365200e-02   1.17883647e+00
C     3.539699536305496e+00   5.268275705741852e+00   5.298576068001863e+00  6.68061930e-01   1.96840039e+00  -5.05341000e-03
C     5.344705679004770e+00   3.534598532233384e+00   5.329705343423593e+00 -2.22488830e-01  -2.97319010e-01   3.78531370e-01
C     4.438538748926220e+00   4.365281051425928e+00   4.418579364472652e+00  3.43400640e-01   1.88986553e+00   8.54098900e-01
C     6.149295311286080e+00   6.251065034083643e+00   4.485802011168563e+00  1.47037395e+00  -9.60476590e-01  -7.34125460e-01
C     4.371900343485446e+00   6.207616506840322e+00   6.284900343828355e+00  1.46681924e+00  -1.50682417e+00  -2.12463696e+00
C     6.242955247969165e+00   4.479827239788001e+00   6.189507089373611e+00 -6.77863090e-01  -1.06179679e+00   7.93016950e-01
