64
Lattice="7.10842262195238 0 0 0 7.10842262195238 0 0 0 7.10842262195238 " PBC="1 1 1" Properties=species:S:1:pos:R:3:force:R:3 Energy="-514.49568446"
C     7.106563340979513e+00   2.170627931243200e-03   2.712190216970520e-02  6.92618150e-01  -1.42883900e-01  -8.07850290e-01
C     1.768535100931292e+00   1.771446142162634e+00   3.051859083444600e-03  1.74460600e-02  -1.82811350e-01   8.52532700e-02
C     2.310706507392920e-02   1.758227390542709e+00   1.801120323474051e+00 -1.19790396e+00   8.52225610e-01  -5.44138720e-01
C     1.780746446897511e+00   7.105378509097211e+00   1.809634223414477e+00  9.37878400e-02  -7.52708600e-02  -1.06547604e+00
C     9.133489248726673e-01   8.918133898715679e-01   9.064526886678744e-01 -1.03843424e+00  -4.44316340e-01   1.55937220e-01
C     2.655135386906030e+00   2.642746685795442e+00   8.881804172389381e-01  2.71625900e-01   1.04595089e+00  -5.21545680e-01
C     8.843195485771114e-01   2.687978005431859e+00   2.649116116799867e+00  5.46107270e-01  -1.08995274e+00   8.45808060e-01
C     2.693055764962004e+00   8.890708182563194e-01   2.660015603371565e+00 -1.23814224e+00  -5.11439980e-01   5.48749980e-01
C     3.575175754327808e+00   2.279436556287540e-02   7.098671001512979e+00 -9.05860850e-01  -1.06184240e+00   3.13395410e-01
C     5.334578380382283e+00   1.762180100024786e+00   7.081875007293764e+00  5.41879100e-02   7.00101280e-01   9.47322290e-01
C     3.539458774031357e+00   1.767154076584678e+00   1.752072989322539e+00  9.80423790e-01   2.87383510e-01   7.64353270e-01
C     5.305488298157552e+00   1.673891358557600e-02   1.770286047591051e+00  1.00471729e+00  -1.35676070e-01   7.11187600e-02
C     4.449981745491443e+00   8.902830175657080e-01   8.547560454058886e-01 -2.87924170e-01   3.96477540e-01   7.98756590e-01
C     6.199740232408910e+00   2.665587256105348e+00   9.168510314448627e-01  5.71413170e-01  -6.46905590e-01  -8.19622920e-01
C     4.427059072900276e+00   2.672540217522648e+00   2.669599534168980e+00  4.61703110e-01  -5.64908100e-02  -2.92708430e-01
C     6.205522223368018e+00   8.780045680899558e-01   2.685233443458277e+00  5.63020290e-01   8.49559130e-01  -7.85876730e-01
C     7.086943170453372e+00   3.537016746524482e+00   1.917582302816440e-02  4.21377910e-01   2.07468710e-01  -1.92475920e-01
C     1.786287888835159e+00   5.332050340961706e+00   7.092813661274099e+00 -5.13727980e-01   4.94178810e-01   6.55124030e-01
C     5.048188492045400e-03   5.308024370095689e+00   1.801249270260378e+00 -3.15416200e-02   6.38774270e-01  -5.30658670e-01
C     1.787652777062425e+00   3.554842111423299e+00   1.753277866956629e+00 -5.57950270e-01  -1.63682170e-01   7.70546680e-01
C     8.928152509556305e-01   4.433811292462789e+00   8.916807467054786e-01 -2.04137170e-01   1.67140140e-01  -6.28767620e-01
C     2.659369661008086e+00   6.233784671947102e+00   8.990110942796751e-01  3.10048330e-01  -1.34004550e-01  -4.58866400e-01
C     9.001502190045301e-01   6.193151222229753e+00   2.683646132687231e+00 -7.19223880e-01   1.26943417e+00  -2.89231850e-01
C     2.642936196342491e+00   4.448523523675176e+00   2.656431821023466e+00  1.23698317e+00  -1.28947990e-01   3.20352460e-01
C     3.544683464657057e+00   3.548177538711692e+00   7.104414678074165e+00  3.40753370e-01   2.69647750e-01  -4.16873010e-01
C     5.340120248825286e+00   5.348300763744835e+00   7.086760910497395e+00 -4.08089820e-01  -6.18588600e-02   5.64770130e-01
C     3.528623263263238e+00   5.351635751301234e+00   1.785673721120791e+00  8.65766350e-01  -2.80184980e-01  -8.07730880e-01
C     5.322860643282795e+00   3.564522503515667e+00   1.781582113060719e+00 -2.65080080e-01  -1.85235050e-01   2.39442600e-02
C     4.426888328588944e+00   4.476605418319712e+00   8.607847697141368e-01  2.80221400e-01  -8.62704170e-01   1.05317691e+00
C     6.223320718429331e+00   6.235349946608027e+00   9.006436857028103e-01 -1.03888200e-01  -8.26229430e-01   8.22567400e-02
C     4.447818723572404e+00   6.247008897052446e+00   2.648562939351578e+00 -7.30006950e-01  -1.76081767e+00   4.51770090e-01
C     6.230324291815687e+00   4.420339338829138e+00   2.698054478832614e+00 -5.98723850e-01   7.64666520e-01  -1.36658976e+00
C     7.093838553647450e+00   1.960837054459140e-02   3.549350286275539e+00  7.55833000e-01  -1.26755561e+00   4.54599870e-01
C     1.786308076755399e+00   1.764416978454848e+00   3.565013979855614e+00  1.18687100e-01   1.52396807e+00  -6.69016610e-01
C     4.055355104710000e-04   1.789138224137326e+00   5.333494417016958e+00 -1.15026770e-01  -7.93888750e-01   6.96248000e-02
C     1.792760036546443e+00   3.882691519270200e-03   5.324846878731276e+00 -1.18453343e+00   3.10279310e-01   3.22988780e-01
C     8.846091457146502e-01   9.218321875116016e-01   4.432083163839640e+00  1.74110600e-01  -1.20141265e+00   3.12544250e-01
C     2.665530033303257e+00   2.679077265132452e+00   4.463703489095960e+00  2.55125590e-01  -6.46016980e-01  -4.78631880e-01
C     8.615804154579934e-01   2.630526098879817e+00   6.224803251050958e+00  8.39837780e-01   1.67930997e+00   4.19965310e-01
C     2.653716901172209e+00   8.868431807756638e-01   6.243991016229124e+00  8.46446350e-01   7.33116900e-02  -1.22927947e+00
C     3.535987660181784e+00   7.072185303167764e+00   3.549202075663912e+00  1.06887136e+00   1.31726551e+00  -1.39045110e-01
C     5.345592454726615e+00   1.787395949753164e+00   3.574961293217363e+00 -9.31531960e-01  -2.01457630e-01  -1.00060520e+00
C     3.561068805301514e+00   1.758106760610847e+00   5.330435165173989e+00 -4.21630200e-01   5.95710690e-01  -2.24357490e-01
C     5.345451707958739e+00   2.062850027478760e-02   5.315711276148504e+00 -3.95285780e-01  -1.37925304e+00  -2.66773130e-01
C     4.440315499160088e+00   8.683735795347964e-01   4.399373828237937e+00  9.53715000e-03   6.42842190e-01   1.78734400e+00
C     6.222118115490479e+00   2.678430967347842e+00   4.469062102403821e+00  3.03479220e-01  -4.13186690e-01  -8.88660760e-01
C     4.446746346935949e+00   2.657895445240924e+00   6.203104719919182e+00 -1.22959200e-02  -5.75821400e-02   2.91020620e-01
C     6.224141527989262e+00   8.647414599128811e-01   6.220183913695577e+00  2.26750820e-01   1.08520703e+00  -1.48159060e-01
C     2.084829270219800e-03   3.563239433232757e+00   3.555340980522770e+00  4.79769100e-01  -8.46698950e-01   3.69638030e-01
C     1.777197780157155e+00   5.325229525120911e+00   3.554490528840514e+00 -1.37258150e-01  -1.22105820e-01   3.66348270e-01
C     7.107851316074030e+00   5.293397013449384e+00   5.322923979328340e+00  3.99671450e-01   1.50037917e+00   1.57150520e-01
C     1.776042377144500e+00   3.566707348292150e+00   5.341327472238842e+00 -1.03010120e-01  -8.72336320e-01  -1.68706560e-01
C     9.156106827818989e-01   4.429616683358953e+00   4.434522774482824e+00 -1.15515600e+00   1.92815080e-01   3.98443940e-01
C     2.648526757480443e+00   6.212676850735048e+00   4.451909123200630e+00  5.81122590e-01   1.39172060e-01  -6.21141890e-01
C     8.978947165072039e-01   6.231496612874177e+00   6.210288847240085e+00 -5.50288720e-01  -7.43712180e-01   3.31852440e-01
C     2.662190283103702e+00   4.461733603019505e+00   6.201458053819260e+00  1.04796300e-02  -8.17287810e-01   9.76309410e-01
C     3.561216020733974e+00   3.565002748547874e+00   3.560856761054759e+00 -5.84984870e-01  -2.01071190e-01  -5.39125500e-02
C     5.338897813387325e+00   5.314510947904891e+00   3.539559784716787e+00 -1.51213630e-01   1.12169898e+00   4.72955780e-01
C     3.533534543535623e+00   5.347062334355979e+00   5.335136320473725e+00  1.31768123e+00  -3.72103330e-01  -3.48574680e-01
C     5.347725692354876e+00   3.549731439896423e+00   5.328279251677569e+00 -9.26085680e-01   4.00177000e-01   4.91463250e-01
C     4.460684826346151e+00   4.449674874886938e+00   4.450035200829545e+00 -7.76112630e-01   4.73290700e-02  -4.11707250e-01
C     6.226653004785135e+00   6.214879324399629e+00   4.427054097004443e+00 -1.27264000e-02  -9.92107400e-02   4.85958770e-01
C     4.455206222864464e+00   6.234422226371890e+00   6.200584641931940e+00 -4.28610250e-01   1.65853680e-01   1.63545880e-01
C     6.210376920596348e+00   4.432955935968923e+00   6.227055910179236e+00  5.91049540e-01   3.60867200e-02  -1.37452850e-01
