64
Lattice="7.10842262195238 0 0 0 7.10842262195238 0 0 0 7.10842262195238 " PBC="1 1 1" Properties=species:S:1:pos:R:3:force:R:3 Energy="-504.86710731"
C     7.024740847232835e+00   7.001849167364292e+00   5.245959026179040e-02  2.06268344e+00   4.84616733e+00  -3.51353970e-01
C     1.746509084769412e+00   1.791043707904844e+00   7.075020142108619e-02 -8.81059860e-01  -2.49357828e+00  -4.66810606e+00
C     4.744338967153500e-02   1.772016948499020e+00   1.851679050443027e+00 -1.92749019e+00   6.45720330e-01  -6.14210500e-02
C     1.720119492298020e+00   3.037308142341460e-02   1.728777266712275e+00  2.17723756e+00  -1.62720707e+00   3.16111856e+00
C     8.219756255779848e-01   8.979260646509581e-01   9.354877517015264e-01  1.19827601e+00  -8.18750750e-01  -1.14461582e+00
C     2.678604910449353e+00   2.613310423389117e+00   8.113267109036414e-01  7.57372190e-01   1.52816081e+00   2.82693344e+00
C     9.882914607023509e-01   2.701071080139863e+00   2.630263655916687e+00 -1.87231810e-01  -2.71292917e+00   9.07707510e-01
C     2.649612426867195e+00   8.426113053596186e-01   2.772700522354818e+00  4.64540930e-01   1.17456490e+00  -4.87566096e+00
C     3.592362356369992e+00   7.081907350616686e+00   2.508114511972940e-02 -7.98007450e-01   1.37257676e+00  -1.99669691e+00
C     5.367063587418778e+00   1.784779552639421e+00   6.643083950026940e-02  9.43703360e-01   1.42812016e+00  -1.81253638e+00
C     3.603148250348224e+00   1.795317007247083e+00   1.766492922196792e+00 -3.07147634e+00  -1.09846914e+00   3.73601740e-01
C     5.271721513606897e+00   7.060650892287646e+00   1.816413454982945e+00  2.11945114e+00   1.69123939e+00   3.58715470e-01
C     4.487669109453932e+00   9.371135190389466e-01   9.298401099299364e-01 -5.97993460e-01  -2.56663683e+00  -9.13979870e-01
C     6.245359174330796e+00   2.756620204124985e+00   1.049336461636125e+00 -1.69964106e+00  -2.71500406e+00  -2.94852307e+00
C     4.327344181829477e+00   2.743919301092926e+00   2.622314022563836e+00  3.08426534e+00  -2.00036453e+00   2.23516381e+00
C     6.246484864136899e+00   8.490518205902433e-01   2.767917264773819e+00 -2.02739226e+00   2.09006429e+00  -3.75040164e+00
C     1.356592698068660e-02   3.582723122044594e+00   5.065888464369200e-02 -2.00756910e+00  -2.17242988e+00  -8.98770710e-01
C     1.738563289964776e+00   5.407129500674145e+00   6.972635896175557e+00  1.34217152e+00  -3.21745573e+00   4.34404152e+00
C     3.709644079008920e-02   5.311757500403034e+00   1.754472934967503e+00  3.73585340e-01   2.64441300e-01   2.32457667e+00
C     1.831531363874256e+00   3.514830222179842e+00   1.696094658779622e+00 -9.17883770e-01   3.19822407e+00   1.46820704e+00
C     8.606076278224464e-01   4.505439526245897e+00   8.607018144221613e-01  3.42788924e+00  -1.91413263e+00  -1.69034683e+00
C     2.625266008309469e+00   6.202151480445840e+00   8.398804626416931e-01  3.30486290e-01   1.52831677e+00  -6.73585290e-01
C     9.133816947009457e-01   6.251391595018807e+00   2.704019369505735e+00 -6.34359220e-01  -2.93892230e-01  -1.26189392e+00
C     2.662247576990019e+00   4.500911176700052e+00   2.635957289182628e+00 -4.33420300e-01  -2.83839853e+00   7.62014530e-01
C     3.595665640361506e+00   3.489149197275212e+00   7.091802345987952e+00 -1.24856759e+00   1.90865164e+00  -1.19824957e+00
C     5.375061344792765e+00   5.417403374971058e+00   5.053754386956860e-02 -1.58240489e+00  -6.34358871e+00  -2.54230942e+00
C     3.501306305976840e+00   5.308270463686793e+00   1.672522702866345e+00 -4.04781810e-01   1.32612345e+00   2.97230406e+00
C     5.206156053476386e+00   3.627397567852960e+00   1.877736395241161e+00  5.26316164e+00   7.09054100e-02  -3.74592286e+00
C     4.435392916495738e+00   4.468346070993308e+00   8.504959677297226e-01 -1.93387730e-01  -3.93611670e-01   8.90682500e-01
C     6.233377501499429e+00   6.112174133185273e+00   9.548457636014412e-01 -1.45014368e+00   4.63181829e+00  -2.81502980e-01
C     4.310268542264391e+00   6.238671214908769e+00   2.652224132422010e+00  2.97173135e+00  -9.57145320e-01  -6.08439560e-01
C     6.339744667710703e+00   4.438682267978917e+00   2.622050229000407e+00 -4.87108916e+00  -1.60132020e-01   2.27305809e+00
C     7.092194020074314e+00   7.094485562274324e+00   3.584493190361200e+00  2.07284343e+00   9.94814800e-01  -4.93410700e-01
C     1.834280190901410e+00   1.751561253978125e+00   3.554950017278671e+00 -1.44468264e+00   5.99703190e-01   1.46984106e+00
C     1.470313243143420e-02   1.776466252385331e+00   5.231382139333337e+00 -3.94288032e+00   5.61339730e-01   4.19478407e+00
C     1.650318833970513e+00   4.505247172329799e-02   5.442871360449767e+00  3.68823325e+00   6.49005130e-01  -4.56701596e+00
C     8.651032786242392e-01   9.517604949316827e-01   4.465841062862020e+00  1.24185631e+00  -3.49048903e+00  -2.15392944e+00
C     2.709220175831431e+00   2.517455832306334e+00   4.531447538591048e+00 -1.01418363e+00   4.95921422e+00  -3.59695053e+00
C     7.784137900781007e-01   2.552966739431033e+00   6.217683810375897e+00  3.77978146e+00   5.20688556e+00   1.11183665e+00
C     2.635503842903698e+00   8.797152099934588e-01   6.143445648143629e+00  1.98983410e+00  -2.89689670e-01   4.99795586e+00
C     3.521456906998885e+00   7.509053318863199e-03   3.614872882617651e+00 -5.51529600e-02  -1.00279786e+00  -8.72673980e-01
C     5.288919915630629e+00   1.848568973378325e+00   3.499992385139759e+00  7.86334710e-01  -2.41305273e+00   4.38506890e-01
C     3.660896791376198e+00   1.709348383838839e+00   5.298579977634304e+00 -3.00673227e+00   7.86465010e-01   1.99133273e+00
C     5.369197038299718e+00   7.074256484266553e+00   5.324226739941907e+00  7.85364350e-01   2.14766473e+00  -1.95406135e+00
C     4.476581960525066e+00   9.110008707128289e-01   4.367892614812290e+00  7.86114400e-02  -1.74565428e+00   2.21073656e+00
C     6.169080326132778e+00   2.651284043530515e+00   4.383776811662037e+00  2.67880355e+00   2.48289172e+00  -1.65138960e-01
C     4.462074096463003e+00   2.656419239115429e+00   6.186626258938403e+00  1.43823301e+00  -1.74348900e-01   4.50393980e-01
C     6.243401159320117e+00   8.984564240626364e-01   6.221395686499609e+00 -1.40376322e+00  -1.73789729e+00   4.34199400e-01
C     9.929904834753019e-02   3.499657862771262e+00   3.490680422591786e+00 -1.77358000e+00   3.17273722e+00   1.43538022e+00
C     1.804237082456016e+00   5.392036684514682e+00   3.629219740907371e+00  1.39085950e-01  -8.50915530e-01  -3.31078265e+00
C     7.084074637589298e+00   5.332991709369272e+00   5.326609767541036e+00  1.39321346e+00  -7.27151290e-01  -2.82740600e-01
C     1.789293258834668e+00   3.522970503427362e+00   5.294607791074249e+00  2.05239930e-01  -9.87194420e-01   2.30931492e+00
C     9.727306970818137e-01   4.494566340837893e+00   4.439314775423645e+00 -2.51834625e+00  -3.05054014e+00   5.18860950e-01
C     2.658255344678175e+00   6.207288666389088e+00   4.528669993536509e+00 -3.19402840e-01   2.03706735e+00  -3.20689030e-01
C     8.388000534876794e-01   6.290208558419840e+00   6.236223287411120e+00 -1.68540827e+00  -2.75681203e+00  -3.96306330e-01
C     2.666528908849819e+00   4.388166262629887e+00   6.218464386263800e+00 -1.91231700e-02   1.37776912e+00  -9.35896880e-01
C     3.530422547196813e+00   3.498063017072239e+00   3.589991270920865e+00 -1.34614377e+00   2.19059253e+00  -5.45964930e-01
C     5.281877814593674e+00   5.382212346864259e+00   3.499779843303422e+00  1.42241992e+00  -1.55364935e+00   3.47510730e-01
C     3.567846259764327e+00   5.333416224368138e+00   5.331631228364030e+00  2.77726730e-01  -1.31937388e+00   9.28733180e-01
C     5.367057474175324e+00   3.677521330441819e+00   5.213003596986232e+00 -8.24548530e-01  -4.89649387e+00   3.86265782e+00
C     4.395288049084413e+00   4.446904153918115e+00   4.413069412847212e+00  1.59096159e+00   1.08244636e+00  -8.46642330e-01
C     6.260536225298305e+00   6.200670938182546e+00   4.353731073100274e+00 -2.80321557e+00  -4.47244570e-01   3.87665446e+00
C     4.564952448852383e+00   6.186679003434243e+00   6.166827667004500e+00 -3.64743054e+00   1.40840207e+00   2.43219269e+00
C     6.210872804158318e+00   4.362295798262433e+00   6.267468856626913e+00  6.73265280e-01   4.41303098e+00  -2.02587353e+00
