64
Lattice="7.10842262195238 0 0 0 7.10842262195238 0 0 0 7.10842262195238 " PBC="1 1 1" Properties=species:S:1:pos:R:3:force:R:3 Energy="-512.82648059"
C     7.100453154148039e+00   1.230659882932740e-02   2.940299498846320e-02  6.89843900e-02  -7.16711170e-01  -3.06320920e-01
C     1.775810784735541e+00   1.742784200232306e+00   7.085075432409966e+00  4.94374890e-01   9.92620520e-01   1.95214754e+00
C     4.690179895211720e-02   1.762292128765277e+00   1.801109945177026e+00 -2.27617112e+00   1.79000938e+00   2.73681700e-01
C     1.772472314052058e+00   1.042080539246760e-02   1.827084192514732e+00 -3.05571070e-01   1.41783600e-01  -2.52970794e+00
C     8.845614481988699e-01   9.064887283705578e-01   9.326378429047161e-01  4.11335980e-01  -9.80787000e-01  -1.43133210e+00
C     2.701128302941954e+00   2.656988126177708e+00   8.857851631529030e-01 -8.57645200e-01  -2.10034810e-01  -7.18615190e-01
C     9.342814523829125e-01   2.708570750340868e+00   2.637655775683450e+00 -7.70430180e-01  -1.36161976e+00   5.70348380e-01
C     2.654422980791054e+00   8.984187494227502e-01   2.666798957825153e+00  6.29046790e-01  -1.13942234e+00   1.15595727e+00
C     3.552177945709549e+00   4.548466381859399e-03   7.096521130175786e+00  6.01884970e-01  -5.29021800e-01   1.04209197e+00
C     5.372113126511120e+00   1.818360238685884e+00   2.821190769425600e-02 -1.64917212e+00  -1.96859655e+00  -5.08713100e-01
C     3.550848386342704e+00   1.739588466675033e+00   1.815384155387569e+00  4.63400320e-01   2.12636523e+00  -1.60862691e+00
C     5.307894854635553e+00   1.929488910704940e-02   1.838839604254104e+00  2.74216820e-01  -7.11429370e-01  -2.91476342e+00
C     4.456043381796422e+00   8.818125500874897e-01   9.065637222291988e-01 -6.77804610e-01   8.28749060e-01   3.72714530e-01
C     6.189885968299257e+00   2.706966023934403e+00   9.317178708492355e-01  1.77098419e+00  -6.45550090e-01  -8.03043860e-01
C     4.431792784775613e+00   2.720568559291583e+00   2.660937281448474e+00 -1.64888280e-01  -2.48839304e+00   2.13863800e-01
C     6.190407939772243e+00   8.810446982760773e-01   2.691582828710914e+00  8.66233290e-01   1.02074355e+00  -6.54348240e-01
C     1.318612396010000e-03   3.563272203061036e+00   2.778419390521060e-02  4.23493160e-01  -2.93756200e-02  -1.13427040e+00
C     1.788134799200287e+00   5.324423714332707e+00   7.079998028300953e+00 -1.11495946e+00   1.28080516e+00  -5.28563060e-01
C     5.230946037605599e-03   5.336014210667296e+00   1.763135329856462e+00  9.08782300e-02   7.72330400e-01  -8.62578100e-02
C     1.791101925886101e+00   3.588189641207826e+00   1.725963610870827e+00  1.62811030e-01  -1.50713443e+00   5.01435100e-01
C     9.328140607014658e-01   4.491919022085752e+00   8.427535448962448e-01 -1.91342307e+00  -1.63545919e+00   1.39635492e+00
C     2.612631426860455e+00   6.215746267622364e+00   8.385024238325799e-01  1.99504181e+00   4.75846760e-01   2.19658506e+00
C     8.998248665012126e-01   6.255288858804447e+00   2.669719666511258e+00 -1.27309910e+00  -1.13762070e+00   3.26958220e-01
C     2.663195342977943e+00   4.382912285302993e+00   2.635679349858186e+00  4.18419600e-02   3.20391621e+00   5.89648320e-01
C     3.590562859183739e+00   3.551883088339271e+00   7.081223164939511e+00 -1.02779874e+00  -1.57585060e-01   9.46904610e-01
C     5.357863013853258e+00   5.326144308027878e+00   1.726493685945600e-03 -8.00621910e-01   8.07782470e-01   2.27052330e-01
C     3.519452687241176e+00   5.312266818883757e+00   1.759816194082505e+00  8.16992870e-01   7.96601510e-01  -5.42302700e-01
C     5.271468169424720e+00   3.610529920733736e+00   1.760941528467477e+00  2.04006375e+00  -1.82237841e+00   1.15072566e+00
C     4.445815925499218e+00   4.459159998609935e+00   8.806808181221596e-01 -6.13395030e-01   2.52775740e-01  -8.05021200e-01
C     6.193775341735789e+00   6.247314843562011e+00   8.664835921285908e-01  1.14121838e+00  -9.70645750e-01   2.25451861e+00
C     4.417673253841281e+00   6.235070656683287e+00   2.654636304553880e+00 -6.84259710e-01  -1.03321105e+00   4.32934040e-01
C     6.204115040026163e+00   4.427435179541101e+00   2.658499945500529e+00  4.25960540e-01   1.93451634e+00  -6.74741160e-01
C     7.061937303529189e+00   2.741874989831640e-02   3.543529696581605e+00  1.85989556e+00  -8.63728740e-01   1.14816954e+00
C     1.836295144377275e+00   1.770890832187560e+00   3.589777378484229e+00 -2.35211070e+00   9.49027130e-01  -1.72044937e+00
C     1.634994069980960e-02   1.757420086985755e+00   5.334303142258435e+00 -9.03440740e-01   1.15896725e+00  -1.35339690e-01
C     1.762837273696005e+00   3.465277834601180e-02   5.366228987518963e+00 -6.91416510e-01  -2.07916196e+00  -1.72641361e+00
C     8.782880519840414e-01   9.329705170833319e-01   4.438253914431836e+00  5.00193080e-01  -1.62277628e+00   2.46341920e-01
C     2.705067293168375e+00   2.616556342410088e+00   4.436195315241084e+00 -9.98868000e-03   1.88782842e+00   9.16625580e-01
C     9.012763353159904e-01   2.626565499048632e+00   6.226531948347916e+00 -2.14147490e-01   1.26323877e+00   2.40745000e-03
C     2.661661985134583e+00   8.638058493276367e-01   6.229524665355163e+00  1.98865860e-01   7.07980200e-01  -2.69821630e-01
C     3.501812283498932e+00   7.073224483470582e+00   3.552452259738455e+00  1.13219543e+00   2.98187390e-01   9.19613640e-01
C     5.313320571452945e+00   1.765770635374374e+00   3.554573128711358e+00  1.37007510e-01   1.06267862e+00   3.04280970e-01
C     3.542582286014811e+00   1.746685871239972e+00   5.342749156762841e+00  1.32412898e+00  -2.37001040e-01  -7.83424700e-02
C     5.346206622440983e+00   7.089018616605733e+00   5.317447152952308e+00 -7.64839940e-01  -1.41563800e-01   1.63851476e+00
C     4.426355054723992e+00   8.273167521662004e-01   4.464530198646666e+00 -1.69195170e-01   1.57904002e+00  -8.02375930e-01
C     6.242369585029502e+00   2.676967414214610e+00   4.398055855599963e+00 -7.58081240e-01  -8.02155860e-01   1.74148893e+00
C     4.449287465854147e+00   2.641071870341944e+00   6.213155034324696e+00  5.54120280e-01   7.64175950e-01   2.11526800e-02
C     6.212013563820376e+00   8.393625429696000e-01   6.252443570482340e+00  8.70870620e-01   2.68717968e+00  -1.21131143e+00
C     3.172489015306000e-03   3.563526542422379e+00   3.502270136999886e+00  7.32032320e-01  -5.10211920e-01   1.53720424e+00
C     1.799661817320879e+00   5.358923448339711e+00   3.533021244338232e+00 -1.74397313e+00  -2.29913429e+00   7.07881400e-01
C     7.106149275361897e+00   5.318715153379264e+00   5.320604216690529e+00  2.95536460e-01   3.23863320e-01  -2.48690090e-01
C     1.843689112333921e+00   3.548543480308169e+00   5.343079129740862e+00 -2.34558870e+00  -1.12000964e+00  -6.16359220e-01
C     9.250418535772101e-01   4.411972867573851e+00   4.455598323456184e+00 -1.00941571e+00   1.09663666e+00  -1.30699243e+00
C     2.607537104705606e+00   6.163713040549322e+00   4.469719773664623e+00  2.10241016e+00   2.41505620e+00  -5.30106600e-01
C     8.632230297570229e-01   6.226161883866319e+00   6.205531251064746e+00  4.34982780e-01   2.18886610e-01   7.19314630e-01
C     2.652418689949119e+00   4.455117865171298e+00   6.217901754613426e+00  1.82786082e+00  -1.26767092e+00   2.22895000e-03
C     3.544365860334395e+00   3.560783544301773e+00   3.535877479631174e+00  5.73629350e-01  -9.76602190e-01   6.94469990e-01
C     5.321117729140598e+00   5.360362832836034e+00   3.529082467364490e+00 -1.98696820e-01  -1.21649167e+00   7.17347040e-01
C     3.537949371572226e+00   5.299116734626340e+00   5.333069617681187e+00  7.88121280e-01   1.19687624e+00   2.43195570e-01
C     5.333265312555915e+00   3.564746489912423e+00   5.339445019760612e+00  2.88672020e-01  -7.18781450e-01  -1.38234929e+00
C     4.439577076218323e+00   4.434412878269119e+00   4.427570950413142e+00 -3.21315630e-01   6.61051420e-01   3.55185680e-01
C     6.198329423771519e+00   6.216878283924599e+00   4.435265817899293e+00  1.03125070e+00  -1.63550110e-01  -3.44876670e-01
C     4.488553397227861e+00   6.225540892066236e+00   6.268860685775909e+00 -2.01883640e+00  -7.76308900e-01  -2.40667200e+00
C     6.223214021005805e+00   4.456438325757189e+00   6.210021641633800e+00  2.56141030e-01  -8.37100580e-01   5.09425320e-01
