64
Lattice="7.10842262195238 0 0 0 7.10842262195238 0 0 0 7.10842262195238 " PBC="1 1 1" Properties=species:S:1:pos:R:3:force:R:3 Energy="-510.88499955"
C     4.522079917093960e-02   7.034825495319604e+00   7.097732192137555e+00 -1.32214189e+00   1.24993637e+00  -3.63735760e-01
C     1.732042094137415e+00   1.742277796204858e+00   7.044580312596803e+00  7.03119360e-01   1.15487551e+00   2.12155478e+00
C     8.619104595202398e-03   1.658976537300542e+00   1.790889952723573e+00  2.20414590e-01   3.26296292e+00  -1.99594624e+00
C     1.826615249874490e+00   7.536847251307400e-03   1.776926025160393e+00 -1.52919516e+00  -1.65939759e+00  -1.82661380e-01
C     9.276382049391653e-01   7.954603561946704e-01   8.419038040562500e-01 -9.20067420e-01   1.83611989e+00   1.34455246e+00
C     2.552968658705140e+00   2.672191620477363e+00   8.859936531883476e-01  2.71941774e+00  -8.79920400e-02   4.58499970e-01
C     8.161329997739282e-01   2.650183233203581e+00   2.668718800606362e+00  1.71238935e+00  -7.42064060e-01   6.59352190e-01
C     2.679369634554813e+00   8.966184703100093e-01   2.640667187842187e+00  1.95799700e-02  -4.74175570e-01  -3.92547120e-01
C     3.597794328599292e+00   6.680012205537840e-02   7.055812402262892e+00 -1.02190915e+00  -1.07558564e+00   1.01762009e+00
C     5.333835905639623e+00   1.849553987500778e+00   7.017804803861371e+00  2.74015200e-01  -5.72708250e-01   1.20883371e+00
C     3.523435109929805e+00   1.787530085688004e+00   1.779353906906254e+00  1.82053445e+00   7.30601420e-01  -1.09375377e+00
C     5.376574017126301e+00   5.305200620294120e-02   1.670162777640731e+00 -1.13562959e+00  -1.45906297e+00   1.40308405e+00
C     4.478192444753854e+00   1.000043389314640e+00   7.672993448063736e-01 -1.28928683e+00  -2.60054517e+00   2.89913500e+00
C     6.197415636043718e+00   2.650580309691135e+00   8.904253281865603e-01  7.98091880e-01   2.84130130e-01   1.51723790e-01
C     4.518902096761689e+00   2.634149475141909e+00   2.743102543333888e+00 -3.84637819e+00   2.54735641e+00  -3.01084141e+00
C     6.240256677489934e+00   8.337001867631866e-01   2.621090876283612e+00 -2.95842310e-01   1.09455719e+00   1.84974328e+00
C     7.088144707128831e+00   3.599421944126593e+00   2.568969718022760e-02 -1.13573110e+00  -2.76735867e+00  -2.58831520e-01
C     1.796007163999259e+00   5.323555065088543e+00   7.061886407223229e+00 -6.98780370e-01   2.00301820e-01   2.56898842e+00
C     7.074086521881709e+00   5.297258806206151e+00   1.793931504594219e+00  1.41643719e+00   3.84593380e-01   5.50563270e-01
C     1.692329114065130e+00   3.546476564262952e+00   1.812294408411560e+00  1.12295339e+00  -6.42526800e-01  -4.40631930e-01
C     8.569037131320691e-01   4.373165358374901e+00   9.158715618920529e-01  3.53037970e-01   3.72775422e+00  -4.99241300e-01
C     2.660558118185924e+00   6.219749731241948e+00   8.799877469167096e-01  1.65441781e+00  -9.62005800e-02   9.99575000e-02
C     8.951668593267790e-01   6.212096092606994e+00   2.724910383827879e+00  1.68796160e-01  -4.72894540e-01  -1.23124326e+00
C     2.630100446533331e+00   4.423151430817610e+00   2.724752861182620e+00  4.70572950e-01   5.57862620e-01  -1.58797529e+00
C     3.526065013046527e+00   3.592148392849130e+00   3.108015622142600e-02 -6.80463900e-02  -1.66703733e+00  -5.45289760e-01
C     5.281495807962075e+00   5.299750237250235e+00   7.101877682041087e+00  9.91746880e-01   1.04274926e+00   1.33546616e+00
C     3.555377091309680e+00   5.304232239880597e+00   1.810785645710465e+00  3.58367780e-01   9.00100420e-01  -5.47842610e-01
C     5.327931223306094e+00   3.542452486217770e+00   1.830639541172351e+00  3.46875410e-01  -7.46085330e-01  -4.20986200e-01
C     4.451481196158906e+00   4.404158080998101e+00   9.537693351640948e-01 -1.58078161e+00   8.53862560e-01  -1.23198836e+00
C     6.230641327464538e+00   6.172430738966263e+00   8.660747156594883e-01 -1.80568150e-01   8.28863640e-01  -3.16916140e-01
C     4.535717212637751e+00   6.252981464821995e+00   2.619753426567659e+00 -2.55419025e+00  -3.58584050e-01   4.45535330e-01
C     6.194786230516580e+00   4.426895010506207e+00   2.718364095268668e+00  1.42821669e+00   1.29016970e-01  -3.49901550e-01
C     7.092778758919035e+00   7.089731093804936e+00   3.613456458326390e+00  1.42704720e+00   4.78536800e-01  -2.41513824e+00
C     1.784939847569502e+00   1.753066960057494e+00   3.511383490219857e+00 -1.56811578e+00   1.01401116e+00   1.35921318e+00
C     7.076690621424319e+00   1.758028212540896e+00   5.353259386111868e+00  2.98239282e+00   3.72756960e-01  -6.12052720e-01
C     1.819018478620496e+00   2.621387226422640e-02   5.329473466677729e+00 -8.93476570e-01  -7.94758440e-01  -9.20719030e-01
C     8.629246892596616e-01   8.706319964853966e-01   4.435033159226941e+00  1.82648409e+00   1.02298808e+00   4.83131500e-01
C     2.649149455301954e+00   2.660629131327898e+00   4.421772610082009e+00 -1.06963267e+00   2.22039100e-01   5.40155700e-01
C     8.243378965830632e-01   2.671760707898139e+00   6.242021912079158e+00  1.44439636e+00  -1.24812660e-01  -5.73687510e-01
C     2.698418501154984e+00   9.363090588510412e-01   6.172471114806744e+00 -1.70584286e+00  -1.34292126e+00   7.50761330e-01
C     3.568803551038562e+00   1.907431475315080e-02   3.496662160226516e+00  9.54686560e-01  -5.11386050e-01   1.79486570e-01
C     5.403396654703704e+00   1.839791848548280e+00   3.549742742288389e+00 -1.26743340e+00  -4.31204435e+00   9.12678550e-01
C     3.502984604557422e+00   1.786930845661138e+00   5.292463606475152e+00  2.14111562e+00   8.84572780e-01  -5.53519240e-01
C     5.316372004031034e+00   2.896753301876200e-02   5.315256550353503e+00  8.54982380e-01  -5.88418710e-01   8.09537000e-03
C     4.400292023187762e+00   8.924960827799926e-01   4.385487595733992e+00  2.10271328e+00   7.73132920e-01   1.26441300e+00
C     6.270007985186776e+00   2.595982292652570e+00   4.520086004549050e+00 -2.35789089e+00   4.06504992e+00  -2.70636827e+00
C     4.409413195672615e+00   2.702571525986493e+00   6.162287019887523e+00 -8.80716500e-02  -8.44661800e-02   1.06021211e+00
C     6.244642858583378e+00   9.180042308465054e-01   6.165194009317972e+00 -1.79547813e+00  -1.92251008e+00   2.53800348e+00
C     7.099693903527997e+00   3.563562013451252e+00   3.635573035792449e+00  4.75336030e-01  -1.19872504e+00  -1.41681943e+00
C     1.806060250689594e+00   5.324600216466362e+00   3.636287076844627e+00 -1.07497666e+00   5.78948950e-01  -2.19745098e+00
C     7.107531721393035e+00   5.350721394899623e+00   5.339343937990956e+00  3.36033770e-01  -7.52454130e-01   1.49466282e+00
C     1.767063302027821e+00   3.562311784080848e+00   5.377105940390956e+00 -3.47016730e-01  -7.28565640e-01  -1.10611510e+00
C     8.989813099888971e-01   4.460712975699726e+00   4.492801319501347e+00 -3.18264090e-01  -5.80352250e-01   2.40289400e-02
C     2.714165292195487e+00   6.253750240728349e+00   4.404863805195815e+00 -7.03936240e-01  -9.77664150e-01   1.54120045e+00
C     9.150014909633649e-01   6.205432586158779e+00   6.220728276699817e+00  2.95565210e-01  -1.26687980e-01  -7.56751740e-01
C     2.672656440232485e+00   4.464041921096898e+00   6.220030656103891e+00 -6.67619200e-02  -5.09138420e-01   3.03263650e-01
C     3.505971634826573e+00   3.552433635671191e+00   3.560039079200781e+00  2.64275864e+00  -4.71867210e-01   1.02226556e+00
C     5.403763093889766e+00   5.363113934558426e+00   3.563194579086025e+00 -2.05254345e+00   8.17067400e-02   6.67104690e-01
C     3.549415470510965e+00   5.326195630839194e+00   5.330728743028195e+00  1.19932643e+00   1.44901172e+00   4.19269000e-03
C     5.318786593026594e+00   3.573338298164765e+00   5.316759768484954e+00  4.40096400e-02  -1.33953411e+00   8.76207960e-01
C     4.453589554307998e+00   4.448731871542169e+00   4.483064628701828e+00 -5.26475130e-01   8.73277820e-01  -2.39951902e+00
C     6.296578487013848e+00   6.253683208303042e+00   4.501684573081108e+00 -3.46332586e+00  -1.12920621e+00  -1.45181616e+00
C     4.461363751790587e+00   6.244077881153541e+00   6.226338101663069e+00 -1.00612772e+00  -4.79064320e-01  -6.64157010e-01
C     6.139770949070221e+00   4.432378021209918e+00   6.247641262328720e+00  2.54702148e+00   7.85542240e-01  -8.90403970e-01
