64
Lattice="7.10842262195238 0 0 0 7.10842262195238 0 0 0 7.10842262195238 " PBC="1 1 1" Properties=species:S:1:pos:R:3:force:R:3 Energy="-514.25316457"
C     7.105440707795136e+00   1.265299226360000e-03   9.754817277199800e-03  9.80305400e-02   1.09460380e-01  -5.61983870e-01
C     1.780935317686525e+00   1.790440700413989e+00   6.586877652370600e-03  2.73166540e-01  -1.25220960e+00   2.10541200e-02
C     7.103462647032669e+00   1.791802887440660e+00   1.768450439617888e+00  2.48141750e-01  -3.02513200e-01   8.53547850e-01
C     1.751477374591209e+00   7.158892420602001e-04   1.789205327646859e+00  1.09429589e+00   2.12830100e-01  -2.50866470e-01
C     8.853447252873679e-01   8.850302486706590e-01   8.986309358379575e-01 -1.19932610e-01   4.83798450e-01  -1.76825230e-01
C     2.678079100428152e+00   2.658657183808883e+00   9.093941539480304e-01 -5.75224880e-01   8.72384520e-01  -9.90692780e-01
C     8.946937227171918e-01   2.670181500728880e+00   2.694362861713369e+00 -5.81089250e-01  -3.37552400e-01  -9.70300510e-01
C     2.660610080755276e+00   9.290756701613817e-01   2.677760643094776e+00 -4.85202320e-01  -1.68360315e+00   6.95703200e-02
C     3.528679490886163e+00   7.096102230830789e+00   2.713711419411200e-03  5.57704290e-01  -5.73654300e-02  -6.08098000e-03
C     5.318219411985745e+00   1.778863496829700e+00   1.369714846225180e-02  3.00359400e-01  -7.26933690e-01  -4.42049270e-01
C     3.546834189004964e+00   1.804164647629518e+00   1.796226103415955e+00  1.07624950e-01  -1.43078148e+00  -1.08834080e-01
C     5.347387473606617e+00   7.086194084877676e+00   1.794397106275828e+00 -8.57012110e-01   1.66462347e+00  -1.58903330e-01
C     4.419254095947743e+00   8.795856234490962e-01   9.195646006958216e-01  5.93895990e-01   3.31721500e-02  -8.16070710e-01
C     6.233750835855431e+00   2.653486801532000e+00   8.754911720199762e-01 -3.31402490e-01   9.02381900e-01  -3.11215790e-01
C     4.450469596535854e+00   2.636581764109795e+00   2.661065304139861e+00  6.20066240e-01   1.72474051e+00   8.15729700e-02
C     6.210665309302041e+00   9.266212029149217e-01   2.679033903754471e+00  6.65684370e-01  -1.67202573e+00  -5.16226400e-02
C     2.733615002747200e-02   3.559639728017990e+00   7.102431712500090e+00 -6.57956480e-01   1.47773510e-01  -1.67752590e-01
C     1.762023288221789e+00   5.321977848277617e+00   2.824666788086780e-02  7.81074130e-01   2.18393440e-01  -1.44305681e+00
C     7.101456508000853e+00   5.368370115496333e+00   1.753685321741207e+00 -4.16770080e-01  -1.31519273e+00   9.21700290e-01
C     1.770987222398287e+00   3.557994128181459e+00   1.773565873787919e+00  3.79312610e-01  -2.05656820e-01   7.95169460e-01
C     8.815730673294220e-01   4.460589715651495e+00   9.043400654652103e-01  2.09662900e-01  -7.22396690e-01  -4.14413410e-01
C     2.662904892829690e+00   6.209216612772084e+00   8.767834832522922e-01 -2.52057750e-01   1.81096180e-01   1.12923963e+00
C     8.525333838210669e-01   6.217643008030059e+00   2.661909571494438e+00  1.23061188e+00   6.56390520e-01  -1.27162550e-01
C     2.671404220503746e+00   4.421857911153449e+00   2.657220713765834e+00  2.61745340e-01   1.07007734e+00  -2.82463760e-01
C     3.567285973893418e+00   3.551882235328557e+00   7.105223403315643e+00 -8.07826480e-01   3.57305390e-01  -1.62499950e-01
C     5.333167003071081e+00   5.322522566702989e+00   1.490550922342560e-02 -6.19511100e-02   7.71753220e-01  -1.44183090e+00
C     3.593314671748394e+00   5.322650376141696e+00   1.766281375539621e+00 -1.75758496e+00   3.62709110e-01   3.00604710e-01
C     5.339772078285359e+00   3.554531473354805e+00   1.730058986394887e+00 -1.02424490e-01  -1.54864650e-01   1.52695557e+00
C     4.435713790692805e+00   4.454301249580713e+00   8.667869796060124e-01  9.77920880e-01  -9.46154820e-01   4.17046920e-01
C     6.211266113181883e+00   6.239866354003870e+00   8.767232038284746e-01  1.04696230e-01  -5.69087210e-01   4.56288500e-01
C     4.448746159471635e+00   6.224714040347077e+00   2.662986497521368e+00 -1.16953000e-03  -8.37472200e-02   6.73340770e-01
C     6.215924617945900e+00   4.450950836747228e+00   2.651680338091579e+00 -2.66722680e-01  -5.90007800e-02   1.12163200e-02
C     1.852803247480380e-02   7.107430355286474e+00   3.564368890502849e+00 -1.51484532e+00   2.51788410e-01  -1.07572530e-01
C     1.758208553222766e+00   1.750384738950289e+00   3.591999471395241e+00  7.32897030e-01   1.43316801e+00  -1.61818876e+00
C     2.269690908875520e-02   1.775733729434340e+00   5.344514817857423e+00 -3.40748040e-01  -7.55247480e-01  -1.95922750e-01
C     1.778030531867088e+00   7.068483165583042e+00   5.291903036267338e+00  1.70915500e-02   1.11394983e+00   2.31200800e+00
C     8.992950046791177e-01   8.637855903231698e-01   4.456841515488195e+00 -2.53558260e-01   3.06938240e-01  -6.42017300e-02
C     2.666722186860857e+00   2.679947264976914e+00   4.386425196677571e+00  1.43985020e-01  -8.63156430e-01   2.54381343e+00
C     9.169070458151084e-01   2.661298673654475e+00   6.214433626301355e+00 -3.97598640e-01   2.56160370e-01   4.48831590e-01
C     2.657119987417308e+00   8.579530584792336e-01   6.225187958883152e+00  3.74316900e-02   1.05953428e+00  -7.59099850e-01
C     3.548386810673624e+00   1.869664425935020e-02   3.567452310982726e+00  3.02401310e-01   9.59037400e-02  -9.53135420e-01
C     5.341058063021543e+00   1.786677643647413e+00   3.585263103615172e+00 -3.30724730e-01  -5.49600000e-01  -1.10611408e+00
C     3.559031531378622e+00   1.777189250050011e+00   5.316909400781105e+00 -9.70361280e-01   2.09814080e-01   6.39930300e-01
C     5.303346672590598e+00   2.203582578509520e-02   5.336664702421252e+00  1.20762047e+00  -1.32639783e+00   4.06185270e-01
C     4.436935230951599e+00   9.083005942121695e-01   4.464955140150890e+00  3.60225540e-01  -5.60504110e-01  -6.98780670e-01
C     6.240140312611644e+00   2.646189792459892e+00   4.440008628555583e+00 -6.31034860e-01   6.88831410e-01   8.83120820e-01
C     4.420197525797869e+00   2.668860969058763e+00   6.215495198135426e+00  9.78298270e-01  -5.67753750e-01   3.95184230e-01
C     6.234094457004882e+00   8.621462458985454e-01   6.223069933279298e+00 -9.98752940e-01   1.44226487e+00   2.43507480e-01
C     7.095530500399463e+00   3.546969035782065e+00   3.555834233968372e+00  3.95201890e-01   6.64696680e-01  -5.55838600e-02
C     1.761971965410472e+00   5.348568395856478e+00   3.524634940583835e+00  5.68449930e-01  -1.24246624e+00   6.62565020e-01
C     1.967398128537400e-02   5.353007250361537e+00   5.319092966041517e+00 -9.55472080e-01  -7.67986140e-01   9.68569510e-01
C     1.791411639859655e+00   3.538732577576498e+00   5.338465976713160e+00 -5.13484800e-02   9.03826350e-01  -1.14476295e+00
C     8.716197828926717e-01   4.448264990344486e+00   4.448475541822491e+00  8.96416390e-01  -1.34779600e-01  -3.97300440e-01
C     2.669460635590986e+00   6.225653205143631e+00   4.425097788015193e+00 -3.15501380e-01  -3.68522360e-01  -4.62856700e-01
C     8.789578075632978e-01   6.220579639582833e+00   6.230726059862169e+00  6.99315830e-01  -3.15133310e-01  -3.59491100e-01
C     2.677741805774833e+00   4.438031705140735e+00   6.203381379727553e+00 -5.13528930e-01   1.44052630e-01   4.67948040e-01
C     3.586022496403667e+00   3.547203329391620e+00   3.541636794722125e+00 -1.32586046e+00   6.03284400e-02  -6.70072210e-01
C     5.316829217773952e+00   5.338650013774792e+00   3.575285650541514e+00  8.69989710e-01  -4.92529730e-01  -1.04194880e+00
C     3.563293670497348e+00   5.347240400342609e+00   5.291016118377041e+00 -6.96689070e-01  -1.24608440e+00   9.32709480e-01
C     5.326483379786852e+00   3.521938360462938e+00   5.345671642554601e+00  6.01659760e-01   1.61232589e+00  -7.55977190e-01
C     4.436238107945257e+00   4.436920374348325e+00   4.411783428111028e+00  5.98493120e-01  -1.89817660e-01   1.24874410e+00
C     6.222074683028271e+00   6.203252575109678e+00   4.468052279886424e+00 -5.17242400e-01   1.39919892e+00  -1.01519853e+00
C     4.420068294674637e+00   6.194782605221043e+00   6.209534999021234e+00  7.60553310e-01   1.23329658e+00   3.73924510e-01
C     6.240733510479283e+00   4.477138692184665e+00   6.209331058376267e+00 -5.61657780e-01  -1.72377029e+00   4.80874150e-01
