64
Lattice="7.10842262195238 0 0 0 7.10842262195238 0 0 0 7.10842262195238 " PBC="1 1 1" Properties=species:S:1:pos:R:3:force:R:3 Energy="-511.72417642"
C     6.734946095545200e-03   8.677820166043600e-03   4.341469115165000e-03 -2.76090820e-01  -1.16682427e+00   1.91164760e-01
C     1.777733328717346e+00   1.763842617907152e+00   1.101705988183320e-02 -1.31101500e-02   1.01860828e+00  -6.58739250e-01
C     7.073644235826293e+00   1.713924146563559e+00   1.757441909843199e+00  1.89667643e+00   2.01916375e+00   3.53819770e-01
C     1.812441410591342e+00   1.335644176607520e-02   1.764666910594167e+00 -2.04502303e+00  -1.10208343e+00   6.60254510e-01
C     8.760923313209495e-01   8.846139083578055e-01   8.638675504359783e-01  1.35566259e+00  -7.22979150e-01   1.05223294e+00
C     2.617766124855786e+00   2.700058414253418e+00   9.193472962163282e-01  8.57022070e-01  -2.28346167e+00  -1.11857242e+00
C     8.561448179331580e-01   2.652157668670513e+00   2.653451046166222e+00 -6.93090640e-01   9.67456600e-01   3.31049800e-02
C     2.645696681182742e+00   8.788794727460254e-01   2.688062311324133e+00  5.56271650e-01   7.86403010e-01  -1.79426140e+00
C     3.552828082042374e+00   7.086650516694107e+00   7.094160920613268e+00  1.42277619e+00   6.27571260e-01  -8.25079300e-02
C     5.366419493245179e+00   1.837670481985793e+00   7.090465536030035e+00 -7.44081320e-01  -1.40821455e+00  -7.48722450e-01
C     3.515564735489167e+00   1.796279558754057e+00   1.791694412911478e+00  1.20824575e+00  -9.90820860e-01  -4.04535250e-01
C     5.345301293736100e+00   2.262831281047220e-02   1.685787374896396e+00 -1.98765070e-01  -1.83701532e+00   3.22549012e+00
C     4.497400895441844e+00   8.972707391696204e-01   8.188509051626852e-01 -2.08097012e+00   6.45543200e-01   1.56184615e+00
C     6.269797220456094e+00   2.664009470620612e+00   8.575283302276886e-01 -2.77241613e+00  -1.16555810e-01   2.69301650e+00
C     4.405328696035163e+00   2.650421862950935e+00   2.705203703798453e+00  2.01636501e+00  -4.75202500e-01  -1.40379548e+00
C     6.245997084176715e+00   8.596726569952378e-01   2.661633124938747e+00 -1.68023491e+00   7.08579360e-01  -6.33494520e-01
C     9.725743828684000e-04   3.563700059018533e+00   4.164959873087780e-02  7.54456800e-02   2.55207200e-02  -1.92452657e+00
C     1.801878010241116e+00   5.341475185260885e+00   7.071625301633761e+00 -1.10651539e+00  -1.92646660e-01   1.26674223e+00
C     7.098269304550723e+00   5.306229990973723e+00   1.791326480956667e+00  4.08340310e-01   3.11214970e-01  -8.95506500e-02
C     1.709554030505235e+00   3.515443963388853e+00   1.767646974609149e+00  1.20517773e+00   2.61683481e+00   1.33333150e-01
C     8.626281969521814e-01   4.455737861792215e+00   8.493006864661696e-01  1.36472768e+00  -3.48014060e-01   1.93985238e+00
C     2.675045154569710e+00   6.202028646902967e+00   8.868755240985848e-01 -1.14440990e-01   6.22263240e-01  -1.08524800e-01
C     8.720042774721876e-01   6.211090677311621e+00   2.696888626438708e+00  9.21808720e-01   5.00082300e-01  -5.92744050e-01
C     2.672774155711072e+00   4.444627539405607e+00   2.651740191010040e+00 -1.70409590e+00  -9.56532850e-01   7.47147610e-01
C     3.544910507675540e+00   3.528278646934621e+00   3.379166402982500e-02 -2.51854410e-01   8.02990230e-01  -1.05910228e+00
C     5.333442596616059e+00   5.322275620101170e+00   7.090122767891298e+00 -1.66104840e-01  -1.31501794e+00   1.68071102e+00
C     3.543001327528260e+00   5.297783763216637e+00   1.773540070213808e+00  1.69478330e-01   6.44859100e-01   4.58699970e-01
C     5.307058690882761e+00   3.519700202516804e+00   1.816668078681194e+00  4.20030810e-01   6.65654500e-01  -8.18909790e-01
C     4.402027899991566e+00   4.384902430383915e+00   9.437613158731706e-01  1.76677920e+00   1.08508065e+00  -1.90396590e+00
C     6.224927293025678e+00   6.146200090824654e+00   9.133008008515300e-01 -3.93163640e-01   3.00253641e+00  -1.64059986e+00
C     4.425704705138489e+00   6.203348680983501e+00   2.668814906480184e+00  9.07218110e-01   1.35880687e+00  -1.81043526e+00
C     6.184124520681521e+00   4.448461040640346e+00   2.671461798726968e+00  1.03499470e+00  -5.96351760e-01   3.79454640e-01
C     7.062043005773548e+00   2.013105285984000e-04   3.615540647838574e+00  3.24033693e+00   1.51098081e+00  -3.25866824e+00
C     1.730054721341315e+00   1.810482755822627e+00   3.513146734450748e+00  1.21498643e+00  -2.17593343e+00   1.34157393e+00
C     7.098921999915691e+00   1.785865861784209e+00   5.371420695063706e+00  1.25141416e+00  -4.88079550e-01  -4.51705050e-01
C     1.789108439846549e+00   5.157160610810000e-02   5.349469886013146e+00  1.67511600e-01  -1.13554378e+00  -1.09663369e+00
C     8.940655514102623e-01   9.242671776800825e-01   4.426550109840685e+00 -7.42899260e-01  -5.44286470e-01   1.31316921e+00
C     2.660080361101633e+00   2.588773925610532e+00   4.431838491933060e+00 -9.34486650e-01   2.70448156e+00  -5.44959500e-02
C     8.328055206922333e-01   2.669597472726420e+00   6.239937153893164e+00  2.84378539e+00   4.32818900e-02  -3.23763780e-01
C     2.733995658778501e+00   8.958875112119946e-01   6.199527406235667e+00 -2.95350669e+00  -3.23123440e-01   1.65971646e+00
C     3.594086148855343e+00   2.830460152522080e-02   3.516417106445532e+00 -2.02704687e+00  -1.39665962e+00   1.78448423e+00
C     5.402395575546130e+00   1.802054512374771e+00   3.532487686136375e+00 -2.46728273e+00  -1.44897105e+00   1.71681288e+00
C     3.564421350661784e+00   1.747679557638022e+00   5.318141361505377e+00  1.19695720e-01   8.53152590e-01   8.06314400e-02
C     5.330171655947465e+00   7.100204714777470e+00   5.312258928534649e+00 -6.00280910e-01   1.13895625e+00   1.63550291e+00
C     4.398135185596402e+00   8.531708671616286e-01   4.466685116963919e+00  3.31811647e+00   1.30020584e+00  -1.62879751e+00
C     6.259567489463652e+00   2.637192377612853e+00   4.531704223731857e+00 -1.37713955e+00   2.03293660e+00  -3.94142908e+00
C     4.451400586646395e+00   2.681446146970567e+00   6.182340875277710e+00 -3.20549500e-01  -2.47424160e-01   1.08661756e+00
C     6.251777511282846e+00   9.297787642427258e-01   6.244908713589366e+00 -1.51484447e+00  -1.90549790e+00  -8.76506760e-01
C     7.103965710101486e+00   3.618009829519858e+00   3.590218882613157e+00 -3.88561600e-01  -2.17621240e+00  -9.87292250e-01
C     1.819456002032757e+00   5.359379666903462e+00   3.578213254397561e+00 -1.01837508e+00  -4.65299480e-01  -9.26081250e-01
C     4.099299373346840e-02   5.394935570343344e+00   5.372953910738613e+00 -1.87456563e+00  -2.00483924e+00  -2.11642966e+00
C     1.750160823637759e+00   3.516920098430123e+00   5.299308306615949e+00  7.96471440e-01   1.24209215e+00   1.20386815e+00
C     8.888690101381377e-01   4.492953439745414e+00   4.405070518125605e+00  9.21981850e-01  -7.30873250e-01   2.14700685e+00
C     2.687413525591605e+00   6.234660500698112e+00   4.473538347211861e+00 -9.80397000e-02   2.27621390e-01  -8.32552210e-01
C     8.710366789851531e-01   6.229469930500988e+00   6.223162200604905e+00  2.16322073e+00   1.68152193e+00   3.34649950e-01
C     2.698848489639268e+00   4.456902576838501e+00   6.234287379594789e+00 -1.12966483e+00  -1.45716306e+00  -1.02117286e+00
C     3.524935911197566e+00   3.510428544725086e+00   3.535401641820992e+00  3.77167320e-01   1.38756101e+00   1.01492652e+00
C     5.358257318055990e+00   5.371019282438355e+00   3.532508087309294e+00 -1.56267270e+00  -6.39587600e-01   5.31056820e-01
C     3.581568714211106e+00   5.323298451031961e+00   5.341217860362041e+00 -5.41079620e-01  -2.02479580e-01  -6.47100410e-01
C     5.336357902900973e+00   3.545460770670554e+00   5.289680161429838e+00 -5.10916500e-02   8.78117690e-01   1.69780173e+00
C     4.426074485283181e+00   4.438019265401150e+00   4.399369918605496e+00  1.15252284e+00   7.22763400e-02   9.75761510e-01
C     6.219079833494240e+00   6.308692234337495e+00   4.426343254742442e+00 -8.59675260e-01  -3.95554564e+00   2.25791880e+00
C     4.445111694070254e+00   6.191924308485541e+00   6.222925632300112e+00  9.45106020e-01   4.42890700e-01  -3.29942090e-01
C     6.249572052080765e+00   4.432726689339429e+00   6.256914910478772e+00 -1.36764363e+00   8.82643730e-01  -1.87602475e+00
