64
Lattice="7.10842262195238 0 0 0 7.10842262195238 0 0 0 7.10842262195238 " PBC="1 1 1" Properties=species:S:1:pos:R:3:force:R:3 Energy="-509.37233132"
C     2.446271235178940e-02   7.079574934986611e+00   2.556032388854360e-02 -6.72010200e-01  -1.11189345e+00  -1.83518494e+00
C     1.736937309374678e+00   1.752121610933260e+00   7.050314250619000e+00  5.70388400e-01   1.47829628e+00   2.48395751e+00
C     7.053559814218840e+00   1.634906707466960e+00   1.761137578763337e+00  2.81530000e+00   3.77320967e+00  -5.85174010e-01
C     1.844480635192658e+00   2.031679594290060e-02   1.737000361083317e+00 -2.21652181e+00  -2.01583163e+00   1.73661737e+00
C     9.155956129259445e-01   7.897827879638502e-01   8.557775257363825e-01 -7.81269240e-01   2.95228616e+00   7.84516680e-01
C     2.564671112695994e+00   2.671548876904063e+00   8.742457052927259e-01  2.32743887e+00  -8.04631130e-01   9.50998410e-01
C     8.097208471495572e-01   2.636100381729968e+00   2.706718082153418e+00  1.10231541e+00   5.98709480e-01  -1.84478410e+00
C     2.676899599862816e+00   9.181201692194375e-01   2.617179040231600e+00  9.65072580e-01  -1.89845809e+00   4.93515610e-01
C     3.634742061188170e+00   5.934644334872500e-02   7.096297357031709e+00 -2.53571336e+00  -7.48175640e-01  -4.78225270e-01
C     5.345181516814953e+00   1.841967594543809e+00   7.053744633206960e+00  4.85968820e-01  -4.45353080e-01  -2.15558210e-01
C     3.532233275690805e+00   1.744179086003029e+00   1.765129739990955e+00  2.09154880e+00   2.59206251e+00  -1.01088967e+00
C     5.322577230472936e+00   3.401458416318820e-02   1.662384315104570e+00  1.38035386e+00  -1.43578013e+00   2.25090222e+00
C     4.531294920757396e+00   9.830801339111767e-01   7.700022514234024e-01 -3.53771943e+00  -2.91462901e+00   3.55122776e+00
C     6.194500045421899e+00   2.599039625221432e+00   9.040813899660685e-01  1.24471531e+00   2.22150057e+00   1.94231820e-01
C     4.508393573434090e+00   2.661940137711704e+00   2.717603351879876e+00 -3.29361499e+00   2.84961350e-01  -1.10358291e+00
C     6.231813079849220e+00   8.120394013555225e-01   2.605417728501453e+00 -8.85370460e-01   1.42757728e+00   2.38755245e+00
C     4.832021360171200e-03   3.590653918077502e+00   2.815617766091520e-02 -2.28370347e+00  -2.24263206e+00   3.01932800e-01
C     1.820677797712683e+00   5.337448903604690e+00   7.059855246543790e+00 -1.20631978e+00   2.54003200e-01   1.79900416e+00
C     7.058578787093917e+00   5.286448601422560e+00   1.802725760722778e+00  2.36225441e+00   5.46810980e-01   2.96717960e-01
C     1.701229498943406e+00   3.561187373790816e+00   1.792417765997290e+00  6.74876220e-01  -9.22976450e-01  -3.05619050e-01
C     8.832858417597109e-01   4.414220337553616e+00   8.672893318325678e-01 -4.67421520e-01   2.33151521e+00   1.36638164e+00
C     2.651754550023732e+00   6.251709839099504e+00   8.638886624511598e-01  3.31962624e+00  -1.30050036e+00   2.15196870e-01
C     9.054218252195219e-01   6.168222126269866e+00   2.720962081567826e+00 -1.05508268e+00   1.46044660e+00  -1.38160430e+00
C     2.620533931371335e+00   4.445393827364043e+00   2.686924323946897e+00  4.69862030e-01   2.05213000e-02  -2.79244640e-01
C     3.524691523627890e+00   3.534940944950990e+00   2.239465895895280e-02 -3.56391580e-01  -1.48257870e-01  -9.23157310e-01
C     5.263721410453444e+00   5.289325166804195e+00   7.082086625035162e+00  1.85227924e+00   8.06786250e-01   1.49407924e+00
C     3.571469707110646e+00   5.300927605288786e+00   1.791745522470116e+00 -1.07652887e+00   1.19818591e+00  -3.69402120e-01
C     5.301693751078769e+00   3.501598888651880e+00   1.811190043873316e+00  1.81828426e+00   9.61375610e-01  -1.57927500e-02
C     4.436651960310193e+00   4.386096361047169e+00   9.350161078606894e-01 -1.07523084e+00   8.90818400e-01  -1.37926039e+00
C     6.236453671388234e+00   6.166455967585700e+00   9.023765058848877e-01 -1.34512000e+00   9.01842190e-01  -1.75296410e+00
C     4.523273918841442e+00   6.235931557746794e+00   2.593868603186512e+00 -2.29107249e+00  -5.63160570e-01   1.02687393e+00
C     6.218072285672081e+00   4.428073586976603e+00   2.763629037744078e+00  4.13850000e-02  -6.58851740e-01  -3.20538894e+00
C     7.084270332464026e+00   7.105445186101386e+00   3.587106317600538e+00  1.53971745e+00  -5.15281680e-01  -1.39017371e+00
C     1.802491182776318e+00   1.792298557749952e+00   3.472866289000708e+00 -1.83472155e+00  -7.18097300e-01   3.17559537e+00
C     7.091883737426951e+00   1.838258632873372e+00   5.389140073381259e+00  1.86142514e+00  -2.64289258e+00  -7.46272460e-01
C     1.812343172190733e+00   4.791474917546720e-02   5.342305520107127e+00  4.13167340e-01  -1.06431071e+00  -1.01071013e+00
C     8.881027221797015e-01   8.622709276313001e-01   4.426523453255860e+00  7.59435570e-01   2.35650136e+00   6.03291180e-01
C     2.622933095089811e+00   2.654825317511346e+00   4.456417426994686e+00  5.97912070e-01   8.59750390e-01  -3.77043260e-01
C     8.287124198634113e-01   2.721194526987500e+00   6.265234252892090e+00  1.65586582e+00  -1.57745649e+00  -1.21550455e+00
C     2.728649840631356e+00   9.542761656969008e-01   6.234596027304949e+00 -2.34459910e+00  -2.01122343e+00  -6.34352270e-01
C     3.636157703552943e+00   7.096105856126326e+00   3.530522278366171e+00 -2.46831906e+00   3.27660930e-01  -1.76952863e+00
C     5.447532921835511e+00   1.853206295042934e+00   3.546804191461508e+00 -3.20201736e+00  -3.70587229e+00   9.07030820e-01
C     3.550544998865282e+00   1.770789750417904e+00   5.348076279758495e+00  1.60176580e-01   1.44908476e+00  -2.46078117e+00
C     5.291405731020843e+00   1.958256697048080e-02   5.330164121019489e+00  1.84228605e+00   1.80295900e-01  -4.37208580e-01
C     4.394999376041815e+00   8.759083653435440e-01   4.399390959536451e+00  3.36194859e+00   1.71186556e+00   1.61065472e+00
C     6.265219467373040e+00   2.642831347108846e+00   4.558579321468195e+00 -2.04950103e+00   3.17502233e+00  -3.91111929e+00
C     4.443272460801556e+00   2.681137712513086e+00   6.171146602419959e+00 -8.37266990e-01   4.06995410e-01   1.51587710e+00
C     6.225535987254628e+00   9.357541753813241e-01   6.211777777442070e+00 -2.49941960e-01  -1.68852170e+00   6.70299310e-01
C     7.093582081759321e+00   3.603060105907735e+00   3.637219275387014e+00  7.05444090e-01  -3.23101550e+00  -9.85824570e-01
C     1.736294139296020e+00   5.313563821675002e+00   3.640178796060625e+00  2.99440306e+00   1.57544377e+00  -3.40076936e+00
C     2.497992118162060e-02   5.317150944981733e+00   5.338641483667648e+00 -1.16986447e+00   1.03777129e+00   5.48303060e-01
C     1.712395338110675e+00   3.600491050888641e+00   5.370973148775551e+00  1.71759085e+00  -2.61300941e+00  -1.17833174e+00
C     9.128456485511715e-01   4.436684161464662e+00   4.441592740536450e+00 -1.90544065e+00   6.98142350e-01   2.35231275e+00
C     2.729320307052875e+00   6.253189954857440e+00   4.405451742830715e+00 -1.77462538e+00  -1.35456592e+00   1.68782546e+00
C     9.326904452321040e-01   6.220963138983183e+00   6.218266274525381e+00 -8.61757880e-01  -1.86805930e-01  -4.68105360e-01
C     2.648407691401558e+00   4.424216414694539e+00   6.191484652546494e+00  1.28317264e+00   1.15642957e+00   1.14830721e+00
C     3.498868898944668e+00   3.582423857452292e+00   3.555055079764994e+00  2.09698949e+00  -1.28872890e+00   1.26486531e+00
C     5.379359736866854e+00   5.334260989312299e+00   3.533919109199365e+00 -1.36604329e+00   1.56099540e+00   1.65181253e+00
C     3.566620127946603e+00   5.321163507382271e+00   5.326163856190083e+00 -5.85671410e-01   1.33870442e+00  -2.55539680e-01
C     5.316310374006918e+00   3.592019872568161e+00   5.346664333773485e+00 -5.84865560e-01  -2.33001252e+00  -1.03057087e+00
C     4.448655740335908e+00   4.472769358052830e+00   4.461465473318279e+00 -2.49898830e-01  -2.09885020e-01  -1.53338683e+00
C     6.254269511000740e+00   6.268655110193738e+00   4.479616048551962e+00 -1.54265176e+00  -2.12112630e+00  -3.94561280e-01
C     4.419926197306464e+00   6.252834960231797e+00   6.196687022725168e+00  6.64045310e-01  -1.48153689e+00   9.21863280e-01
C     6.139958966848519e+00   4.379139489997428e+00   6.236796581695423e+00  2.94759688e+00   3.40093474e+00   5.00255770e-01
