64
Lattice="7.10842262195238 0 0 0 7.10842262195238 0 0 0 7.10842262195238 " PBC="1 1 1" Properties=species:S:1:pos:R:3:force:R:3 Energy="-514.37226279"
C     7.094480799631167e+00   7.096261886002835e+00   7.101756483435416e+00  7.15968670e-01   8.32403920e-01  -2.56734520e-01
C     1.751397689173639e+00   1.796745729109477e+00   9.845662918283399e-03  1.46664220e+00  -1.10054778e+00  -3.88238900e-01
C     1.964640060560840e-02   1.793422612618853e+00   1.759880027717633e+00 -1.30690082e+00  -3.95057090e-01   2.26623510e-01
C     1.753041938409871e+00   7.100390244607852e+00   1.784365700274484e+00  1.11305901e+00   4.49328890e-01  -2.97585230e-01
C     8.798715242068726e-01   9.017376008598023e-01   8.681098570555944e-01 -1.43461000e-02  -7.28441280e-01   9.00048720e-01
C     2.702942514563031e+00   2.660778763624049e+00   9.260121532648402e-01 -2.16506452e+00   5.63761040e-01  -1.91029489e+00
C     8.714511711081254e-01   2.671394837385888e+00   2.638660551220787e+00  8.34502340e-01  -1.79115100e-02   7.25899330e-01
C     2.684414268835548e+00   9.037023688719701e-01   2.673925293670155e+00 -1.41186818e+00  -9.67173850e-01   1.75687640e-01
C     3.553312876465058e+00   7.106998305359631e+00   1.269088015616460e-02 -8.57869850e-01  -3.56178000e-02   4.14700690e-01
C     5.340729440643821e+00   1.812637460887201e+00   8.354529105286000e-04  1.19161210e-01  -1.56864762e+00   1.02205100e-01
C     3.542711588222268e+00   1.803134566107654e+00   1.788731053689653e+00  1.03651777e+00  -1.43560004e+00   5.78803480e-01
C     5.322880760118810e+00   7.107866528098437e+00   1.776266221372804e+00  5.89779000e-03   6.08562370e-01   3.41297200e-02
C     4.426627094057659e+00   8.933241429309964e-01   8.897245088004546e-01  6.84410610e-01   5.91279910e-01   1.78533670e-01
C     6.244412474606264e+00   2.690747162547706e+00   8.658837123436890e-01 -5.75633580e-01  -5.43498870e-01   5.17503320e-01
C     4.453402744961544e+00   2.653900014138900e+00   2.686567978720956e+00  3.45250130e-01   3.25754360e-01  -4.60314480e-01
C     6.209822605800439e+00   9.036482737758320e-01   2.688648258600699e+00  1.73765780e-01  -2.30045200e-01  -1.10564932e+00
C     3.379841703131400e-03   3.566656238733513e+00   7.084647078862886e+00  1.35046600e-01   4.19218180e-01   3.87937060e-01
C     1.790304503036590e+00   5.323226584879273e+00   7.087640933217751e+00 -1.33283780e-01   6.70003780e-01   5.05750160e-01
C     7.097102456977650e+00   5.375793441238399e+00   1.763635194135100e+00  3.16631410e-01  -1.60221923e+00   6.14960700e-01
C     1.777945159711422e+00   3.569716414671423e+00   1.745027405158500e+00 -1.99757650e-01  -1.81683090e-01   1.49288368e+00
C     8.781696967474183e-01   4.480916250133385e+00   9.063516779824442e-01  5.89025120e-01  -9.38277580e-01  -1.96266651e+00
C     2.671924343786851e+00   6.207016982476551e+00   9.098026749960019e-01 -2.97423130e-01   3.35221010e-01  -6.03328470e-01
C     8.637555927797134e-01   6.207425503524523e+00   2.667459330286551e+00  2.79736510e-01   1.74395716e+00  -4.32602900e-02
C     2.642274260028117e+00   4.427827280132820e+00   2.660859373136559e+00  1.20491127e+00   8.32377630e-01   2.61461000e-01
C     3.562173169839757e+00   3.515180738499235e+00   1.208972085519120e-02  3.83356100e-01   1.25006783e+00  -6.07123510e-01
C     5.339511199175205e+00   5.305412948877779e+00   7.106379801507464e+00 -7.40094290e-01   6.48054020e-01   1.15440140e-01
C     3.579341858656938e+00   5.330664411803484e+00   1.791550254100745e+00 -1.25124544e+00  -6.08761680e-01  -4.36882540e-01
C     5.353471643611301e+00   3.546317833185847e+00   1.772449567099674e+00 -9.59001400e-02   1.28786420e-01   5.00682400e-01
C     4.449867086634582e+00   4.417366880826359e+00   8.960551989016003e-01  3.09698820e-01   3.84012760e-01  -3.43997800e-02
C     6.218176921653047e+00   6.226504154415472e+00   8.732627526128324e-01 -4.32285100e-01  -1.49503380e-01   4.04051010e-01
C     4.435734262949951e+00   6.221245343361196e+00   2.664782511580538e+00  6.06125270e-01  -1.59619610e-01   3.02328790e-01
C     6.248314856456192e+00   4.443612954245054e+00   2.664892763215374e+00 -1.44277205e+00   5.51425800e-01  -4.06024630e-01
C     7.097472237122343e+00   2.306860850755500e-02   3.548548100782872e+00 -1.31190670e-01  -6.92842400e-01   7.61236630e-01
C     1.750111064679419e+00   1.757940494605766e+00   3.563228983851506e+00  1.28952493e+00   1.22625517e+00  -8.64971550e-01
C     1.653426209834620e-02   1.789823689330573e+00   5.331610827191111e+00 -5.67492260e-01  -6.90715980e-01   7.64325000e-02
C     1.784659704634048e+00   7.086536853016413e+00   5.308212814379345e+00 -7.09985440e-01   1.00883150e+00   7.86242050e-01
C     8.818025982958217e-01   9.069996107042573e-01   4.438867300219716e+00  2.19324610e-01  -1.04346777e+00  -4.94426400e-02
C     2.668503059979845e+00   2.651928919630601e+00   4.436509081015531e+00 -1.48872970e-01   3.76793800e-01   3.15475480e-01
C     9.007644578031241e-01   2.664638494938256e+00   6.198064066355114e+00 -3.95048370e-01   6.31771820e-01   1.06190285e+00
C     2.645124453161832e+00   8.599447674131314e-01   6.230632157599358e+00  6.42349070e-01   1.20061240e+00  -2.93283340e-01
C     3.563640490436978e+00   7.099634974704477e+00   3.571011924693917e+00 -3.96913670e-01   3.23224040e-01  -3.84511710e-01
C     5.325707850879010e+00   1.765264942189187e+00   3.601434551822994e+00  3.73800730e-01   2.09337890e-01  -1.54015082e+00
C     3.563328075262829e+00   1.789420499599567e+00   5.337510960134163e+00 -6.96021500e-01  -1.24361844e+00   1.95541900e-02
C     5.308182816835888e+00   7.103007921237667e+00   5.368478661109741e+00  6.05638570e-01   8.01141500e-02  -4.30477190e-01
C     4.447134893316360e+00   8.837547843999524e-01   4.455496815181171e+00 -3.81879200e-01  -2.91428300e-01   6.99676750e-01
C     6.227082211342931e+00   2.663895806942919e+00   4.439618660490650e+00 -2.01025390e-01  -4.59539100e-02   2.56932840e-01
C     4.461095195584003e+00   2.651410146947793e+00   6.213456715780689e+00 -3.83050370e-01   6.70617250e-01   1.07117300e-01
C     6.228067580886515e+00   8.866944725744533e-01   6.238732418427527e+00 -5.68588540e-01   4.23827210e-01  -5.55055590e-01
C     7.086229484822324e+00   3.553098912944196e+00   3.546273760965603e+00  1.35097513e+00   4.89911900e-02  -1.36630830e-01
C     1.754024606752860e+00   5.359504632973121e+00   3.542956189044623e+00  5.47184460e-01  -1.84271634e+00   4.14417370e-01
C     7.106804245422104e+00   5.318671365495924e+00   5.340332577408946e+00  7.03257300e-02   7.75679440e-01  -1.09892799e+00
C     1.764296846112569e+00   3.546004351748305e+00   5.330860675352022e+00  1.26226736e+00   2.08781660e-01  -6.99323070e-01
C     8.955314503229589e-01   4.436961034525710e+00   4.440347344893427e+00 -7.21014660e-01   1.23303000e-01  -1.06791810e-01
C     2.653413584779014e+00   6.196586296376642e+00   4.458220051886892e+00  5.55596660e-01   6.89689920e-01  -1.30344898e+00
C     8.825221839176444e-01   6.233528626564330e+00   6.183196587192706e+00  2.84540960e-01  -9.68574360e-01   1.31251813e+00
C     2.687937060917568e+00   4.432556584786132e+00   6.196947262077286e+00 -8.90106960e-01  -7.26079850e-01   9.53920200e-01
C     3.580508706230011e+00   3.541469960043233e+00   3.552838389255173e+00 -1.36323665e+00   4.96353900e-01   8.24185500e-02
C     5.334661264590031e+00   5.334634394752528e+00   3.543304004163420e+00  3.09153890e-01   1.03472890e-01   4.44603130e-01
C     3.555127443507265e+00   5.308591551136539e+00   5.308227742066847e+00  7.44446100e-02   4.88947990e-01   1.22002862e+00
C     5.343647163792426e+00   3.543289929486632e+00   5.309140890036612e+00 -2.32237810e-01   6.62558740e-01   6.69976820e-01
C     4.462044809761809e+00   4.450717325064161e+00   4.440520861489580e+00 -3.44774330e-01  -6.21903410e-01  -5.75063440e-01
C     6.211469556237267e+00   6.225748742343645e+00   4.461645458579017e+00 -4.78908000e-02  -4.27407100e-02  -4.67689540e-01
C     4.409054078161852e+00   6.214057946165888e+00   6.264812225841141e+00  1.13594645e+00  -3.88601050e-01  -1.53023150e+00
C     6.218870135026950e+00   4.453830814171721e+00   6.189695675825718e+00  7.29493700e-02  -8.04151590e-01   9.29395830e-01
