64
Lattice="7.10842262195238 0 0 0 7.10842262195238 0 0 0 7.10842262195238 " PBC="1 1 1" Properties=species:S:1:pos:R:3:force:R:3 Energy="-508.34671589"
C     7.049407997819176e+00   1.393506736734320e-02   6.119896936772320e-02  5.41958360e-01  -2.58824900e-01  -1.13278710e-01
C     1.741479946849989e+00   1.798814209007670e+00   7.061562120983305e+00  1.08240412e+00  -1.08713348e+00   1.60325794e+00
C     7.100088776404538e+00   1.805971892996427e+00   1.814869718842560e+00  6.54444820e-01  -6.65674650e-01   1.26095270e-01
C     1.800318564486741e+00   8.659700796785219e-02   1.630554007044056e+00  5.05181800e-02  -3.81455178e+00   5.79091027e+00
C     8.778992212667274e-01   9.243336414315796e-01   8.765288595540438e-01 -6.33718750e-01   4.74035560e-01  -4.19445890e-01
C     2.626792257730209e+00   2.641880524499195e+00   8.721038664730938e-01  9.99698950e-01  -1.65787270e-01   8.51311180e-01
C     8.453990154585039e-01   2.734502489311307e+00   2.685788682349126e+00  2.09743537e+00  -1.97081825e+00  -2.42590000e-02
C     2.660052993674547e+00   8.413600808100462e-01   2.741692658791437e+00 -1.06304940e-01   3.46945543e+00  -4.81095416e+00
C     3.570550445897427e+00   7.072157082729962e+00   7.664059582514920e-02 -1.21353900e-02   1.21085984e+00  -4.71535802e+00
C     5.340277558217867e+00   1.769679983478469e+00   4.504095607865360e-02 -3.81056170e-01   2.08354094e+00  -7.80963240e-01
C     3.550986147573080e+00   1.770312633091649e+00   1.756865701105622e+00 -2.02903000e-02  -1.29673090e-01   3.23136540e-01
C     5.232029432297113e+00   1.730033680410360e-02   1.767720191362135e+00  2.66004904e+00  -4.80560800e-01   1.95182872e+00
C     4.432747517017705e+00   8.971433562362700e-01   8.223584852202980e-01 -2.42105750e-01  -4.27103550e-01   4.03888038e+00
C     6.260709315389103e+00   2.697372638934904e+00   9.483822881657540e-01 -1.49555996e+00  -1.47989241e+00  -9.08243500e-01
C     4.465836229134639e+00   2.691364813389158e+00   2.585591626972011e+00 -5.40899300e-01  -8.13099350e-01   2.54071343e+00
C     6.240938019798061e+00   8.772982041342063e-01   2.720089380522769e+00 -1.39183432e+00   4.22510240e-01  -2.08059088e+00
C     1.290726054071740e-02   3.518315908295786e+00   5.148722913160060e-02  8.09626300e-02   9.77658470e-01  -1.46843360e+00
C     1.802845964149282e+00   5.327096694490506e+00   6.959577226233034e+00 -6.98558590e-01  -2.35564280e-01   5.29816646e+00
C     1.481907080436640e-02   5.341308706003124e+00   1.806640013638481e+00  5.92013240e-01   5.04229350e-01  -6.45205040e-01
C     1.825624406845489e+00   3.495839502476703e+00   1.824950172959982e+00 -1.89787012e+00   3.77821002e+00  -2.39459343e+00
C     9.137398881167673e-01   4.488804040209442e+00   8.540125754840628e-01 -1.25599170e-01  -1.88863999e+00   4.65294570e-01
C     2.671124290820970e+00   6.201020885828129e+00   8.346572647847433e-01 -6.86154130e-01   1.05029631e+00   1.04283450e-01
C     9.575529352720422e-01   6.226360422110095e+00   2.661081724596113e+00 -2.58022175e+00  -2.05787300e-02  -6.48472880e-01
C     2.662747512352884e+00   4.521285835203080e+00   2.611307269894801e+00  6.82283710e-01  -4.29677872e+00   1.94695879e+00
C     3.541814505287625e+00   3.500403251967195e+00   6.651777550891200e-03  1.28044244e+00   1.68485690e-01  -1.12578082e+00
C     5.349264452599428e+00   5.338065701435427e+00   6.986776965630428e+00 -8.55506600e-01  -1.53764168e+00   4.13832854e+00
C     3.539647715904596e+00   5.358259379498550e+00   1.729148823962622e+00  4.77447200e-02  -1.46700390e+00   4.44589960e-01
C     5.359188947924567e+00   3.574450126546759e+00   1.748363103557161e+00 -5.92529260e-01   9.23773130e-01   6.52690100e-01
C     4.436148399651792e+00   4.392263628512281e+00   8.007577659837730e-01  8.28831000e-01   2.18577019e+00   1.70720238e+00
C     6.165852178168358e+00   6.211609734331334e+00   1.017157911951457e+00  8.34950840e-01   5.14901610e-01  -4.78616921e+00
C     4.366908382616325e+00   6.216866128521919e+00   2.683145984071688e+00  2.02911543e+00   6.93251700e-01  -1.40564576e+00
C     6.246590495297032e+00   4.491730577802096e+00   2.678032184838860e+00 -7.32734600e-01  -8.45286260e-01   4.98255960e-01
C     7.078715597776079e+00   7.071883408459093e+00   3.568450333518574e+00  1.86209006e+00   2.96952090e-01  -2.26056000e-01
C     1.735925567583173e+00   1.808473346916405e+00   3.534430631291099e+00  1.29931500e+00  -1.82545885e+00   1.99554104e+00
C     7.084532846511382e+00   1.745270726464782e+00   5.403920687619251e+00 -2.23645740e-01   4.03484850e-01  -2.75904135e+00
C     1.764192565552734e+00   7.077937509836094e+00   5.380890962183428e+00  3.33807540e-01   2.09758016e+00  -1.65506439e+00
C     9.091494820414500e-01   8.354152358887139e-01   4.397809690924632e+00 -1.69881135e+00   1.58265295e+00   3.02936050e+00
C     2.674823016362835e+00   2.641156887076479e+00   4.521914219762688e+00 -1.17507705e+00   7.46281690e-01  -2.69626362e+00
C     8.275645517787336e-01   2.613307580020070e+00   6.219663292822889e+00  2.32592813e+00   2.28287628e+00   2.74329810e-01
C     2.733768047086209e+00   9.001113359327986e-01   6.264627833358378e+00 -3.48828716e+00  -1.44726782e+00   8.20133300e-02
C     3.564886241501132e+00   8.486887934470401e-03   3.538728952280962e+00 -1.36999001e+00  -1.95774520e-01   3.23136263e+00
C     5.387685761197432e+00   1.806259641944085e+00   3.530230975207203e+00 -1.30864943e+00   2.43332650e-01   1.53764328e+00
C     3.538391941964547e+00   1.767818998436553e+00   5.397758111713068e+00  2.55726748e+00  -2.52571380e-01  -2.10959025e+00
C     5.315869651804477e+00   7.098309324970073e+00   5.346186647773420e+00 -8.31210610e-01   1.87288617e+00   6.71181480e-01
C     4.468481984033803e+00   9.310725682437920e-01   4.489479909032152e+00 -6.43233080e-01  -1.08399769e+00  -2.40687598e+00
C     6.273426994298545e+00   2.701806233207224e+00   4.467954112570042e+00 -2.54160620e-01  -9.51790840e-01  -1.64305276e+00
C     4.546179744470998e+00   2.602856705999919e+00   6.161194668583508e+00 -3.28841101e+00   2.73383875e+00   2.07132320e+00
C     6.145201215278091e+00   9.569433880323771e-01   6.304162534191353e+00  3.18760180e+00  -4.63283127e+00  -2.17383294e+00
C     3.948657681183800e-02   3.621644863595047e+00   3.597012686447997e+00 -1.04931856e+00  -1.77694602e+00  -1.68489798e+00
C     1.800646973611785e+00   5.276736576849532e+00   3.558686346376195e+00  6.50711560e-01   4.53263777e+00  -1.11471469e+00
C     7.090306023026442e+00   5.262767886643196e+00   5.299865393696679e+00  1.12332437e+00   2.42145755e+00   1.27789507e+00
C     1.761118528190715e+00   3.553660122910045e+00   5.324543135832723e+00  7.39494770e-01  -1.17942968e+00   6.37877160e-01
C     9.530775434747164e-01   4.452690694267699e+00   4.400014652537130e+00 -1.82509226e+00  -3.93225500e-01   2.23055655e+00
C     2.639808916895049e+00   6.253903071814679e+00   4.499974997440998e+00  1.25389456e+00  -2.63527883e+00  -1.24567171e+00
C     8.477416672171512e-01   6.237899737801820e+00   6.231768936544749e+00 -2.08472480e-01  -1.06314800e+00  -1.00054847e+00
C     2.721116547591359e+00   4.376355191941400e+00   6.217001117467473e+00 -2.27872143e+00   1.33749243e+00  -1.29684858e+00
C     3.546063635992956e+00   3.552974799885251e+00   3.586822620453774e+00  4.72471100e-02  -6.68711490e-01  -2.97109202e+00
C     5.315392107972866e+00   5.354311432659628e+00   3.573067751599848e+00 -8.47716700e-01  -1.12146350e-01  -1.91862530e+00
C     3.545600593343489e+00   5.312896909464794e+00   5.348388623848418e+00  1.39178140e-01  -2.31123110e-01  -1.85695187e+00
C     5.386113591366567e+00   3.585597768152122e+00   5.245963149064160e+00 -1.98570068e+00  -2.19202718e+00   2.40694327e+00
C     4.411308940901143e+00   4.422209280483556e+00   4.345108911883345e+00  2.03359620e+00   1.58600940e+00   4.04068575e+00
C     6.168256388866894e+00   6.226178162154119e+00   4.480218984958590e+00  1.46646604e+00  -1.22611588e+00  -7.30693830e-01
C     4.396328437819076e+00   6.214509046665353e+00   6.181770068941324e+00  2.17422163e+00  -1.91160440e-01   1.16316634e+00
C     6.244494719055978e+00   4.354374172094706e+00   6.222754177146517e+00 -1.86545980e-01   3.01752206e+00  -1.27394432e+00
