64
Lattice="7.10842262195238 0 0 0 7.10842262195238 0 0 0 7.10842262195238 " PBC="1 1 1" Properties=species:S:1:pos:R:3:force:R:3 Energy="-503.18032657"
C     1.165364756114468e-01   2.621707105440540e-02   7.090247094202922e+00 -2.65320879e+00  -7.35714150e-01  -1.31247758e+00
C     1.869618932030252e+00   1.788231758084824e+00   7.015774354024193e+00 -2.32108310e+00   1.24440339e+00   4.15267716e+00
C     7.093707118913207e+00   1.776240417798694e+00   1.698115938751619e+00  1.06065495e+00  -2.61370820e-01   1.60095329e+00
C     1.870968466064659e+00   7.064481905574470e+00   1.855314013433990e+00 -3.79809471e+00   1.69588097e+00  -4.36500492e+00
C     9.979260034688204e-01   8.515259070831344e-01   8.005919975682746e-01 -1.63690458e+00   2.42574382e+00   2.89624935e+00
C     2.718511950459165e+00   2.745875894419081e+00   9.892479700500981e-01 -8.12863300e-01  -2.15303151e+00  -3.80762598e+00
C     8.871248875640944e-01   2.568628655905452e+00   2.695075623249477e+00 -2.63827665e+00   3.33304228e+00  -1.38793489e+00
C     2.654432363908912e+00   9.669114579881769e-01   2.602243959970075e+00  2.31701050e-01  -3.36297881e+00   3.89763901e+00
C     3.507962135328625e+00   7.034878666320801e+00   7.101962343354491e+00  1.43425830e+00   1.89124127e+00   5.54110270e-01
C     5.261247537213231e+00   1.708723198069410e+00   7.026655927370890e+00 -3.07455600e-02   5.96903930e-01   3.02101098e+00
C     3.531000035450461e+00   1.781969379925056e+00   1.811597854079026e+00  2.16334171e+00   5.35073840e-01  -2.36512900e+00
C     5.484391372636282e+00   7.053852183641201e+00   1.722621230554903e+00 -4.38526303e+00   1.71196571e+00   1.72483967e+00
C     4.404500991305290e+00   7.911275593551018e-01   9.379170551319115e-01  7.38235620e-01   1.64462747e+00  -2.39921783e+00
C     6.191968451790012e+00   2.590539942126245e+00   8.419297497988130e-01 -7.04751980e-01   2.54966979e+00  -1.80198712e+00
C     4.469413045228571e+00   2.635939660294530e+00   2.610016664683914e+00 -2.38138250e-01  -2.53643030e-01   1.85973314e+00
C     6.188910479463114e+00   9.457446368683767e-01   2.629576555786237e+00  3.74974271e+00  -3.14477394e+00  -1.03193506e+00
C     7.058154201010825e+00   3.555803667751106e+00   7.102705742192091e+00  2.34255735e+00  -1.09652256e+00  -8.21370100e-01
C     1.748082747369028e+00   5.247001547440489e+00   1.599346752226184e-01 -6.39503900e-01   3.78006097e+00  -3.41920316e+00
C     7.043946383467552e+00   5.293315124420801e+00   1.766179156422345e+00  2.80275362e+00   6.38854890e-01  -8.83897730e-01
C     1.790583579708651e+00   3.496928654990540e+00   1.848681997297982e+00 -1.36740564e+00  -3.04925540e-01  -7.12538440e-01
C     8.665641305568753e-01   4.327453935874729e+00   9.017833080172487e-01 -7.34583920e-01   2.03970985e+00   2.62651851e+00
C     2.625973225275933e+00   6.227603614142107e+00   9.122574265793665e-01  2.56187189e+00  -2.25888664e+00   2.19270345e+00
C     8.505254676835956e-01   6.176024899611387e+00   2.663218089930328e+00  1.83559543e+00   1.04667564e+00  -2.34830697e+00
C     2.708136923308369e+00   4.342565020680325e+00   2.683439348673216e+00 -8.80892030e-01   5.26809686e+00  -4.18567600e-01
C     3.521826900396256e+00   3.753576050074627e+00   1.274204658218336e-01 -1.60193100e-01  -4.15774842e+00  -2.32945388e+00
C     5.402562339140795e+00   5.340059045306528e+00   9.135886919676399e-03 -2.01952667e+00   2.30291748e+00   3.75347400e-01
C     3.635030520978090e+00   5.360703113026854e+00   1.920706525642156e+00 -1.71293275e+00  -2.20837870e-01  -3.14783045e+00
C     5.277405621586527e+00   3.557467536233770e+00   1.686597308569719e+00  1.91042241e+00  -1.91653030e+00   2.68972796e+00
C     4.416211975403288e+00   4.545373649345890e+00   9.946355146380224e-01  2.35487941e+00  -1.13488700e+00  -3.39470508e+00
C     6.317981094511954e+00   6.269866669745091e+00   7.909458680729345e-01 -5.09769470e-01  -2.22628008e+00   2.86623956e+00
C     4.599707161978765e+00   6.198530592131664e+00   2.715646616385269e+00 -3.71517361e+00   7.71798260e-01  -4.33891940e-01
C     6.163899139053513e+00   4.421203225430147e+00   2.599292613982477e+00  9.18238500e-02   3.23887280e-01   2.16858465e+00
C     1.009949758162098e-01   8.122666576266840e-02   3.432456896764342e+00 -3.68829913e+00  -2.47329941e+00   3.82717668e+00
C     1.717481343411059e+00   1.750443383436904e+00   3.562519065684446e+00  2.55450061e+00   1.70632710e+00  -3.60639450e-01
C     1.913871706208800e-03   1.739956682966749e+00   5.348704593233877e+00  1.22252029e+00   2.51159425e+00  -1.53386961e+00
C     1.822521082782275e+00   3.841391583848000e-03   5.273384955584203e+00 -2.65779742e+00  -1.51247849e+00   1.31747961e+00
C     9.463052070761900e-01   8.502838523987418e-01   4.420053295902910e+00 -2.56501228e+00   1.38536730e+00   2.84432050e-01
C     2.628984708518896e+00   2.730443935416418e+00   4.371086215842777e+00  1.59668291e+00  -1.67229905e+00   1.68490860e+00
C     9.880929935428006e-01   2.728990760580211e+00   6.213984516160223e+00 -2.48458223e+00  -1.95187569e+00  -3.18530420e-01
C     2.607012076610892e+00   8.740532802924026e-01   6.173633626242020e+00  3.89877794e+00  -1.33024980e-01  -6.95785600e-01
C     3.564304843615043e+00   2.617925424606700e-02   3.498306907052331e+00 -5.42424000e-03  -1.06345893e+00   3.67003590e-01
C     5.291073625516037e+00   1.613718916500431e+00   3.575996777140419e+00  1.79964548e+00   7.83923072e+00  -2.38506726e+00
C     3.437893773805249e+00   1.793138560050957e+00   5.292280635676913e+00  2.71528266e+00   4.43500300e-01  -9.87067600e-02
C     5.317132463082920e+00   2.150404468889300e-02   5.265858984219504e+00  1.46588920e-01  -1.26721209e+00   1.74915789e+00
C     4.412967264814162e+00   8.531761984785935e-01   4.367907542499792e+00 -1.72354948e+00   3.40599950e-01   3.86754019e+00
C     6.177798308886625e+00   2.732730501720593e+00   4.517401011157023e+00 -5.20583590e-01  -4.30183012e+00  -7.42056110e-01
C     4.305506325614348e+00   2.718657815291327e+00   6.269171181675950e+00  1.33734328e+00  -2.38008208e+00   1.04261941e+00
C     6.207830470361184e+00   8.404629978754021e-01   6.159158460924008e+00  5.67938830e-01   2.33709133e+00   1.01930084e+00
C     6.982292403967922e+00   3.608048583649772e+00   3.567821522453609e+00  2.58299682e+00  -2.84444438e+00  -8.46551900e-02
C     1.769493245216242e+00   5.335381774306795e+00   3.453714776777904e+00 -1.12387591e+00  -2.39748463e+00   3.89418426e+00
C     3.223122309628260e-02   5.391901269063771e+00   5.413238905579131e+00 -1.07922908e+00  -4.91221700e-01  -3.64219946e+00
C     1.893981771044230e+00   3.638013712699026e+00   5.364009880145452e+00 -5.10009277e+00  -1.18830816e+00  -2.07499398e+00
C     8.061515659836027e-01   4.434388709632211e+00   4.419000112007530e+00  2.80499550e+00   2.29066671e+00   1.26782115e+00
C     2.587947997986314e+00   6.217714660930069e+00   4.366126669380804e+00  3.57802664e+00   3.02444690e-01   6.86295630e-01
C     9.153665084649020e-01   6.230182123363286e+00   6.263910735684472e+00  1.04888805e+00  -8.41470690e-01  -9.33882190e-01
C     2.607590204622577e+00   4.573320626129100e+00   6.293680240943222e+00  2.25618630e+00  -2.22418657e+00  -3.75452070e-01
C     3.643752200111699e+00   3.573341141533813e+00   3.479423595614980e+00 -2.36473763e+00  -3.06606942e+00   3.41470600e+00
C     5.366318766896653e+00   5.302785889130106e+00   3.630374859583121e+00 -3.36016040e-01  -9.31721000e-03  -4.25414760e-01
C     3.470711797188812e+00   5.393095412979705e+00   5.358629230727469e+00  2.48218021e+00  -1.48148167e+00  -5.08009300e-01
C     5.221859198802002e+00   3.475195434756378e+00   5.457321717372834e+00  2.70419946e+00   3.67696819e+00  -3.29322547e+00
C     4.396704331207222e+00   4.332413624505156e+00   4.533340582618981e+00  6.24397960e-01   4.19065042e+00  -1.68386504e+00
C     6.225494260813848e+00   6.283578674810618e+00   4.445327292528320e+00  1.67037192e+00  -1.83038613e+00  -5.79460000e-01
C     4.516845203592365e+00   6.225608493165352e+00   6.257835877713420e+00 -3.37269695e+00   7.90933500e-02  -2.31111848e+00
C     6.230158096894831e+00   4.542958136255388e+00   6.220816989814114e+00 -8.63611000e-01  -4.56533855e+00   1.38303829e+00
