64
Lattice="7.10842262195238 0 0 0 7.10842262195238 0 0 0 7.10842262195238 " PBC="1 1 1" Properties=species:S:1:pos:R:3:force:R:3 Energy="-507.63298543"
C     3.690095916803920e-02   6.999707044207756e+00   1.195857045785220e-02 -2.06026421e+00   3.29096286e+00  -2.56819940e-01
C     1.796217928729942e+00   1.815671193492965e+00   2.088674926857220e-02 -6.91653160e-01  -2.99819090e-01   8.52266000e-03
C     3.619793617092120e-02   1.741977607517615e+00   1.821082906717797e+00 -1.86562985e+00   7.10615480e-01  -1.97559920e+00
C     1.767057544205499e+00   1.346043798900580e-02   1.763436869144002e+00 -7.10011760e-01   6.34530320e-01   1.20174348e+00
C     8.415124853910190e-01   8.644064399548006e-01   8.717204381569710e-01  2.66887175e+00   5.23335240e-01   3.52909910e-01
C     2.671654223727292e+00   2.724068177915861e+00   9.515045206331366e-01 -1.75776050e-01  -2.45809659e+00  -1.29546053e+00
C     8.531120094223350e-01   2.608089997816990e+00   2.659347980319095e+00  2.26301373e+00   3.24611424e+00   8.08659680e-01
C     2.621701489786670e+00   9.319444873623611e-01   2.740454726992164e+00  2.44709442e+00  -1.61817768e+00  -3.28558005e+00
C     3.531328728912410e+00   7.060514481657569e+00   1.545681004814232e-01  8.42871490e-01   2.56450323e+00  -4.76234886e+00
C     5.387990428190927e+00   1.840438146332890e+00   1.696801804661860e-02 -8.64120380e-01  -1.59909236e+00  -4.30922740e-01
C     3.549445468054421e+00   1.849361135995097e+00   1.847815267327926e+00 -6.64216690e-01  -1.03557092e+00  -8.45833770e-01
C     5.277331551822827e+00   9.446006073319139e-02   1.771815851223101e+00  8.50823050e-01  -3.14333568e+00   9.57622150e-01
C     4.368752662865084e+00   9.608334723111722e-01   9.409678479519631e-01  2.43433306e+00  -5.45684920e-01  -1.58074000e-01
C     6.336196498559930e+00   2.740483231766870e+00   8.884316288943289e-01 -2.79096480e+00  -1.69655512e+00   8.91527900e-01
C     4.501925690776378e+00   2.720534581031460e+00   2.676516669136276e+00  5.48213000e-03  -2.90705022e+00  -8.63166150e-01
C     6.217414258990146e+00   8.664176259666772e-01   2.730316339230389e+00 -1.68642523e+00   2.26455774e+00  -2.44705367e+00
C     2.284846065901360e-02   3.677514150934972e+00   7.096257052275454e+00  9.45932150e-01  -3.66106418e+00  -1.52703290e-01
C     1.891621134976355e+00   5.355104874792472e+00   7.031385871782239e+00 -2.57839734e+00  -1.06267614e+00   1.97230775e+00
C     7.046511742106884e+00   5.435166256835045e+00   1.704428431290858e+00  2.34333140e+00  -2.11633077e+00   1.58341784e+00
C     1.813726968822168e+00   3.598697951282746e+00   1.775723564389993e+00 -2.51593901e+00  -7.82708730e-01  -7.59509700e-01
C     9.371270961261507e-01   4.548356556729921e+00   8.086697957809640e-01 -6.41062570e-01  -1.18914524e+00   1.83750892e+00
C     2.660971117540146e+00   6.196140242857237e+00   9.459074908306010e-01  1.48197770e-01  -1.35351960e-01  -9.49658510e-01
C     7.966856350016798e-01   6.305486193567423e+00   2.609931719033605e+00  1.72342722e+00  -2.52858692e+00   8.72681210e-01
C     2.709441318859140e+00   4.435665453418990e+00   2.610046235722013e+00 -2.30646516e+00  -1.22255655e+00   2.38888656e+00
C     3.592761494300106e+00   3.502249024984704e+00   6.984401970548861e-02 -1.48922174e+00  -5.91974900e-02  -3.56680550e+00
C     5.302103835979717e+00   5.352585649815945e+00   7.033646918849208e+00 -1.95774880e-01  -1.80801432e+00   3.13778806e+00
C     3.529852736039594e+00   5.250023195727799e+00   1.766635446070323e+00  1.68520328e+00   2.34419643e+00  -5.07218000e-02
C     5.352917684236525e+00   3.573171889991231e+00   1.770169540544309e+00  1.62269465e+00   3.06933070e-01   2.04154640e-01
C     4.410313050892081e+00   4.336005510455041e+00   8.906196724609912e-01  2.33112198e+00   4.64588203e+00   6.57858200e-02
C     6.166572474632443e+00   6.227103820947695e+00   8.713477435590044e-01 -8.23654890e-01   1.01880122e+00  -9.67397340e-01
C     4.379945869459441e+00   6.185571013600464e+00   2.694240312507401e+00  1.67802261e+00   1.58546849e+00  -2.27474647e+00
C     6.257946982358971e+00   4.530310048803396e+00   2.627078371740664e+00 -1.67735686e+00  -1.32282003e+00   5.57535100e-01
C     7.045710125288027e+00   1.823217992535940e-02   3.571998787006252e+00  1.26220267e+00  -1.69138381e+00   1.41799307e+00
C     1.750865694824758e+00   1.744536639660815e+00   3.570678752925719e+00 -4.18491250e-01   1.93957600e-01   6.61026300e-02
C     6.859016503954680e-02   1.616224208968624e+00   5.372942324009744e+00 -1.07844190e+00   4.87335738e+00  -1.04835226e+00
C     1.761699215234543e+00   7.076315794299568e+00   5.430335870412076e+00  1.90674783e+00   4.38216690e-01  -5.11021146e+00
C     9.584765326230589e-01   7.931479863163844e-01   4.416981675404582e+00 -3.11472828e+00   1.49410513e+00   2.56314165e+00
C     2.635764224424268e+00   2.582905638400817e+00   4.409931755102743e+00  1.62177682e+00   2.04778053e+00   2.50859270e-01
C     9.211811981680621e-01   2.689471698277000e+00   6.217492380554741e+00 -1.38522720e-01  -7.78512860e-01  -5.90644150e-01
C     2.658545083984166e+00   8.786718357212953e-01   6.225302617740013e+00 -2.23487410e-01  -6.18828020e-01   2.62847106e+00
C     3.594006818858903e+00   2.228675310358120e-02   3.562065121815933e+00 -2.90173878e+00  -7.97315830e-01   3.49953370e-01
C     5.316299853541440e+00   1.782136712193531e+00   3.562307163606144e+00  2.84821422e+00   9.74177610e-01   4.11397030e-01
C     3.514134094352666e+00   1.721709788606566e+00   5.337751438071398e+00  1.79072712e+00   1.18082836e+00  -4.18593430e-01
C     5.264815965368471e+00   7.084955015730784e+00   5.392798423082642e+00 -4.67400340e-01   2.81743836e+00  -1.97812290e-01
C     4.462174822811529e+00   9.110107514202709e-01   4.403093950131887e+00 -1.24735648e+00  -8.93770110e-01   2.74833128e+00
C     6.340037179301516e+00   2.650647413200668e+00   4.465411287630415e+00 -3.86406667e+00   1.02180940e-01  -6.10492320e-01
C     4.455798496637163e+00   2.657603715576599e+00   6.220032433209545e+00  1.05552020e-01  -1.82736730e-01  -4.98592910e-01
C     6.201227812010598e+00   8.294160115343389e-01   6.253716760057809e+00  1.20669015e+00   4.89375890e-01   1.19378520e-01
C     7.107166703891498e+00   3.629145102469861e+00   3.528998445809122e+00  8.79736270e-01  -2.94706329e+00  -1.13230800e-02
C     1.780432965459969e+00   5.338568480167340e+00   3.442425535393951e+00 -9.30624970e-01   1.18040555e+00   2.65729031e+00
C     7.098443531989139e+00   5.352517480043018e+00   5.377008412832610e+00 -3.41467340e-01  -1.06246318e+00  -1.99188370e+00
C     1.813796773532297e+00   3.548059325643521e+00   5.215777019155651e+00 -9.48101600e-01  -6.12082380e-01   3.65467531e+00
C     9.045226097580918e-01   4.444667275488053e+00   4.397706547712415e+00  1.29432500e-02   1.56312026e+00  -3.46931140e-01
C     2.643557543563706e+00   6.235425509140477e+00   4.427403262723537e+00  7.60503620e-01  -1.69695336e+00   6.14651280e-01
C     9.295598248260297e-01   6.189061959949146e+00   6.199167720051095e+00 -9.74531150e-01  -3.63470140e-01   1.70098944e+00
C     2.734623616832752e+00   4.394138830399437e+00   6.219959145372333e+00 -1.12864869e+00  -1.68711480e-01  -1.24180393e+00
C     3.592849994161724e+00   3.470098482485159e+00   3.493308904023983e+00 -2.05432040e+00   2.86723984e+00   2.11281141e+00
C     5.309571518278932e+00   5.350384313498983e+00   3.520683652786281e+00 -3.77864200e-01   8.48078700e-02   1.66037288e+00
C     3.529688389308619e+00   5.219101272993893e+00   5.276656891431962e+00  8.47656890e-01   3.62509956e+00   6.61710970e-01
C     5.332687753218041e+00   3.587387668967838e+00   5.266331836492186e+00  7.45069230e-01  -2.34565401e+00   2.07522985e+00
C     4.408472538107310e+00   4.409196246614252e+00   4.368485030753441e+00  1.58619485e+00  -2.65750830e-01   7.63962180e-01
C     6.075607909638410e+00   6.263765439526119e+00   4.571775681556868e+00  5.05051197e+00  -2.94037751e+00  -4.62693953e+00
C     4.407055118636882e+00   6.211249408388726e+00   6.230116583706730e+00 -1.31907714e+00  -6.89642950e-01   4.16311800e-01
C     6.186072086310947e+00   4.425964802322154e+00   6.238731138911456e+00  6.64562570e-01   2.17605751e+00  -1.95067792e+00
