64
Lattice="7.10842262195238 0 0 0 7.10842262195238 0 0 0 7.10842262195238 " PBC="1 1 1" Properties=species:S:1:pos:R:3:force:R:3 Energy="-512.26195692"
C     7.088955778149773e+00   5.499075738832001e-04   9.028521304423920e-02 -3.25381290e-01   4.32878620e-01  -2.04485061e+00
C     1.775714465609040e+00   1.791319941207857e+00   7.057918983306329e+00  5.81600850e-01  -7.20396260e-01   2.01809297e+00
C     1.892013306652300e-02   1.768251119447623e+00   1.825513231115712e+00 -2.49090240e-01   7.54198470e-01  -2.08659660e-01
C     1.760895465888900e+00   3.668308601473620e-02   1.777020993686596e+00  6.46743410e-01  -9.47095830e-01  -2.70471790e-01
C     9.009288756183248e-01   9.098880471516679e-01   9.008892106201052e-01 -6.87242020e-01   1.47440010e-01  -3.61193400e-02
C     2.685777024536029e+00   2.630065188757136e+00   8.943032570626751e-01 -4.33372200e-01   1.54405665e+00  -1.44886079e+00
C     9.569749494288100e-01   2.667983292117871e+00   2.669903063814854e+00 -1.42532520e+00   1.22123720e-01  -3.98487300e-02
C     2.692166145871111e+00   8.620681243339515e-01   2.692457946619662e+00 -1.39041827e+00   4.92215610e-01  -5.69064740e-01
C     3.577037663464666e+00   7.073848887313522e+00   1.482404670020040e-02 -7.22787000e-03   6.99346540e-01  -4.06683580e-01
C     5.342615731670263e+00   1.798591359958533e+00   5.576351401134019e-02 -1.66044450e-01  -1.28858508e+00  -5.53969690e-01
C     3.545635780035458e+00   1.758827270327611e+00   1.789778906268067e+00  2.59832090e-01  -3.76223500e-01  -8.39657150e-01
C     5.286945195826793e+00   7.075815574599798e+00   1.796473760860035e+00  1.38164349e+00   1.63792384e+00   1.13491930e-01
C     4.452214714289064e+00   8.741849282793249e-01   9.005883110906004e-01 -5.18223800e-01  -2.50465500e-01   3.16423980e-01
C     6.192752226468093e+00   2.659129254155078e+00   1.008429906321716e+00  1.15380955e+00   1.08796243e+00  -3.43129266e+00
C     4.400082111467793e+00   2.698813302947299e+00   2.580890258419595e+00  1.18906009e+00  -3.84795260e-01   3.02086511e+00
C     6.210232761785614e+00   9.101494949356316e-01   2.684052379039965e+00  3.43059200e-01  -1.70923149e+00   3.73595970e-01
C     7.100870134218928e+00   3.529589866571106e+00   4.910533888009100e-02  4.65607360e-01   6.55460260e-01  -1.56596926e+00
C     1.737727837054248e+00   5.320433188042292e+00   7.082974680273079e+00  1.02179212e+00   7.22903140e-01  -3.69157520e-01
C     3.630612636319760e-02   5.292992402033853e+00   1.759508612635738e+00 -1.37909578e+00   1.51090086e+00   7.21546160e-01
C     1.816251311862983e+00   3.559827532543610e+00   1.724699520076312e+00 -3.97828350e-01  -9.74075610e-01   1.28078426e+00
C     9.513145835807302e-01   4.447721480350962e+00   8.439991537919473e-01 -2.56379858e+00  -1.61007899e+00   1.73679267e+00
C     2.607665198481218e+00   6.222206970773230e+00   8.340518404301980e-01  1.18772605e+00   2.55001400e-01   2.00136972e+00
C     9.034019669320490e-01   6.222362218723251e+00   2.673191491203093e+00 -7.35728530e-01   5.21950750e-01  -1.29465277e+00
C     2.664343282146848e+00   4.412756357915027e+00   2.629435027091873e+00  1.05205500e-02   1.60306127e+00   6.20429430e-01
C     3.591417291582663e+00   3.585366175743162e+00   7.101338437101134e+00 -1.15907780e+00  -1.32967830e+00  -3.23361220e-01
C     5.349635796597097e+00   5.322450202960717e+00   7.091445716425106e+00 -2.00952000e-02   1.42883309e+00  -2.68056600e-01
C     3.502620724403505e+00   5.355319691324049e+00   1.754383582095170e+00  8.98015590e-01  -7.58154590e-01  -4.50474380e-01
C     5.280713028463160e+00   3.620969065856563e+00   1.748355213208053e+00  4.79991510e-01  -1.16625628e+00   1.06488831e+00
C     4.422558872708007e+00   4.510632584390939e+00   8.442591088071608e-01  5.36415100e-01  -1.45080501e+00   6.53630220e-01
C     6.200150885983667e+00   6.224139395462477e+00   9.247216902224054e-01  5.35206940e-01  -8.78460240e-01  -2.31503400e-01
C     4.392531829297734e+00   6.223948107809773e+00   2.648926819505496e+00  2.15308150e-01  -4.79927130e-01   9.37904610e-01
C     6.164711418506300e+00   4.464576261225243e+00   2.650139587488694e+00  2.26931758e+00  -3.42532100e-01   1.73058760e-01
C     1.385922049798780e-02   7.086209083649405e+00   3.578693641598220e+00 -8.59194400e-01   5.21941770e-01  -1.00481280e+00
C     1.806413681462260e+00   1.760730266147211e+00   3.587602912004771e+00  1.80346790e-01   8.95281200e-02  -7.64294330e-01
C     7.097356369833636e+00   1.800237599553099e+00   5.338956457873940e+00 -2.03831960e-01  -1.56911302e+00  -5.08629480e-01
C     1.764005898374733e+00   7.096139478965318e+00   5.353606063883046e+00 -2.48779370e-01   9.04128270e-01   1.18098834e+00
C     8.795625210755812e-01   8.755727056274276e-01   4.431799679945555e+00  5.35648490e-01   5.04996130e-01   1.61246430e+00
C     2.726663534098650e+00   2.634518189023209e+00   4.473988665784838e+00 -1.96522442e+00   2.03253800e-02  -5.16134280e-01
C     8.503988666767334e-01   2.658919982193145e+00   6.176564855393603e+00  1.82297284e+00   2.68249080e-01   1.76040704e+00
C     2.745690364588699e+00   8.823971467637586e-01   6.291609202012885e+00 -3.05342347e+00  -1.39712620e-01  -2.92782842e+00
C     3.513365744951670e+00   7.052448270173750e+00   3.561388115645605e+00  1.19263840e+00   2.62024290e+00   3.43166770e-01
C     5.333960231951247e+00   1.813431187356950e+00   3.533895864657397e+00 -3.36505670e-01   1.19160300e-02  -9.19692500e-02
C     3.576637174934255e+00   1.742183254184011e+00   5.344615330953269e+00  5.21630950e-01   5.59436520e-01   7.06079150e-01
C     5.330470067529053e+00   7.108391342940472e+00   5.274098499046798e+00  2.44190300e-01   2.11470460e-01   2.43083735e+00
C     4.414451361288766e+00   9.070928021248054e-01   4.426256745239157e+00  1.61573913e+00  -1.14078372e+00  -4.63799680e-01
C     6.259150722645441e+00   2.709457454978487e+00   4.440833063411050e+00 -1.50601624e+00  -1.30834275e+00  -2.43784740e-01
C     4.484431080782070e+00   2.638823405183012e+00   6.212870341998764e+00 -1.09749038e+00   7.14015920e-01   1.15470474e+00
C     6.215546165525611e+00   8.855906056257936e-01   6.279053524054953e+00  4.51839100e-02   5.35708180e-01  -1.46116701e+00
C     4.981156066738800e-02   3.574266231653580e+00   3.540297567900517e+00 -1.57286431e+00  -6.62239600e-02  -2.09889810e-01
C     1.793427801767365e+00   5.378016173907447e+00   3.493838197172269e+00  2.50969760e-01  -2.09648398e+00   2.33612913e+00
C     1.065559659160620e-02   5.329906014194155e+00   5.302546477456264e+00 -4.82033140e-01  -5.04466510e-01   1.29555795e+00
C     1.809827999015098e+00   3.508640207762347e+00   5.321287975862346e+00 -7.36437440e-01   2.13466145e+00  -2.51753880e-01
C     9.196595692220247e-01   4.462609645023194e+00   4.388301109406989e+00  3.59268310e-01  -1.13263320e-01   1.13602053e+00
C     2.650929759747134e+00   6.244126360595810e+00   4.497005524975719e+00 -1.15162290e-01  -1.32512802e+00  -1.86916539e+00
C     8.001964138494716e-01   6.216971333176694e+00   6.284140524534504e+00  2.58559276e+00   1.59618060e-01  -2.32772626e+00
C     2.668090344962528e+00   4.451275478408284e+00   6.217448592671402e+00 -1.61578330e-01  -5.71170160e-01  -4.68183980e-01
C     3.539258103260794e+00   3.532599004034604e+00   3.549666539997903e+00  9.31185800e-02   3.91797890e-01  -1.08318724e+00
C     5.301296105917406e+00   5.365258332410202e+00   3.548038284712566e+00  3.62340130e-01  -1.69115027e+00  -5.28111080e-01
C     3.550156950074457e+00   5.360267011299117e+00   5.340358025561925e+00 -3.64537770e-01  -1.85945926e+00  -8.62815170e-01
C     5.298179631272346e+00   3.508708804040630e+00   5.341989124216311e+00  2.24137011e+00   2.47930413e+00  -1.34770526e+00
C     4.406476493035615e+00   4.423275757129234e+00   4.387567022603021e+00  8.74328280e-01   8.12057990e-01   2.21405625e+00
C     6.229957497208495e+00   6.190999502702679e+00   4.443265992136972e+00 -6.89614640e-01   1.31761617e+00  -5.86816480e-01
C     4.462948503529490e+00   6.197692295852088e+00   6.186552544595833e+00  5.65073800e-02   9.77830680e-01   5.92431810e-01
C     6.248196643388021e+00   4.458153872472300e+00   6.221758571474360e+00 -1.29142012e+00  -1.80635531e+00   7.76170100e-02
