64
Lattice="7.10842262195238 0 0 0 7.10842262195238 0 0 0 7.10842262195238 " PBC="1 1 1" Properties=species:S:1:pos:R:3:force:R:3 Energy="-513.28550463"
C     7.075493918476243e+00   2.118430783944540e-02   6.213898717499200e-03  9.09638980e-01  -8.10318590e-01   8.80109840e-01
C     1.765454097315106e+00   1.764182329424161e+00   7.101481458564249e+00  4.01149490e-01   9.88453540e-01  -3.29183490e-01
C     7.100306507389389e+00   1.774958769200308e+00   1.809478264622194e+00  4.85656990e-01   5.47734630e-01  -1.02509557e+00
C     1.803057937311810e+00   4.906723773484780e-02   1.728323820433345e+00 -1.30910694e+00  -2.17125736e+00   1.07890058e+00
C     8.807987468534254e-01   9.064374766434676e-01   8.754197323726453e-01 -2.30445930e-01   1.77687550e-01   3.61323050e-01
C     2.658330765042173e+00   2.680306240319224e+00   8.682099436460839e-01 -1.17180400e-02  -1.38408682e+00   7.70428120e-01
C     8.739733105379276e-01   2.704945525888895e+00   2.676012042214483e+00  2.55762560e-01  -1.71614814e+00   5.31375200e-01
C     2.654920357121775e+00   8.783786843724464e-01   2.664923613769544e+00  3.25002100e-02   1.33969384e+00  -1.95967090e-01
C     3.604251264286169e+00   2.984975935013020e-02   7.095162426276199e+00 -2.06138072e+00  -1.69469013e+00   7.59575400e-02
C     5.332713627876378e+00   1.747854140497569e+00   4.868501785057040e-02  3.88743580e-01   2.07916122e+00  -1.34372195e+00
C     3.540253069174915e+00   1.770559721861921e+00   1.774819728453860e+00  8.79651160e-01   7.03950550e-01  -5.04466890e-01
C     5.313479586866955e+00   7.097739798149759e+00   1.805498685302614e+00 -5.34564240e-01  -1.43226270e-01  -4.71759440e-01
C     4.453612159091930e+00   8.822226349884376e-01   8.754858407030112e-01 -3.81602420e-01   4.71900000e-02   1.57583301e+00
C     6.217709613950008e+00   2.697513456787006e+00   9.130731180750115e-01  4.98735950e-01  -1.43600151e+00  -2.03492060e-01
C     4.469361580248801e+00   2.687219821075210e+00   2.639931537185244e+00 -1.14744373e+00  -3.83664710e-01   2.12888980e-01
C     6.235397146534223e+00   8.440492681714183e-01   2.679471142829827e+00 -2.85445740e-01   1.44034093e+00  -7.49869510e-01
C     7.638639863225800e-03   3.545224842123796e+00   7.085132228706701e+00 -1.94029200e-02  -2.94823320e-01   1.25909190e+00
C     1.795914114747163e+00   5.282065548035068e+00   7.093458892795316e+00 -1.14588766e+00   1.97926585e+00   1.10612280e+00
C     7.105323418821905e+00   5.343732393779640e+00   1.805176887010606e+00  4.78990710e-01  -5.24129200e-01  -1.33047076e+00
C     1.788854242653658e+00   3.524407542144221e+00   1.801663904551802e+00 -9.11507920e-01   1.49406415e+00  -1.17873122e+00
C     9.021869242536124e-01   4.430461306134662e+00   8.872707523962567e-01 -6.10495180e-01  -2.62580690e-01   7.34372600e-02
C     2.642424389913852e+00   6.215175816707109e+00   8.795266946255764e-01  1.78734703e+00   2.66452400e-01  -7.69717560e-01
C     9.286070118580450e-01   6.210755799521992e+00   2.624658024922780e+00 -7.91658850e-01   9.99207940e-01   1.55387774e+00
C     2.640703938387133e+00   4.454291155620592e+00   2.658563281546073e+00  1.81534428e+00  -1.09905722e+00   2.83679920e-01
C     3.518337588984777e+00   3.537692899684096e+00   7.075508703995292e+00  2.21035219e+00   9.28647900e-02   7.13375400e-01
C     5.343560369952236e+00   5.325360959855154e+00   7.042481124312892e+00 -8.71667810e-01  -1.31128600e-02   3.00772352e+00
C     3.537081646423003e+00   5.324280621785366e+00   1.772368531081806e+00  9.26088900e-02   2.99275760e-01  -5.68883450e-01
C     5.347961976322765e+00   3.598980653250344e+00   1.791335011063811e+00 -2.66898970e-01  -1.17604887e+00  -1.02131481e+00
C     4.476403681285757e+00   4.416939095953087e+00   8.612032425537762e-01 -1.89356691e+00   1.56347377e+00   1.00752420e-01
C     6.179596739809485e+00   6.221027399123667e+00   9.345029508317517e-01  1.20023218e+00  -2.56831650e-01  -1.92428474e+00
C     4.365357040463737e+00   6.229851368458778e+00   2.676397034383581e+00  2.12463358e+00  -5.04417590e-01  -1.15961630e-01
C     6.215640138872647e+00   4.461923255735007e+00   2.686103443302739e+00  2.03236120e-01   3.86032440e-01  -1.19959400e-01
C     7.103579011910958e+00   7.088301021342244e+00   3.565428471978586e+00  6.06131050e-01  -4.08135220e-01  -3.69400380e-01
C     1.750861500855412e+00   1.764973567945994e+00   3.558209086881488e+00  4.36838330e-01   7.87101500e-02   3.07702330e-01
C     7.083764639278839e+00   1.763721348217254e+00   5.341067446139402e+00  7.87821600e-01  -1.42184800e-02  -7.33222520e-01
C     1.799366320192566e+00   7.093012910360137e+00   5.397776949033011e+00 -9.62735740e-01   3.85709780e-01  -2.36785828e+00
C     8.664338331702508e-01   8.568422963606324e-01   4.442595099210096e+00  4.81943490e-01   4.72274740e-01   8.64351910e-01
C     2.674798918810153e+00   2.626144111755718e+00   4.456834478149802e+00 -9.52208650e-01   1.82944312e+00  -6.66359350e-01
C     8.987541958861881e-01   2.634096517393390e+00   6.185840280649309e+00 -1.10902507e+00   1.16989223e+00   8.53676830e-01
C     2.677576179527787e+00   9.116702708709543e-01   6.209106147884570e+00  2.99792430e-01  -8.55380860e-01   1.37588636e+00
C     3.538365640800853e+00   3.222830864300840e-02   3.565179535018434e+00  1.38304220e-01  -8.06565620e-01   4.67777160e-01
C     5.371195855656236e+00   1.794249535422237e+00   3.476767462418791e+00 -1.01458038e+00  -1.84689610e-01   3.23798996e+00
C     3.550338285935493e+00   1.794198212610921e+00   5.362204554052650e+00  1.49787182e+00  -3.43459870e-01  -1.56586186e+00
C     5.341100073799227e+00   3.013686853975200e-03   5.336022740774440e+00 -1.22776428e+00   3.85177480e-01  -4.77002070e-01
C     4.468257571131689e+00   9.125018141490421e-01   4.444324223012411e+00 -8.32506560e-01  -4.59203900e-02  -5.89975380e-01
C     6.235732450829208e+00   2.673956712898136e+00   4.452874446992426e+00  7.04961770e-01  -1.83640990e-01  -1.25879426e+00
C     4.506935422702050e+00   2.654810816329201e+00   6.211595588570320e+00 -2.34817444e+00   1.85378650e-01   7.02424320e-01
C     6.196958564469252e+00   9.061537794967034e-01   6.233722686501856e+00  6.38200260e-01  -1.02176365e+00   1.85129740e-01
C     7.484244923919400e-03   3.603819072190873e+00   3.578573935761300e+00 -5.21158500e-02  -1.13299950e+00  -9.64235750e-01
C     1.839009708807401e+00   5.336723133655188e+00   3.555238690321269e+00 -2.26977545e+00   8.46714860e-01  -5.69104520e-01
C     7.093349423086968e+00   5.328167649442435e+00   5.352668676192146e+00  8.60878590e-01   8.91754610e-01  -1.14128296e+00
C     1.732158885521061e+00   3.578530716551770e+00   5.316423895516159e+00  1.59674558e+00  -1.67913763e+00  -5.15911720e-01
C     9.109445009214524e-01   4.474039419922345e+00   4.400485585535705e+00 -8.98685250e-01   3.68880200e-02   1.89716418e+00
C     2.665358649233888e+00   6.229910652703428e+00   4.459669601427563e+00  8.11320790e-01  -4.16527060e-01   4.57263070e-01
C     8.976101663497253e-01   6.224452734731567e+00   6.255066365176441e+00 -9.14210560e-01  -7.00235440e-01  -3.60571990e-01
C     2.636924887669662e+00   4.421143372511686e+00   6.197188237604103e+00  8.21715770e-01   1.11762300e-02   3.92516240e-01
C     3.535764100290385e+00   3.559982069651368e+00   3.556352224724692e+00  9.14454630e-01  -1.12980576e+00  -1.33322800e-01
C     5.305631106367987e+00   5.322439895747918e+00   3.546158249098028e+00 -4.54312800e-01   9.12598510e-01   7.18370470e-01
C     3.560711678149085e+00   5.289202333261322e+00   5.361332563849855e+00 -4.06019520e-01   1.07548482e+00  -1.72742423e+00
C     5.399120725245096e+00   3.550581678326001e+00   5.319145070779322e+00 -2.58628754e+00  -6.10695360e-01   2.68066010e-01
C     4.447853341590562e+00   4.407887017336101e+00   4.436633194074476e+00 -4.18282200e-02   7.95195930e-01   5.62146790e-01
C     6.180814270435839e+00   6.237952979887244e+00   4.445951909623939e+00  1.31041947e+00  -1.29676075e+00   1.17372610e-01
C     4.420369691793725e+00   6.203199190855802e+00   6.203749311682364e+00  1.33080013e+00   5.35842280e-01   2.24244310e-01
C     6.214539683966845e+00   4.424554704527025e+00   6.224641321183675e+00  1.54416024e+00   6.96494740e-01  -9.00876950e-01
