64
Lattice="7.10842262195238 0 0 0 7.10842262195238 0 0 0 7.10842262195238 " PBC="1 1 1" Properties=species:S:1:pos:R:3:force:R:3 Energy="-511.70678014"
C     3.919875677995420e-02   3.979792572259400e-03   7.105423505412396e+00 -1.53693129e+00  -5.97240640e-01  -3.23222250e-01
C     1.763049175774307e+00   1.811545678256995e+00   3.757028824193839e-02  9.65920900e-02  -1.92264918e+00  -1.89130139e+00
C     7.093282532830114e+00   1.760035631088784e+00   1.722555122224537e+00  8.54448270e-01   1.05489660e-01   2.48085633e+00
C     1.744529317985516e+00   1.725775735260980e-02   1.798745186224030e+00  1.53045808e+00  -1.05865095e+00  -1.16495854e+00
C     9.036540315981542e-01   8.838320529538318e-01   8.779136513646459e-01 -9.24602530e-01   3.13938530e-01   7.51190570e-01
C     2.654339954414852e+00   2.626530028019757e+00   8.729923482163676e-01  2.24970350e-01   2.51326706e+00   4.00484180e-01
C     9.224358347604921e-01   2.717965739265044e+00   2.621769375222691e+00 -2.05152547e+00  -2.28681192e+00   9.63101460e-01
C     2.704311881096548e+00   8.260661673746638e-01   2.622277840692700e+00 -1.75227948e+00   2.21433230e+00   1.66430605e+00
C     3.572718656964980e+00   2.472089026134780e-02   7.102737943346559e+00 -3.23203660e-01  -1.64208020e-01   1.05441613e+00
C     5.336170311628031e+00   1.804076361020578e+00   7.094611950028507e+00  6.96365250e-01  -6.23936600e-01   6.40003840e-01
C     3.570818859935558e+00   1.782661811372470e+00   1.717900029503377e+00 -5.38644610e-01  -6.35468750e-01   2.45303664e+00
C     5.327070748747943e+00   4.214534012439660e-02   1.723728722799099e+00 -8.89773970e-01  -1.66897023e+00   1.81917025e+00
C     4.475160062748389e+00   9.391254869773115e-01   8.943817340483999e-01 -7.59674330e-01  -1.07042605e+00  -2.11051511e+00
C     6.224870923234301e+00   2.634017471733856e+00   9.286407768654900e-01 -7.58023740e-01   2.26519169e+00  -2.09841553e+00
C     4.408450004407605e+00   2.656892304640790e+00   2.657323430472693e+00  8.94053600e-01   1.29743231e+00   1.06166803e+00
C     6.174359396191521e+00   8.613913314163013e-01   2.635751287095100e+00  2.26390262e+00   1.32348614e+00   1.03326994e+00
C     7.089200450056353e+00   3.535310796179908e+00   7.071407428480457e+00  5.50386250e-01   1.10783208e+00   1.75367489e+00
C     1.828869472855745e+00   5.335431533265135e+00   2.848373377524480e-02 -1.08594415e+00   2.23292000e-01  -2.24120076e+00
C     3.017248173707820e-02   5.294432994962023e+00   1.766794248231654e+00 -1.16262414e+00   1.60759009e+00   6.87185990e-01
C     1.742082243498581e+00   3.602391843097229e+00   1.748675234394405e+00  1.74510685e+00  -1.52872770e+00   4.84477880e-01
C     9.110590176098605e-01   4.469731715814625e+00   8.418772185556511e-01 -6.36867650e-01  -7.11903670e-01   1.02923154e+00
C     2.680157105612657e+00   6.250549033685658e+00   8.346631647755181e-01 -4.36172500e-02  -1.14120924e+00   3.28461290e+00
C     8.833585609231136e-01   6.234595956220723e+00   2.731023769449531e+00  7.68730500e-01  -1.53546840e-01  -3.00566998e+00
C     2.611143847258767e+00   4.404796772770509e+00   2.711338414687965e+00  2.00203637e+00   2.19596174e+00  -1.64985086e+00
C     3.539892743232308e+00   3.507187032926140e+00   7.073306017078033e+00  9.91192050e-01   1.48070786e+00   1.37213022e+00
C     5.324307278370191e+00   5.321855725577006e+00   3.841441342806340e-02 -7.05156510e-01  -4.01310000e-02  -1.72130603e+00
C     3.597486604984072e+00   5.299384437822209e+00   1.797196829608942e+00 -2.99396370e+00   1.40077207e+00  -2.66953100e-01
C     5.342433329545835e+00   3.592107590503292e+00   1.842407392651309e+00 -2.07610810e-01  -2.11074725e+00  -1.67779836e+00
C     4.448784829290688e+00   4.465444839385182e+00   9.426163622417673e-01  3.82952740e-01  -2.11538421e+00  -1.51321462e+00
C     6.156283672648028e+00   6.201650194482678e+00   8.706726566627829e-01  3.36197443e+00   1.13058526e+00   9.89413880e-01
C     4.404368845728785e+00   6.229746661393585e+00   2.644679465905820e+00  1.79486479e+00  -6.38097520e-01   3.38313740e-01
C     6.273911006794740e+00   4.414705131976300e+00   2.685950327879504e+00 -1.79536421e+00   1.29012746e+00  -3.61232940e-01
C     2.182278635917380e-02   7.091569118641789e+00   3.573430565490372e+00 -2.78122192e+00   1.22321686e+00  -4.04002350e-01
C     1.772139142283858e+00   1.809262523995677e+00   3.527055998243981e+00  5.90281460e-01  -8.39836500e-01   1.81645050e-01
C     7.058336816387932e+00   1.830720150684862e+00   5.347811206678996e+00  1.89116791e+00  -2.06666767e+00  -8.51661270e-01
C     1.785417675738018e+00   6.353721390434599e-03   5.293739070745858e+00 -2.98263320e-01   5.36517400e-01   2.57134048e+00
C     8.136221627360918e-01   9.355684322982634e-01   4.451102459401712e+00  2.90315009e+00  -8.52353400e-01  -8.00384960e-01
C     2.676571901580034e+00   2.663330260839271e+00   4.454197466610460e+00 -8.28263890e-01  -7.12888580e-01   6.91482550e-01
C     8.648126152233074e-01   2.666056127661363e+00   6.210960522093449e+00  3.83507210e-01   5.18769190e-01   5.79291160e-01
C     2.696366939302626e+00   9.104080282663211e-01   6.282275132270564e+00 -1.36951757e+00  -2.36096940e-01  -2.46879800e+00
C     3.527093459631188e+00   7.035767005895623e+00   3.565919663981628e+00  1.21749996e+00   2.18296501e+00  -8.68704550e-01
C     5.329788227631342e+00   1.813786110898367e+00   3.561591771953667e+00 -7.70835500e-01  -2.24501955e+00  -7.69866290e-01
C     3.584170467974252e+00   1.726285906752417e+00   5.358578832011093e+00 -1.26776013e+00   1.81416957e+00  -7.20316580e-01
C     5.306018728653456e+00   7.098718130354950e+00   5.326035478077566e+00  1.34487133e+00  -5.79255390e-01   4.72471020e-01
C     4.408437920089151e+00   8.378748922836864e-01   4.455311711856145e+00  1.22185418e+00   1.28581306e+00  -4.95448880e-01
C     6.248301919127024e+00   2.697071739405399e+00   4.432489765613504e+00 -1.97492155e+00  -1.42800792e+00   7.75777030e-01
C     4.473715773440456e+00   2.684237198028084e+00   6.191623124619132e+00 -9.10753390e-01  -2.07225231e+00   1.08427554e+00
C     6.255659918465212e+00   8.956452561691050e-01   6.213959707765279e+00 -1.93253676e+00  -3.35842000e-03   1.73844810e-01
C     7.107395026426053e+00   3.537289283447733e+00   3.588096734124183e+00  1.25981584e+00   1.21330720e+00  -2.27738295e+00
C     1.783545103967232e+00   5.375047625537109e+00   3.555316954054315e+00 -9.58213800e-02  -2.21999774e+00   8.30769610e-01
C     8.241078680270800e-03   5.298559576461385e+00   5.297111448605238e+00 -1.07796309e+00   1.35941192e+00   1.39216602e+00
C     1.743662659099686e+00   3.563816423896823e+00   5.352561907684393e+00  1.22361367e+00  -1.85690410e-01  -1.33683159e+00
C     8.696963148159260e-01   4.463607738643269e+00   4.395224570870416e+00  1.12386604e+00  -7.63334080e-01   2.30344427e+00
C     2.711848159674046e+00   6.182078716651485e+00   4.481231579760808e+00 -2.41648317e+00   1.14398208e+00  -1.38056438e+00
C     8.959355641489058e-01   6.218743178598956e+00   6.248335186544885e+00  6.89715190e-01  -4.13761820e-01  -2.10015882e+00
C     2.683255240527358e+00   4.421348663756952e+00   6.216355032935541e+00 -7.41551050e-01   5.43630650e-01   2.89291830e-01
C     3.531649176604120e+00   3.556679709754795e+00   3.598090536569867e+00  2.44024400e-01  -5.05073700e-01  -9.51765800e-01
C     5.331505480367882e+00   5.369172158820549e+00   3.523879030922424e+00  4.45151480e-01  -1.87057713e+00   5.48612980e-01
C     3.572636412515266e+00   5.332696141156732e+00   5.344427810764554e+00  2.87837300e-02  -1.25254559e+00   7.00828430e-01
C     5.334825540236779e+00   3.505509445187820e+00   5.338319329954509e+00  4.86796940e-01   3.15619012e+00  -9.34478550e-01
C     4.469688852026227e+00   4.433604792785677e+00   4.469096009579718e+00 -7.09642620e-01   5.19547720e-01  -1.16736270e+00
C     6.201531554909150e+00   6.192809307101731e+00   4.412146099833100e+00  5.90363410e-01   1.24574550e+00   1.44155366e+00
C     4.412332198337292e+00   6.215208941956518e+00   6.251977257958468e+00  1.59779560e+00   1.80847240e-01  -7.84985980e-01
C     6.211566870542935e+00   4.440708737099428e+00   6.215864693943213e+00 -4.20809400e-02  -6.75426220e-01   2.84524100e-02
