64
Lattice="7.10842262195238 0 0 0 7.10842262195238 0 0 0 7.10842262195238 " PBC="1 1 1" Properties=species:S:1:pos:R:3:force:R:3 Energy="-511.93060425"
C     7.071132687946194e+00   7.088175202261870e+00   7.076629488989788e+00  1.78589432e+00   4.88504350e-01   7.37297500e-01
C     1.750557118198824e+00   1.747018758671267e+00   7.103243067857937e+00  1.19177463e+00   1.78194710e-01   9.66496800e-01
C     1.885494883109760e-02   1.815072593224134e+00   1.769547411396606e+00 -1.02581348e+00  -1.22262011e+00   1.34674460e-01
C     1.748032135399974e+00   5.179978647420200e-03   1.777907556155762e+00  1.97206418e+00  -6.01835000e-03  -4.38646900e-02
C     8.942652980858844e-01   8.430486155192010e-01   9.148247044928056e-01 -1.56892518e+00   2.06893870e+00  -1.88949339e+00
C     2.695882926806430e+00   2.648790835380776e+00   9.233922019397868e-01 -9.13977530e-01   8.64749810e-01  -1.78013069e+00
C     9.456775333588440e-01   2.671292333931707e+00   2.655596012691807e+00 -1.63035690e+00  -8.30862570e-01   1.61845600e-01
C     2.667932253643460e+00   8.669279396265670e-01   2.682817859283549e+00 -1.94116240e-01   6.61875470e-01  -6.88916540e-01
C     3.533879302032692e+00   3.956839475619420e-02   7.103986040190180e+00  1.10090913e+00  -1.25704138e+00   1.04787516e+00
C     5.315369574273161e+00   1.769030913409037e+00   1.184369834831300e-02  1.02879687e+00   1.13400030e-01  -4.16052380e-01
C     3.587983923457203e+00   1.785975402576783e+00   1.799155413293430e+00 -1.66972842e+00  -3.40285050e-01  -7.40131590e-01
C     5.331372126359531e+00   7.095062410769936e+00   1.835525657628660e+00 -6.66489630e-01   8.83110210e-01  -2.65381119e+00
C     4.458908573701865e+00   9.033762344421645e-01   9.117854273173983e-01 -8.21063730e-01  -5.72252930e-01   1.05325770e-01
C     6.188659552144627e+00   2.713097962539094e+00   8.956635958994645e-01  2.84110029e+00  -1.78789868e+00  -1.38810130e+00
C     4.408076030293567e+00   2.696983808217590e+00   2.634768334415206e+00  1.63888196e+00  -9.54555780e-01   1.94947546e+00
C     6.177882472610445e+00   9.030586301195030e-01   2.666564664215598e+00  1.93131074e+00  -2.41137980e-01   4.31407700e-01
C     4.496162608221440e-02   3.561496661259011e+00   1.241059505225800e-03 -1.05161121e+00   7.05250400e-01  -9.68985720e-01
C     1.785728740311869e+00   5.320133354776180e+00   4.703941801404039e-02  8.06054620e-01   1.35914255e+00  -3.45138974e+00
C     4.102661657246100e-02   5.387922329502227e+00   1.802221773559020e+00 -1.31071149e+00  -1.01509129e+00  -2.14360254e+00
C     1.786550260714063e+00   3.585666151177726e+00   1.804128394674156e+00  9.11371470e-01  -1.04464353e+00  -1.25102627e+00
C     9.593874769818118e-01   4.490144120041765e+00   8.727330329591899e-01 -2.90475887e+00  -2.06855024e+00   1.95343736e+00
C     2.657898288609972e+00   6.240434956729244e+00   8.880983149576772e-01  3.71534390e-01  -5.74958810e-01   4.07300000e-01
C     8.802907789730002e-01   6.276993289926998e+00   2.627672067197887e+00  6.43693670e-01  -1.19062021e+00   2.90916774e+00
C     2.647321950930579e+00   4.439619797838269e+00   2.677191471695593e+00  4.78896340e-01   5.36930030e-01   7.79568070e-01
C     3.612535491091743e+00   3.553027117875734e+00   7.069349824468873e+00 -1.93230845e+00  -2.74469350e-01   1.19481533e+00
C     5.322355234434514e+00   5.297999148422024e+00   3.695825305435640e-02 -2.46650580e-01   1.60607927e+00  -1.23208986e+00
C     3.528562415165611e+00   5.305964349220413e+00   1.797210762117277e+00  1.31013138e+00   1.12800981e+00  -4.63741760e-01
C     5.371996335127474e+00   3.557265443778682e+00   1.757114211560417e+00 -1.38128945e+00   9.42023570e-01   1.73705464e+00
C     4.469019167531195e+00   4.408710883517760e+00   9.055924984466283e-01 -8.46429660e-01   1.01924633e+00  -6.11758170e-01
C     6.172476232871031e+00   6.271143911121452e+00   8.534153258155304e-01  1.53593895e+00  -2.31456247e+00   1.99183998e+00
C     4.441522935826322e+00   6.228613365575279e+00   2.701166830592555e+00 -7.10308580e-01  -5.05299730e-01  -9.37533060e-01
C     6.276882825039484e+00   4.472012666464931e+00   2.658311287964194e+00 -1.05225208e+00  -5.70745550e-01  -1.69664840e-01
C     1.872358518108000e-03   2.983923888465260e-02   3.543923361026300e+00 -1.20968204e+00  -9.08252350e-01   4.51145400e-01
C     1.785889746084212e+00   1.723251250051713e+00   3.552385867071184e+00 -4.64467100e-01   1.92256193e+00   8.43097430e-01
C     7.097893411162577e+00   1.798543307021622e+00   5.299258831994514e+00 -8.03184870e-01  -7.26890130e-01   7.59567600e-01
C     1.771417281966797e+00   7.086279172696438e+00   5.287804817374230e+00 -4.00746290e-01   5.62946840e-01   2.28272164e+00
C     8.312373315780353e-01   8.864625958285890e-01   4.479171487801306e+00  2.03232580e+00  -4.15361490e-01  -2.45031686e+00
C     2.642353163519199e+00   2.658328206010030e+00   4.477278941362957e+00  1.57863238e+00  -3.98748620e-01  -1.96488374e+00
C     9.182145690718312e-01   2.608950188038235e+00   6.185538599193317e+00 -1.28320874e+00   2.33760908e+00   1.31498924e+00
C     2.657980106554328e+00   9.039103613178313e-01   6.236747391410892e+00 -1.40640300e-01  -8.79403880e-01  -1.02393545e+00
C     3.527118125857680e+00   1.781441792798200e-02   3.550926294654619e+00  1.04158149e+00  -1.44231913e+00   1.04700981e+00
C     5.291452646610135e+00   1.712167513165704e+00   3.565223180733321e+00  4.69713050e-01   3.58717771e+00  -1.51614422e+00
C     3.539746522979014e+00   1.800148033428087e+00   5.362066721738048e+00  2.15073310e-01  -1.33211688e+00  -1.19522496e+00
C     5.367871246396862e+00   7.052550062785668e+00   5.359473711334725e+00 -1.51159172e+00   1.52451648e+00  -6.92241060e-01
C     4.439756137384121e+00   9.032311515364904e-01   4.431895999072056e+00 -1.06040573e+00  -1.76220904e+00   1.74590347e+00
C     6.161185569802554e+00   2.693270439325128e+00   4.352507784651598e+00  2.59268848e+00  -2.14394331e+00   1.96260576e+00
C     4.442572920931521e+00   2.625738362992568e+00   6.198394963428075e+00  1.08656059e+00   1.61629874e+00   4.30198900e-01
C     6.228666749829155e+00   8.720173569698084e-01   6.219440728110657e+00 -4.59323610e-01   1.02634946e+00  -3.00865650e-01
C     2.791996477725260e-02   3.505969431215560e+00   3.520881053682439e+00 -4.72084180e-01   2.22286295e+00   5.96476650e-01
C     1.799230691488976e+00   5.335061397699310e+00   3.588868779904940e+00 -1.53086514e+00  -3.59919150e-01  -1.02768249e+00
C     7.072179474261215e+00   5.304507904509800e+00   5.284490302074976e+00  1.92461051e+00   5.97667280e-01   1.64893949e+00
C     1.809354791321285e+00   3.531740022245204e+00   5.309763232436993e+00 -1.82562548e+00   8.38277840e-01   1.58099576e+00
C     8.863925778657820e-01   4.429039337273756e+00   4.488512097292439e+00 -1.85247300e-02  -9.04878490e-01  -2.56454077e+00
C     2.663964616473880e+00   6.180386698815245e+00   4.469828177109578e+00  4.67724500e-02   2.78810010e+00  -1.49171477e+00
C     9.036672532642275e-01   6.186420185766649e+00   6.182452193175939e+00 -1.32006223e+00   6.04285230e-01   1.16729716e+00
C     2.642206943265906e+00   4.463730216765011e+00   6.185517202841230e+00  1.93564432e+00  -9.97105080e-01   1.91870050e+00
C     3.537435716953705e+00   3.565972621730147e+00   3.569929311928891e+00  2.13379100e-01  -2.72001040e-01  -5.90862820e-01
C     5.314382072202791e+00   5.349273053790798e+00   3.561739129554580e+00  9.33091810e-01  -1.03245449e+00  -3.09856830e-01
C     3.536910546690539e+00   5.388186336318333e+00   5.356995075451358e+00  9.25522260e-01  -2.47257390e+00  -4.64357990e-01
C     5.371566062306285e+00   3.522993179295520e+00   5.286425996638628e+00 -2.37285862e+00   1.90552320e+00   7.80240230e-01
C     4.440823324872062e+00   4.464742171809195e+00   4.424008990922487e+00 -4.35100060e-01  -7.53407790e-01   1.02159185e+00
C     6.215112551745791e+00   6.172045107039128e+00   4.450549637374555e+00  2.10959920e-01   2.10587100e+00  -1.27592640e+00
C     4.444372062696644e+00   6.201724477499057e+00   6.251643517516460e+00 -5.84215470e-01   1.03681713e+00  -8.29058000e-02
C     6.197371634907700e+00   4.506422478925790e+00   6.173184942606245e+00  1.08825479e+00  -3.65390589e+00   1.73326038e+00
