64
Lattice="7.10842262195238 0 0 0 7.10842262195238 0 0 0 7.10842262195238 " PBC="1 1 1" Properties=species:S:1:pos:R:3:force:R:3 Energy="-511.46251901"
C     7.039133270511550e+00   5.770617482916000e-04   2.434485470474980e-02  2.87000250e+00   3.49708660e-01  -3.83689560e-01
C     1.745341739606756e+00   1.785755823402052e+00   7.084450886398574e+00  1.23671417e+00  -5.00846410e-01  -1.15207630e-01
C     4.366185100614740e-02   1.750171557355915e+00   1.798282996585278e+00 -1.74305034e+00   9.56939130e-01  -7.00599900e-02
C     1.828977165458438e+00   7.097485245535737e+00   1.700149160873618e+00 -1.39936472e+00   3.61595890e-01   2.20274539e+00
C     9.002399272979944e-01   8.991559639326705e-01   9.142760764349940e-01 -2.30770250e-01  -6.55904390e-01  -1.63704844e+00
C     2.672117835050567e+00   2.667732080462480e+00   8.318185162114464e-01 -7.74451130e-01  -9.23592750e-01   2.00501241e+00
C     8.631899045076138e-01   2.681938405237003e+00   2.688231065277131e+00  2.18288938e+00  -1.96439443e+00  -6.71779490e-01
C     2.672930825345617e+00   8.659744869005463e-01   2.624179841333133e+00 -5.89354050e-01   4.28377420e-01   6.43753490e-01
C     3.658993013630110e+00   2.311644819178760e-02   7.090981891849151e+00 -4.11353596e+00  -5.21476390e-01  -7.77759880e-01
C     5.331655397000937e+00   1.794283016092778e+00   1.000830362782900e-01  8.64945930e-01  -2.60365900e-01  -3.60413742e+00
C     3.550493036295930e+00   1.772368033492222e+00   1.725755263003834e+00 -1.52965790e-01  -3.89765860e-01   1.48988509e+00
C     5.286090692343643e+00   7.054291270906438e+00   1.773797395112652e+00  1.65970191e+00   1.19688862e+00   6.09221600e-01
C     4.434433492694717e+00   8.743598665600032e-01   8.628423026414958e-01  1.64235451e+00   4.15121060e-01   2.12360302e+00
C     6.238941263884103e+00   2.673361737924842e+00   9.126381536948935e-01 -9.62090440e-01  -5.09970180e-01   1.49185249e+00
C     4.425343739437845e+00   2.647846481435709e+00   2.691019130797148e+00 -9.24305700e-02   1.42841363e+00  -1.70542936e+00
C     6.234681541629067e+00   8.514320759045504e-01   2.632469683792577e+00 -6.97145880e-01   5.29349810e-01  -1.36728940e-01
C     2.027172854348980e-02   3.520479854309766e+00   5.767973149701359e-02 -2.19835788e+00   3.93478720e-01  -2.40528000e+00
C     1.755145107410450e+00   5.343290320976902e+00   7.072503120743104e+00  7.52278630e-01  -9.95791060e-01   1.92505895e+00
C     4.769623626412840e-02   5.351598432082479e+00   1.799652220950342e+00 -8.54235310e-01  -3.05440738e+00  -3.91363330e-01
C     1.796850507258895e+00   3.468802759209986e+00   1.766818061447431e+00 -8.44758080e-01   3.23639963e+00   1.17117970e+00
C     8.709555718830589e-01   4.357046228157563e+00   9.358786438614003e-01  1.42894864e+00   2.47806257e+00  -1.49014126e+00
C     2.683974044222692e+00   6.235960062521501e+00   8.639133286776512e-01 -1.63909670e-01   2.13658610e-01  -1.70201767e+00
C     9.666618812699889e-01   6.152442636485311e+00   2.625184759038923e+00 -7.40836710e-01   3.13906079e+00   1.53067692e+00
C     2.642303120223954e+00   4.495422834679376e+00   2.679314188858377e+00  1.02278660e+00  -2.26138283e+00  -3.12494000e-01
C     3.550130577826537e+00   3.554005307912472e+00   4.255208406671300e-02  5.74135900e-02   1.25056163e+00  -2.24190286e+00
C     5.314536396057870e+00   5.381178497878406e+00   6.829559200617400e-03  9.97319740e-01  -3.03052986e+00  -1.99192460e-01
C     3.491612976555304e+00   5.396510299206353e+00   1.759014932684779e+00  1.17509669e+00  -2.55196586e+00   1.09508889e+00
C     5.292870563670147e+00   3.583467018471777e+00   1.833237882892639e+00  1.46610896e+00  -3.67365100e-02  -1.35004552e+00
C     4.384200829071320e+00   4.474768104325121e+00   9.078543985243122e-01  1.45272173e+00   5.20680100e-02   3.19856960e-01
C     6.264446426413115e+00   6.174197892829595e+00   9.276663542927405e-01 -2.50735904e+00   1.70803296e+00  -1.23729416e+00
C     4.382386119860660e+00   6.208205652907068e+00   2.683527919619061e+00  1.51118367e+00  -5.16280160e-01  -8.56051010e-01
C     6.237568698560407e+00   4.476470358289933e+00   2.695296624108733e+00 -1.41646755e+00  -5.15555780e-01  -2.67918530e-01
C     7.097219959203558e+00   7.050083297968077e+00   3.471810119567829e+00  1.55212318e+00   1.29139340e+00   1.99814612e+00
C     1.761922277536359e+00   1.747469219412696e+00   3.564917092055303e+00  1.99649860e-01   1.87739850e-01  -2.61191400e-02
C     7.084927435051019e+00   1.795796186015897e+00   5.273081852443686e+00 -6.71715790e-01  -6.01778620e-01   1.96080325e+00
C     1.790224177860984e+00   1.921527477370540e-02   5.409990711862922e+00 -3.54845040e-01  -2.19234000e-02  -1.96583922e+00
C     8.734266017542234e-01   8.963664056439039e-01   4.497278701657006e+00  7.04465220e-01  -1.41705847e+00  -2.64381070e+00
C     2.632684997913737e+00   2.630386702712239e+00   4.449884146848870e+00  8.00110000e-01   1.65226621e+00   2.91144460e-01
C     8.232000513742799e-01   2.639192332316990e+00   6.201357540723412e+00  1.54144925e+00   1.42004622e+00   5.16355030e-01
C     2.703716266365218e+00   9.116446094652962e-01   6.226936133258089e+00 -2.25506040e-01  -4.56624990e-01   2.91591960e-01
C     3.547565432439883e+00   7.074448482761520e+00   3.534619573164339e+00 -6.26708410e-01   2.07110987e+00   7.77934070e-01
C     5.355729847309223e+00   1.799002155701743e+00   3.496421184699698e+00 -5.85582650e-01  -1.61753863e+00   8.49245880e-01
C     3.603869897412606e+00   1.787291455940650e+00   5.348946492855636e+00 -1.35892408e+00  -9.38192800e-02  -7.62292890e-01
C     5.333916301899455e+00   7.084109255607457e+00   5.285938216678444e+00  7.97541800e-01   1.64464991e+00   7.79710200e-02
C     4.445407830956604e+00   8.826136693167638e-01   4.374808896768871e+00  7.47484060e-01   3.49580090e-01   1.93814552e+00
C     6.222965723803688e+00   2.689286737120427e+00   4.366130579013245e+00  3.37349440e-01  -7.46909300e-02   1.33042630e+00
C     4.473655707269318e+00   2.678959478569639e+00   6.281493916624625e+00 -8.80727200e-02  -1.60434450e-01  -1.72022110e+00
C     6.216807768372209e+00   8.977392553045046e-01   6.220096337928900e+00 -1.26996329e+00   8.33341000e-03  -1.62685780e-01
C     5.048856683771680e-02   3.595449331061179e+00   3.530915089800152e+00 -1.32959915e+00   3.08889200e-02   5.55092530e-01
C     1.841049115257079e+00   5.361470609417135e+00   3.638618141874403e+00 -1.83770975e+00  -9.75633940e-01  -3.14414868e+00
C     8.498119242210000e-04   5.327779956072741e+00   5.300656276797380e+00  1.84215520e-01   7.28968260e-01   6.78552320e-01
C     1.707346438776368e+00   3.575794969022237e+00   5.342128022794305e+00  2.63348904e+00  -1.36852848e+00  -1.67294000e-03
C     9.431314385448124e-01   4.481473550466793e+00   4.439146874481360e+00 -2.06332867e+00  -8.61055030e-01   6.01151250e-01
C     2.675013948594408e+00   6.223291573896589e+00   4.488909102695765e+00  2.99374780e-01   1.40806773e+00  -2.70737400e-02
C     8.772261958130657e-01   6.241945070030637e+00   6.242507275175652e+00 -7.46295930e-01  -5.88961790e-01  -2.45472000e-01
C     2.663826641990826e+00   4.453157433296928e+00   6.215648740064017e+00 -7.26264280e-01  -2.93861930e-01   4.98503660e-01
C     3.526051791380453e+00   3.571662914037457e+00   3.562380167106451e+00 -2.29231750e-01  -8.01011170e-01   3.15986590e-01
C     5.261129963903096e+00   5.301885180899926e+00   3.596752802517009e+00  1.96013694e+00   1.17127302e+00  -1.68875064e+00
C     3.562859203706813e+00   5.354819329455827e+00   5.353484012266660e+00 -6.08928140e-01  -8.16818070e-01   5.05490930e-01
C     5.358862671326309e+00   3.562642254648451e+00   5.278634596773299e+00 -1.41545448e+00  -5.56007330e-01   2.28184840e+00
C     4.389678295205387e+00   4.453614149450263e+00   4.484719611656216e+00  1.42892321e+00  -9.14449920e-01  -1.07142932e+00
C     6.239669095276165e+00   6.219696204819619e+00   4.374790485954286e+00 -1.44468215e+00  -1.05508081e+00   1.83704134e+00
C     4.466799562568101e+00   6.239453283565421e+00   6.200370322989946e+00  4.23485620e-01  -1.05886530e-01   1.84783510e-01
C     6.202042650495528e+00   4.416510315900649e+00   6.195483993280958e+00  1.12543270e+00   1.38954046e+00   8.97480450e-01
