64
Lattice="7.10842262195238 0 0 0 7.10842262195238 0 0 0 7.10842262195238 " PBC="1 1 1" Properties=species:S:1:pos:R:3:force:R:3 Energy="-498.51668433"
C     5.964464167763400e-03   1.609432182239440e-02   7.097957102629252e+00  8.10280230e-01  -7.13127340e-01   4.84315730e-01
C     1.856252964977866e+00   1.740769033503763e+00   1.401731892547922e-01 -3.83700818e+00   9.28027330e-01  -4.38575255e+00
C     1.622852884146000e-04   1.729536517332317e+00   1.700294101610840e+00 -1.91893740e-01   2.83302662e+00   2.68351798e+00
C     1.831554679500450e+00   7.027657859539179e+00   1.824150688667910e+00 -2.41372207e+00   2.66231395e+00   5.21944100e-01
C     9.889880150348849e-01   8.973350703943312e-01   9.966169874433473e-01 -2.30315896e+00  -3.03637305e+00  -2.51668588e+00
C     2.584121676258421e+00   2.731357083386183e+00   8.355830657467722e-01  4.07966919e+00  -1.23742301e+00   3.93128754e+00
C     7.477314922707162e-01   2.732813172675664e+00   2.635910586846014e+00  4.13839205e+00  -3.32983885e+00  -6.44760500e-02
C     2.612473477709838e+00   9.209276407332065e-01   2.659338739369689e+00  2.59304679e+00  -9.98638730e-01  -2.45039060e-01
C     3.481034861770255e+00   7.609267860959960e-02   1.526963817213510e-01  1.03389675e+00  -6.60600270e-01  -4.55928601e+00
C     5.346340545123144e+00   1.724262778590539e+00   5.845000017211679e-02  7.08117500e-02   6.27347038e+00  -2.96355408e+00
C     3.577573709614440e+00   1.823367482663639e+00   1.822209804955745e+00 -1.12605709e+00   1.84867814e+00   3.93371080e-01
C     5.241378074305807e+00   1.393287797317624e-01   1.725522391078803e+00  1.86070287e+00  -3.39909944e+00   1.15314740e+00
C     4.392020449374451e+00   1.092542947089235e+00   9.045174206095794e-01  2.69264770e-01  -7.04276449e+00   3.49241390e-01
C     6.352803266569001e+00   2.627378773680586e+00   7.343778227894628e-01 -3.55628230e+00   1.71507480e+00   3.94916725e+00
C     4.631039880455880e+00   2.617807069370077e+00   2.732791847407804e+00 -4.35599250e+00   2.06931325e+00  -8.89366230e-01
C     6.130275304881746e+00   9.472113177075614e-01   2.606314882520323e+00  2.67573922e+00  -1.79824527e+00   3.08960452e+00
C     4.927402174886360e-02   3.644563981974903e+00   7.000524797145960e+00 -1.99101077e+00  -2.34872604e+00   3.37923048e+00
C     1.898277675170401e+00   5.189359277330682e+00   2.380610735438000e-02 -2.28434816e+00   3.38234592e+00  -5.59618340e-01
C     7.019548357761604e+00   5.446587004037467e+00   1.680681750349581e+00  2.65405669e+00  -2.61031248e+00   2.44107941e+00
C     1.724261712327146e+00   3.515632123335605e+00   1.809328134736460e+00 -3.76091520e-01   3.29602632e+00  -2.14136079e+00
C     8.178994427949982e-01   4.457352255653443e+00   9.258448920805915e-01  2.70303017e+00   7.18310780e-01  -2.66931866e+00
C     2.729768350930613e+00   6.231885514675716e+00   9.834783477463490e-01 -1.52721059e+00  -1.80267981e+00  -2.33207985e+00
C     8.672721294498273e-01   6.207442066149228e+00   2.635641533049847e+00 -1.81274548e+00   9.32308340e-01   1.55103394e+00
C     2.673768552951384e+00   4.464316661631162e+00   2.626295734410202e+00 -7.01072150e-01  -1.23820361e+00   5.23958410e-01
C     3.538078247274326e+00   3.478729315977684e+00   7.039485563936597e+00  2.70554223e+00   8.50626880e-01   2.75041048e+00
C     5.185421850957239e+00   5.352189142002201e+00   4.256523464856000e-03  2.18392836e+00  -2.15878264e+00  -9.69181390e-01
C     3.597796958715661e+00   5.357020736857015e+00   1.800011125208426e+00 -8.40950470e-01  -1.08159399e+00  -3.40795550e-01
C     5.415214975983264e+00   3.508076509848581e+00   1.752293776929116e+00  9.00867100e-01   9.94864850e-01  -3.89720030e-01
C     4.456691172349783e+00   4.420500628938386e+00   9.558048319813318e-01 -1.19750544e+00  -9.40284580e-01  -2.59872332e+00
C     6.133254871307145e+00   6.201598729502909e+00   8.339204056959542e-01  1.49962590e-01   4.61943801e+00  -1.47491730e+00
C     4.467806115211093e+00   6.262058920507735e+00   2.610224586045549e+00  2.85762400e-02  -1.06802095e+00   1.22723858e+00
C     6.245380073093298e+00   4.558888253515261e+00   2.570293093061925e+00 -1.69714551e+00  -4.21276761e+00   3.09415473e+00
C     7.005114065873658e+00   4.982151245905599e-03   3.602382388895145e+00  2.66619607e+00   1.25531779e+00  -1.70292059e+00
C     1.713182880252745e+00   1.826321672020284e+00   3.459250034387872e+00  5.48876320e-01  -1.62418320e+00   4.19999650e+00
C     1.435044804314290e-01   1.753921321372191e+00   5.446538808932104e+00 -3.73470412e+00   1.32399857e+00  -7.54242690e-01
C     1.913884927874873e+00   7.025223651297186e+00   5.436177643205419e+00 -2.45986049e+00   2.34329282e+00  -5.76594095e+00
C     9.249163899179671e-01   8.460881059472868e-01   4.561553485492404e+00 -9.83604000e-03   4.56520300e-01  -2.95032479e+00
C     2.655973114511798e+00   2.681849905375384e+00   4.379268294615303e+00  6.37345920e-01  -1.66620560e-01  -1.84605806e+00
C     9.094088683828537e-01   2.728911430583772e+00   6.295874113416433e+00  3.26876866e+00  -1.95133652e+00  -3.10897122e+00
C     2.641242756821729e+00   8.806956036412092e-01   6.259218679165688e+00  1.53182482e+00   1.72551714e+00   1.98205597e+00
C     3.579971025143034e+00   7.048456037861906e+00   3.459725872198055e+00 -2.21869722e+00   3.19054273e+00   3.03098260e+00
C     5.375066462857052e+00   1.730261221018426e+00   3.752781826015295e+00 -8.21468170e-01  -4.02443930e-01  -4.35239266e+00
C     3.537005728469421e+00   1.861033592442495e+00   5.331132927938368e+00 -1.18269892e+00  -3.50915701e+00  -1.43174370e-01
C     5.111775962497670e+00   7.067100079793868e+00   5.532632469494233e+00  5.15814059e+00   2.39693572e+00  -5.37517655e+00
C     4.326204204093907e+00   8.339745007920923e-01   4.562426328705913e+00  2.64410214e+00   7.26317740e-01  -2.30547960e+00
C     6.307479466354297e+00   2.562612940010599e+00   4.554450109852463e+00 -5.20500730e-01   3.08479788e+00  -2.35045900e+00
C     4.484408618166591e+00   2.663138617765436e+00   6.198551846315298e+00 -3.50383320e-01  -1.20794383e+00   1.02918747e+00
C     6.208929859003594e+00   9.982889595277976e-01   6.318896943682315e+00  9.63128660e-01  -6.77273425e+00  -1.60039846e+00
C     5.055296914665400e-03   3.613754869907978e+00   3.513177442836467e+00 -1.47702251e+00  -9.96714500e-01   5.83766770e-01
C     1.649444355819801e+00   5.303433821851919e+00   3.601275678577436e+00  5.28235663e+00   2.58564701e+00  -6.40665980e+00
C     4.223106770119380e-02   5.338699630564680e+00   5.304636922380354e+00 -1.93708965e+00   5.81539620e-01  -7.63856200e-02
C     1.861123656157090e+00   3.588207341180150e+00   5.237708422212458e+00 -2.89151065e+00  -2.52546955e+00   8.79241600e-01
C     8.861009192856835e-01   4.463960245320994e+00   4.360573498545834e+00 -1.39139781e+00  -2.16708457e+00   4.62613124e+00
C     2.689047396530812e+00   6.156588623978426e+00   4.244157297445117e+00 -8.47425280e-01   2.19406060e-01   6.38794363e+00
C     9.903531875990559e-01   6.206058624938923e+00   6.161728937627626e+00 -1.94227612e+00  -2.51993428e+00   3.60485195e+00
C     2.802726854922829e+00   4.248188341744466e+00   6.106753107926809e+00 -3.86826884e+00   7.30038115e+00   1.24232703e+00
C     3.637193969402487e+00   3.582508163344565e+00   3.393770799423742e+00 -1.41384522e+00  -1.14756915e+00   5.37991568e+00
C     5.309739419221216e+00   5.236116562050936e+00   3.561028571629485e+00  1.69592725e+00   5.33508710e+00  -9.82227130e-01
C     3.563131527377385e+00   5.302853632397674e+00   5.238430282529519e+00 -1.71180885e+00  -1.56069520e+00   5.43562210e-01
C     5.376624202589999e+00   3.512745250741170e+00   5.302448239055656e+00 -9.14895890e-01  -4.67890040e-01   1.11833166e+00
C     4.447572132391715e+00   4.410222845009033e+00   4.463900747823665e+00  1.83988184e+00  -4.65344880e-01  -3.54391482e+00
C     6.173215366655059e+00   6.281498039509745e+00   4.467327931621445e+00 -1.37437521e+00  -3.43218778e+00   1.34729170e+00
C     4.203656490893858e+00   6.186049481527016e+00   6.214931429137433e+00  4.72998362e+00   6.64997530e-01   3.98624734e+00
C     6.177964006217897e+00   4.385094926468463e+00   6.159593780725258e+00  1.49044630e+00   4.27991544e+00   9.23066800e-01
