64
Lattice="7.10842262195238 0 0 0 7.10842262195238 0 0 0 7.10842262195238 " PBC="1 1 1" Properties=species:S:1:pos:R:3:force:R:3 Energy="-513.06329247"
C     7.081915525302698e+00   7.086469536254201e+00   7.093037789839308e+00  1.14053650e+00   4.62303890e-01   4.17307000e-03
C     1.713783186543004e+00   1.807218141650165e+00   7.098157417978684e+00  1.70258172e+00  -5.09853760e-01   3.38186890e-01
C     7.094485064684740e+00   1.752100996507662e+00   1.788132382336596e+00  6.86006300e-01   7.75147500e-02  -7.86575170e-01
C     1.825492332353209e+00   7.090119213679988e+00   1.763833874547329e+00 -1.25429957e+00   8.35506410e-01  -4.15150210e-01
C     8.850438968420894e-01   8.742469848087976e-01   8.564963294317169e-01 -5.85388640e-01  -3.76874800e-02   9.08898990e-01
C     2.648618385048014e+00   2.667457624265122e+00   9.014819819823870e-01 -3.43764820e-01   3.39655990e-01  -8.08038670e-01
C     9.129913001306551e-01   2.616695027735404e+00   2.653577505004631e+00 -1.61832328e+00   1.73637362e+00   3.27688830e-01
C     2.669288114173998e+00   9.310334719193820e-01   2.646913714219512e+00  1.96635130e-01  -2.13702359e+00   1.22630016e+00
C     3.566912994958547e+00   8.047807777655620e-02   7.071340111718246e+00  2.84054800e-01  -1.91509707e+00   1.75361397e+00
C     5.407293847405120e+00   1.835389957840845e+00   7.084185315729491e+00 -2.01198144e+00  -1.34207321e+00   8.96793160e-01
C     3.531087042543330e+00   1.815676027220346e+00   1.803608840064860e+00  1.37806814e+00  -4.72238490e-01  -8.33702410e-01
C     5.339801578239232e+00   7.067510377947494e+00   1.771289330359637e+00 -1.17833020e+00   9.75758170e-01  -1.02597309e+00
C     4.474384107335188e+00   9.425452069313410e-01   8.949253862103776e-01 -6.49210490e-01  -6.13053060e-01  -6.35708760e-01
C     6.225017427824499e+00   2.705480505775276e+00   9.248631478325433e-01  5.57060200e-01  -1.08338579e+00  -9.13232580e-01
C     4.444966255743450e+00   2.666051791523565e+00   2.725344281944603e+00 -6.74149800e-01   2.19559630e-01  -2.10254325e+00
C     6.197967320723256e+00   8.469283925851969e-01   2.636357919881491e+00  1.12161346e+00   6.84832500e-02   9.50544910e-01
C     7.070418149304432e+00   3.582823492971988e+00   1.456601095909440e-02  1.26701107e+00  -2.04591980e-01  -5.78091880e-01
C     1.822081071422097e+00   5.347636268398317e+00   7.088718285750039e+00 -1.91412748e+00  -7.50811460e-01   2.40678990e-01
C     2.140388701417720e-02   5.326437032871370e+00   1.777842300836111e+00 -7.94377330e-01   7.31887250e-01  -4.32719530e-01
C     1.733938763460883e+00   3.579050697666423e+00   1.772159401288325e+00  1.69745355e+00  -1.62558551e+00   3.07943410e-01
C     8.853595818906436e-01   4.457616120301097e+00   8.755312635235530e-01  1.11838530e-01   2.28112250e-01   2.75286620e-01
C     2.684193481228971e+00   6.209007056473247e+00   8.554039781277016e-01  5.87067400e-01   6.62547280e-01   6.66711570e-01
C     9.132809683524201e-01   6.220578288982535e+00   2.644051650020022e+00  3.22276430e-01  -7.36168610e-01   6.45025810e-01
C     2.667914411502683e+00   4.386326745024284e+00   2.706665835247161e+00 -1.06883398e+00   2.21188018e+00  -1.26012448e+00
C     3.552425674237856e+00   3.503446509859270e+00   7.079956372944400e+00 -1.71332680e-01   1.16514779e+00   1.62310021e+00
C     5.334626148982289e+00   5.265057864990230e+00   9.056414754784799e-03 -8.33043380e-01   3.09196174e+00   2.14382140e-01
C     3.545430559874418e+00   5.271997746909910e+00   1.759111465063958e+00 -1.57619790e-01   1.23885312e+00   6.12425300e-01
C     5.350983482441623e+00   3.555356547968308e+00   1.803775106069942e+00 -1.47822719e+00   1.28765890e-01   4.70267910e-01
C     4.432490192118862e+00   4.413405427984459e+00   9.100752830034787e-01  3.94291980e-01  -6.58841260e-01  -1.10255914e+00
C     6.205380339252523e+00   6.209368733016152e+00   8.539317527188734e-01  6.22980970e-01  -8.82854500e-01   1.29997187e+00
C     4.406999530771994e+00   6.188006572442755e+00   2.621612065830111e+00  7.59819890e-01   9.19270050e-01   1.90641888e+00
C     6.207838858299875e+00   4.461903636488576e+00   2.685665564469347e+00  1.10855577e+00  -4.00608320e-01  -7.30183690e-01
C     2.899653538305160e-02   7.051883079491234e+00   3.549905169745256e+00 -1.33703943e+00   1.12072549e+00  -4.16013890e-01
C     1.766359923609572e+00   1.745155427849886e+00   3.559170856461974e+00  4.33676320e-01   6.36063170e-01  -8.98821340e-01
C     7.100313402559330e+00   1.752822714656270e+00   5.279826181657089e+00  1.23742590e-01   3.40181420e-01   5.82667610e-01
C     1.786722000204562e+00   5.177035760455519e-02   5.378412041963155e+00 -2.73830570e-01  -1.44572478e+00  -1.74636901e+00
C     8.934212439839856e-01   8.486006490065520e-01   4.405864315679580e+00 -5.18142000e-02   8.94295830e-01   1.26307499e+00
C     2.647189449932942e+00   2.645255390306493e+00   4.433932917573816e+00 -5.11751640e-01   1.75952600e-02   1.24305245e+00
C     8.371873656478800e-01   2.678574202063635e+00   6.206509441101484e+00 -4.79142100e-02  -6.60832910e-01   4.50214770e-01
C     2.656817381866375e+00   9.424203119459077e-01   6.214226700118886e+00  3.30054740e-01   1.04350110e-01   3.31398740e-01
C     3.561570446685808e+00   3.173939133520480e-02   3.605914421926570e+00 -2.09844280e-01  -9.54032360e-01  -2.06728510e+00
C     5.328014320766522e+00   1.750827238258384e+00   3.510859883809668e+00  4.21345290e-01   5.90081900e-01   1.48028496e+00
C     3.580527898971085e+00   1.793232817734899e+00   5.315096539760327e+00 -5.68502430e-01   5.37689670e-01   3.46687040e-01
C     5.332872643290387e+00   4.003804823869760e-02   5.334019800532802e+00 -3.26705290e-01  -1.92446875e+00  -6.04463300e-01
C     4.460745247938421e+00   9.181896895926612e-01   4.438026160571090e+00 -1.66005290e-01  -8.21108500e-01   1.44292450e-01
C     6.229736993938822e+00   2.653534641216233e+00   4.398664976334270e+00 -1.34105360e-01   2.77270880e-01   5.05971690e-01
C     4.489370510408030e+00   2.704217552328380e+00   6.198395389933433e+00 -9.14677310e-01  -1.38419964e+00   3.06819650e-01
C     6.231175454340205e+00   8.625505018929448e-01   6.187530379211442e+00  2.67589440e-01   1.72935162e+00   7.70218680e-01
C     1.748878108775980e-02   3.562954172233017e+00   3.528832606309397e+00 -2.35639580e-01  -2.92121910e-01   1.23253367e+00
C     1.803341918795479e+00   5.355673406433620e+00   3.579976996218035e+00 -1.56814330e-01  -5.59358470e-01   4.59992630e-01
C     7.095667550787577e+00   5.364770694618470e+00   5.370181554832588e+00  4.38815850e-01  -8.23982200e-01  -1.35961659e+00
C     1.724082153571765e+00   3.533168317602240e+00   5.353580331393161e+00  1.31126050e+00   5.55176300e-01  -7.35377390e-01
C     8.958521112673470e-01   4.466955876781515e+00   4.497297325724270e+00 -6.77463630e-01  -3.48494200e-01  -1.93380972e+00
C     2.684364794214114e+00   6.260723461150117e+00   4.508321636197175e+00  9.23385400e-02  -1.28256125e+00  -9.52920910e-01
C     8.998945290428887e-01   6.238350269627476e+00   6.210113340285598e+00 -1.27436960e-01   3.73212100e-02   9.17565800e-01
C     2.637482116918844e+00   4.395258122625183e+00   6.223756038230579e+00  1.25650128e+00   5.63328990e-01   3.78864810e-01
C     3.500737347830336e+00   3.522806441033292e+00   3.587325257017234e+00  2.29832257e+00   6.54245670e-01  -5.48431800e-02
C     5.307702003129871e+00   5.342268911730634e+00   3.548827959381422e+00 -1.04109690e-01  -7.38699610e-01   3.72532820e-01
C     3.576361368136599e+00   5.268464292193960e+00   5.401612440626085e+00 -7.75817600e-01   2.59024589e+00  -1.94913478e+00
C     5.338626129474789e+00   3.578070943776709e+00   5.323338684703990e+00  8.85669890e-01  -5.90314870e-01  -8.11050430e-01
C     4.448878020711236e+00   4.435896690406818e+00   4.467588526394695e+00 -1.03643489e+00   1.26910220e-01  -6.22661940e-01
C     6.193320402688109e+00   6.197855434151217e+00   4.448893588156773e+00  8.91842030e-01   1.24954480e+00  -2.61483950e-01
C     4.453426202756190e+00   6.237164087144876e+00   6.233996716193857e+00 -3.04505470e-01  -6.15605630e-01   8.45537400e-02
C     6.215886730053335e+00   4.474910557114426e+00   6.214702822265974e+00 -8.85284000e-03  -1.31393831e+00   4.94153930e-01
