64
Lattice="7.10842262195238 0 0 0 7.10842262195238 0 0 0 7.10842262195238 " PBC="1 1 1" Properties=species:S:1:pos:R:3:force:R:3 Energy="-511.57297745"
C     7.086027889956821e+00   1.961860667316420e-02   1.732322592494000e-04  8.68239630e-01  -3.98048300e-01   3.32115270e-01
C     1.789163672290306e+00   1.779163685516942e+00   7.048246694815747e+00  2.02706750e-01  -6.99573600e-02   2.65941559e+00
C     2.815233911270040e-02   1.797997948838216e+00   1.787410735272214e+00 -1.06400088e+00   5.55557380e-01   4.39432030e-01
C     1.770997529611086e+00   2.087743723494000e-04   1.854950986290787e+00 -7.79886200e-02   8.75322290e-01  -3.93467941e+00
C     9.047768780352095e-01   9.456586960389010e-01   9.110370525839648e-01 -7.22728940e-01  -1.81619722e+00  -9.00063540e-01
C     2.705378997500262e+00   2.643889435815833e+00   8.890481423881615e-01 -1.17840066e+00  -1.02473000e-03  -1.13790172e+00
C     9.443715739550975e-01   2.710106027458336e+00   2.629977115400874e+00 -1.69658281e+00  -1.39706662e+00   8.36914490e-01
C     2.638319915608837e+00   8.719845871415302e-01   2.686021980779514e+00  1.19090541e+00  -5.27149200e-01   7.82134920e-01
C     3.545977339742349e+00   7.102645604936725e+00   7.696644591804999e-03  1.42725974e+00  -3.77749360e-01   4.88573750e-01
C     5.380267340266975e+00   1.808718658581021e+00   2.194618857585700e-02 -2.36464713e+00  -1.65664343e+00   3.43270000e-03
C     3.536429804068749e+00   1.708545274251231e+00   1.790571637558649e+00  1.08171311e+00   2.63079919e+00  -3.33137810e-01
C     5.327212846116117e+00   3.467289518202640e-02   1.841487420595828e+00 -7.12416490e-01  -1.61729879e+00  -2.33721306e+00
C     4.468713647526989e+00   8.863950658136990e-01   8.741478933974748e-01 -8.90183340e-01   2.77049240e-01   1.62896036e+00
C     6.209838386498657e+00   2.677663755294466e+00   9.162512227441871e-01  1.06886216e+00   1.97429900e-01  -5.30621660e-01
C     4.451206455624643e+00   2.683438637830954e+00   2.700973552581517e+00 -6.38153490e-01  -1.12980613e+00  -1.34695193e+00
C     6.177750469202392e+00   9.060021568422189e-01   2.722853419574330e+00  2.23788214e+00  -4.06419350e-01  -2.77696700e+00
C     7.076582075810912e+00   3.504622171876392e+00   7.078842340951393e+00  2.07467401e+00   1.78434803e+00   6.27138700e-01
C     1.799207233694330e+00   5.336657238577502e+00   7.100257814694442e+00 -1.53079089e+00   9.01318640e-01  -9.65624940e-01
C     7.107319677146280e+00   5.305502799339696e+00   1.775838294331080e+00  9.82795980e-01   1.82321106e+00  -5.74370330e-01
C     1.792196765138034e+00   3.557723581616542e+00   1.730725187762834e+00  3.03265930e-01  -2.52083540e-01   4.18463950e-01
C     8.830295831242599e-01   4.463986191063557e+00   8.421808192857514e-01  1.29482290e-01  -1.30941247e+00   7.19198820e-01
C     2.657117072964034e+00   6.261559909239812e+00   8.903202657002367e-01 -1.64710540e-01  -1.71059569e+00   7.34981260e-01
C     9.235593209555830e-01   6.211697949856048e+00   2.650238394563113e+00 -2.53513679e+00   6.44312290e-01   4.93544250e-01
C     2.661409493963121e+00   4.394400775772985e+00   2.656897351620850e+00  5.22266630e-01   2.63333839e+00   3.08491200e-02
C     3.555901337477905e+00   3.524000229528095e+00   7.069280943853684e+00  2.85302120e-01   7.09422730e-01   1.97334648e+00
C     5.384215429274350e+00   5.327807465668280e+00   7.094152674843028e+00 -1.48180042e+00   1.09915027e+00   5.89719370e-01
C     3.508088665251261e+00   5.342313908045819e+00   1.781086442751426e+00  1.22868336e+00  -4.19214970e-01  -4.62818100e-01
C     5.341939507426424e+00   3.607131881468697e+00   1.776211984108214e+00 -5.66823720e-01  -1.59184616e+00   9.72774790e-01
C     4.425986554095371e+00   4.472099531389347e+00   8.989193956278769e-01  7.78934370e-01  -3.13196070e-01  -1.08988443e+00
C     6.240532271034911e+00   6.246814908199146e+00   8.777419829583729e-01 -4.94154540e-01  -1.12153315e+00   1.81994375e+00
C     4.370245147278379e+00   6.211671080018545e+00   2.696701532755350e+00  1.22593250e+00  -2.24162760e-01  -6.43586180e-01
C     6.259021918027567e+00   4.460938383781006e+00   2.707837018958032e+00 -1.90887034e+00   6.98660650e-01  -2.74714117e+00
C     7.075374994565810e+00   2.977853295547780e-02   3.527872684918793e+00  1.45547161e+00  -1.33483562e+00   1.65429222e+00
C     1.812012488370451e+00   1.752317021471083e+00   3.568653421152828e+00 -1.31986947e+00   2.30491873e+00  -8.55879440e-01
C     7.097330210838395e+00   1.785381280614204e+00   5.332999244297249e+00 -3.20404000e-03   4.07567060e-01  -1.06913591e+00
C     1.730413554515173e+00   5.506646208922300e-02   5.368442123817474e+00  4.73547550e-01  -2.26568698e+00  -1.62981514e+00
C     8.925159152791025e-01   9.574072836925583e-01   4.432086007208688e+00 -1.03768842e+00  -2.29256097e+00   3.79546440e-01
C     2.648328077068214e+00   2.627061595863281e+00   4.454624896062601e+00  2.14900304e+00   1.02159137e+00   4.93259900e-01
C     8.967853049889006e-01   2.661209178613690e+00   6.175302470620517e+00 -6.79133380e-01   1.76410750e-01   9.15845460e-01
C     2.658446347993974e+00   8.124603621430790e-01   6.258176371156918e+00  4.75498800e-01   3.05174614e+00  -1.42874770e+00
C     3.486341299256086e+00   7.067897076138022e+00   3.591087887278452e+00  1.41476935e+00   4.75556370e-01   4.83486630e-01
C     5.313362226809499e+00   1.730489543552981e+00   3.549545554644910e+00  2.44000220e-01   3.43407203e+00   4.49568930e-01
C     3.582263278185306e+00   1.729618975034709e+00   5.363533402577232e+00 -3.62049620e-01   3.14121540e-01  -9.06060290e-01
C     5.341623538040964e+00   3.082475059668940e-02   5.264119908625521e+00 -3.74323240e-01  -2.09549641e+00   3.42350708e+00
C     4.487262507680069e+00   8.516197382617184e-01   4.413073606816558e+00 -3.24777789e+00   9.66269200e-01   9.76812210e-01
C     6.216227436749512e+00   2.691504493893641e+00   4.384572386321667e+00  1.61821710e-01  -1.05636410e+00   2.44805258e+00
C     4.466397083679357e+00   2.650180958508343e+00   6.240259449774755e+00 -1.51224290e-01   1.27927300e-02  -5.15099350e-01
C     6.175264582727952e+00   8.494101561745175e-01   6.252792238611851e+00  1.99000173e+00   2.68884626e+00  -1.81988467e+00
C     1.115332834345860e-02   3.600954164622334e+00   3.512766647093257e+00  1.24478979e+00  -2.01074831e+00   1.44682178e+00
C     1.789349912962950e+00   5.373712734853299e+00   3.515706548520436e+00 -5.49400770e-01  -2.65565249e+00   1.96541893e+00
C     4.750843173850800e-03   5.307335279606906e+00   5.300605593744099e+00  8.42562900e-02   9.62094640e-01  -1.93795840e-01
C     1.785685592186566e+00   3.580035214199293e+00   5.309846187728968e+00 -6.48873470e-01  -1.90284593e+00  -3.04972110e-01
C     9.428455377870359e-01   4.437402467570413e+00   4.406822531048756e+00 -2.18188496e+00   1.02052365e+00  -9.56532100e-02
C     2.577514966106941e+00   6.169332817304241e+00   4.538511888990804e+00  2.79475023e+00   1.97560418e+00  -3.00009647e+00
C     8.447712706569318e-01   6.266056555220771e+00   6.150045463125168e+00  3.87849170e-01  -1.27829282e+00   2.99308494e+00
C     2.645915478430986e+00   4.414361652995302e+00   6.190213666582038e+00  1.44876139e+00   4.11565700e-01   1.46982934e+00
C     3.567664426313708e+00   3.573815202238341e+00   3.586893064921938e+00 -3.76782070e-01  -2.21210349e+00  -7.60745110e-01
C     5.300550858889925e+00   5.319436018517158e+00   3.537222108853974e+00  7.44891350e-01   4.39578380e-01   1.27115234e+00
C     3.549417247616619e+00   5.273051286226420e+00   5.332810160255558e+00  2.73243160e-01   1.89706299e+00   7.52817010e-01
C     5.332137703475705e+00   3.561347810889349e+00   5.373298953572589e+00  5.54300200e-01  -9.43794980e-01  -2.41584261e+00
C     4.483191727298273e+00   4.404809781183904e+00   4.456788913160808e+00 -1.98255297e+00   1.49576894e+00   7.33428800e-02
C     6.183603757640379e+00   6.210213142539182e+00   4.444044862003445e+00  1.41810733e+00   5.77383700e-02  -1.21520645e+00
C     4.476705504910202e+00   6.250934025854757e+00   6.237911893204501e+00 -1.25365899e+00  -1.86236851e+00  -1.49326016e+00
C     6.251802390762016e+00   4.422015220546029e+00   6.197289959131796e+00 -7.17786720e-01   3.07765950e-01   7.23375350e-01
