64
Lattice="7.10842262195238 0 0 0 7.10842262195238 0 0 0 7.10842262195238 " PBC="1 1 1" Properties=species:S:1:pos:R:3:force:R:3 Energy="-510.94092128"
C     7.107204733952515e+00   7.078346883894780e+00   7.097728424673567e+00 -8.04169380e-01   1.58224353e+00   1.61032493e+00
C     1.759744043592912e+00   1.690561249359536e+00   3.050067760944360e-02  4.62322790e-01   4.39073544e+00  -1.38036872e+00
C     7.091360912943250e+00   1.786265923809263e+00   1.846437655024170e+00  5.53444380e-01  -9.37561870e-01  -2.75521070e+00
C     1.800325033151325e+00   1.471379506536420e-02   1.763785537273513e+00 -1.38408880e+00  -3.67724110e-01   7.87478180e-01
C     8.428739615754276e-01   8.971850115928232e-01   8.937748880093305e-01  1.33736154e+00  -1.02388131e+00   6.39095710e-01
C     2.722382984165338e+00   2.688239453215823e+00   8.414082048311836e-01 -1.92677976e+00  -2.05521901e+00   2.15858234e+00
C     9.540378913706783e-01   2.627847289815469e+00   2.628885688191799e+00 -1.20638750e+00   2.43637776e+00   9.28399030e-01
C     2.680650998816295e+00   8.343689471632763e-01   2.709382461119846e+00  1.18743270e-01   3.10124712e+00  -2.51116583e+00
C     3.570289993292631e+00   1.693403978649500e-02   7.010527129698788e+00 -7.49518690e-01   5.09326600e-02   3.04853790e+00
C     5.305912599903738e+00   1.741071710138922e+00   2.802410316863560e-02  1.61037697e+00   1.94864214e+00  -1.26042468e+00
C     3.576512208864595e+00   1.769910793960941e+00   1.767076808030799e+00 -2.99283970e-01   6.42953000e-03  -3.60738860e-01
C     5.347203010039628e+00   7.079318463098481e+00   1.758461826320716e+00 -1.10604300e-02  -2.61872100e-02   1.39361725e+00
C     4.488742268016874e+00   8.540618368528194e-01   8.835696099907013e-01 -1.89180062e+00   5.89023770e-01  -3.79829940e-01
C     6.161591247481478e+00   2.688586983997715e+00   9.407215411081801e-01  7.23059720e-01  -1.71587422e+00   3.63623900e-01
C     4.393376167736537e+00   2.730730120511099e+00   2.647378462890408e+00 -3.95586570e-01  -1.96971308e+00   7.24015650e-01
C     6.257769271793471e+00   8.335408870122724e-01   2.676410682555012e+00 -2.38067312e+00   2.50978338e+00  -5.83991170e-01
C     7.068583181089305e+00   3.500090978961499e+00   3.963180188596459e-02  6.83963940e-01   1.30066480e+00   1.81479800e-01
C     1.723698583087190e+00   5.345829378452540e+00   7.059147389819291e+00  1.08773183e+00  -3.11121840e-01   2.41869502e+00
C     4.945500218876880e-02   5.307859241438226e+00   1.789597428238578e+00 -1.26846885e+00  -3.84957810e-01  -3.10526420e-01
C     1.818485844513580e+00   3.569320688784167e+00   1.762436785165594e+00 -3.60485330e-01  -7.48416990e-01  -7.68735260e-01
C     9.009064840870717e-01   4.411013870278187e+00   8.639232804693192e-01 -5.53100240e-01   9.32565820e-01   9.94238370e-01
C     2.617066442817299e+00   6.245638108834404e+00   8.695943800355552e-01  1.73765674e+00  -6.73203990e-01  -1.36518109e+00
C     9.137026399822386e-01   6.227676759810867e+00   2.632471603066685e+00  4.42066870e-01  -1.06084766e+00   2.09775808e+00
C     2.706080598812856e+00   4.449428141537798e+00   2.669747318275250e+00 -1.78118439e+00  -2.99539090e-01  -4.19628390e-01
C     3.547660187713408e+00   3.583088992556845e+00   7.095567322028635e+00  1.11115941e+00  -1.13044146e+00   1.54106340e-01
C     5.333775839468483e+00   5.357510293922854e+00   8.471462657385000e-03  9.23815130e-01  -1.22513666e+00   4.33222980e-01
C     3.549551241383007e+00   5.336666124105776e+00   1.719574916041102e+00 -5.21606000e-02   2.44560580e-01   1.21165130e+00
C     5.259186023569204e+00   3.598518605780043e+00   1.837538123156608e+00  2.21443263e+00  -5.47639150e-01  -3.10158217e+00
C     4.486818871024354e+00   4.451937130385753e+00   8.343397315463080e-01 -2.57436680e+00   7.44015740e-01   2.19375580e+00
C     6.232862993870193e+00   6.179685595092235e+00   9.492404169444403e-01  5.69437000e-03   6.92368450e-01  -2.49457150e+00
C     4.402253734578204e+00   6.208367369521673e+00   2.661916466664379e+00  1.80843208e+00   4.04104420e-01  -1.08077741e+00
C     6.222391505424445e+00   4.397388374715944e+00   2.665404711812466e+00  5.91318900e-01   1.82856841e+00   5.39829130e-01
C     2.678823281192240e-02   2.109715857812420e-02   3.571761294606518e+00  5.15889810e-01  -9.86574720e-01  -1.30276848e+00
C     1.849734754688005e+00   1.854245333177299e+00   3.510443543496815e+00 -1.09001234e+00  -3.75821099e+00   2.41196268e+00
C     7.049627861330813e+00   1.780327547552515e+00   5.274150177279245e+00  1.55558345e+00   8.71659780e-01   1.86098924e+00
C     1.714601294902340e+00   4.101950814984100e-02   5.357022442878444e+00  1.42803756e+00  -5.66728480e-01  -1.88351968e+00
C     8.822438891720714e-01   9.383475412057786e-01   4.416841710563194e+00  2.76118890e-01  -2.06282630e-01   3.71681020e-01
C     2.734971147614643e+00   2.650672932437873e+00   4.501549584135555e+00 -3.33269641e+00   1.70184300e+00  -2.24109883e+00
C     8.732321863955664e-01   2.673555229188558e+00   6.273831676798301e+00 -6.94360230e-01  -2.01466482e+00  -1.57416138e+00
C     2.639940920303102e+00   9.271906586510100e-01   6.173007232040745e+00  4.54259160e-01  -1.84531544e+00   1.49423078e+00
C     3.553867831019001e+00   7.104058546100903e+00   3.552557961982814e+00 -9.44242200e-02  -8.43063460e-01   1.18979709e+00
C     5.260012377698779e+00   1.818687865884440e+00   3.452465044997082e+00  2.17893326e+00  -1.78681321e+00   3.82139287e+00
C     3.560693196250273e+00   1.769135762642682e+00   5.320050968158014e+00  9.41995630e-01   3.18043000e-02   7.25033180e-01
C     5.421687905621036e+00   7.039137677733574e+00   5.309300189787526e+00 -2.87342968e+00   3.30721407e+00   1.84138500e-02
C     4.450469312198948e+00   8.788771269665607e-01   4.434089516124136e+00  2.64837950e-01  -5.52767900e-02  -7.68478520e-01
C     6.165521565432302e+00   2.659225999786936e+00   4.430634396225458e+00  4.20505930e-01   1.09943834e+00  -1.24752850e+00
C     4.445022056861017e+00   2.672108451932710e+00   6.221103388161475e+00 -6.78005070e-01   4.68733000e-02  -3.94354240e-01
C     6.248239009586836e+00   9.143907352918547e-01   6.196854497162095e+00 -1.11046706e+00  -2.12360964e+00   6.92696560e-01
C     1.877277546561040e-02   3.518188241025531e+00   3.540060430921914e+00 -4.25972580e-01   2.46435210e-01   5.74784550e-01
C     1.836364024992463e+00   5.261482897086179e+00   3.613553488295153e+00 -1.83163287e+00   2.85181215e+00  -1.87752605e+00
C     7.096553402414481e+00   5.329488536533684e+00   5.363432960565612e+00  4.38605800e-01  -1.16321900e+00  -1.38143116e+00
C     1.748466388937830e+00   3.526815875727877e+00   5.377192307725789e+00  1.31193861e+00   3.13813740e-01   2.29520740e-01
C     8.943929653561395e-01   4.403024500842889e+00   4.456024686644931e+00 -2.09677000e-02   2.94676390e-01   4.60861690e-01
C     2.648432286543823e+00   6.241406678101398e+00   4.465535329605134e+00  3.17964380e-01  -1.02448676e+00   7.21816610e-01
C     8.460047952341804e-01   6.231622147617646e+00   6.229327833132815e+00  7.40482900e-01  -2.39232070e-01  -9.95472570e-01
C     2.641954167757539e+00   4.450021339405437e+00   6.288583644093134e+00  3.39770960e-01   3.59795520e-01  -3.06860129e+00
C     3.483046616455942e+00   3.563609426630129e+00   3.571415185509150e+00  3.78846382e+00   7.42543970e-01   5.36573800e-01
C     5.358558217585495e+00   5.357972057056250e+00   3.514999331553973e+00 -8.93602890e-01  -7.52092550e-01   1.28078445e+00
C     3.564017947678100e+00   5.333365612399083e+00   5.380050106871708e+00 -9.36969000e-01   1.32853387e+00  -7.45104270e-01
C     5.289904787584629e+00   3.624506856710310e+00   5.314942855663282e+00  1.52541930e+00  -2.64993731e+00   1.16982631e+00
C     4.441309825316174e+00   4.525079031681564e+00   4.479091162625700e+00 -3.66721180e-01  -1.78938370e+00  -1.64849990e+00
C     6.259445793268397e+00   6.219717672255932e+00   4.398120613330030e+00  4.03844000e-03  -8.58594330e-01   1.31230227e+00
C     4.467019070658607e+00   6.238339393740867e+00   6.213306017221144e+00  4.02624900e-01  -8.68811930e-01  -4.08985500e-01
C     6.214593352557626e+00   4.401102312282216e+00   6.285547139202549e+00 -3.04478550e-01   2.05924626e+00  -2.41959296e+00
