64
Lattice="7.10842262195238 0 0 0 7.10842262195238 0 0 0 7.10842262195238 " PBC="1 1 1" Properties=species:S:1:pos:R:3:force:R:3 Energy="-511.39436627"
C     7.088647699113422e+00   2.141803277519100e-02   7.126975603038199e-03  1.45819860e+00   1.97720320e-01   1.89418190e-01
C     1.779243726355644e+00   1.822142274940856e+00   7.073745886269759e+00  5.88153090e-01  -1.55119493e+00   1.13384896e+00
C     2.951459722359720e-02   1.799215408380343e+00   1.747551037357052e+00 -1.62683692e+00   4.02751490e-01   1.96351404e+00
C     1.733744134849547e+00   3.346297056787620e-02   1.866905931453103e+00  1.30358819e+00   2.49274330e-01  -3.12429088e+00
C     9.266507028687947e-01   9.824259457774579e-01   9.315107314140888e-01 -9.86340500e-01  -3.07037823e+00  -1.70108144e+00
C     2.687104664628766e+00   2.650900828467071e+00   8.793787683508543e-01  3.65423060e-01   1.12590782e+00  -7.85002110e-01
C     8.809593972046373e-01   2.728939295600443e+00   2.615597771619781e+00  4.38756330e-01  -1.81989169e+00   1.63910793e+00
C     2.691795157294573e+00   8.682616929627576e-01   2.693382183728714e+00 -1.33548207e+00   1.30258070e+00   2.43825800e-01
C     3.528528792326619e+00   7.084751785928078e+00   5.596397152922420e-02  2.75374770e-01   2.84599900e-02  -1.28297403e+00
C     5.330646853999613e+00   1.768861164276871e+00   7.079306592032705e+00 -4.17548700e-02  -1.53895510e+00   2.43594164e+00
C     3.620832441973806e+00   1.776585602801121e+00   1.767179311484979e+00 -2.97445153e+00  -3.23463780e-01   5.61991400e-01
C     5.320054948874682e+00   3.909440513589260e-02   1.799600045128311e+00  7.09034810e-01  -1.00349360e+00   9.08255200e-02
C     4.429858654064938e+00   8.457022607674731e-01   9.047772334563404e-01  8.09009950e-01   1.74698661e+00  -5.19931520e-01
C     6.234950666509461e+00   2.623554229058347e+00   8.627117920021926e-01 -1.21973825e+00   1.28654653e+00   7.28435000e-02
C     4.423965274123375e+00   2.706650694306980e+00   2.635869571247497e+00  2.12786805e+00  -1.35259071e+00   8.80980670e-01
C     6.175251645398784e+00   9.335471523262665e-01   2.695190353190564e+00  1.73837021e+00  -9.60715220e-01  -1.00850455e+00
C     7.071230642009898e+00   3.498943110876821e+00   7.105142367297774e+00  2.43341496e+00   2.64146042e+00  -1.89569639e+00
C     1.769949748116898e+00   5.308278354035902e+00   1.042379092996800e-03 -2.60552300e-01   7.02407080e-01  -3.91308370e-01
C     2.160562404813280e-02   5.281610253566257e+00   1.761260341221984e+00 -1.11116576e+00   2.36655317e+00  -4.99053600e-02
C     1.760003003428958e+00   3.559049018098268e+00   1.715010100287216e+00  1.94202500e+00   1.54459420e-01   1.55077145e+00
C     8.919099222507474e-01   4.443048261152121e+00   8.581031883649680e-01 -3.39467030e-01  -1.04414573e+00   1.99940820e-01
C     2.649513193287420e+00   6.236992276570152e+00   9.259275630356621e-01 -9.37091970e-01  -1.89824500e-01  -6.13208600e-02
C     8.468550336637586e-01   6.246034545563922e+00   2.681398236202109e+00  1.08648893e+00  -1.43134062e+00  -5.46420530e-01
C     2.705114564178798e+00   4.412279311672999e+00   2.636844207072925e+00 -6.04794520e-01   1.59277452e+00   5.68254900e-01
C     3.609168657802006e+00   3.571433667407962e+00   7.076605320352879e+00 -1.47893306e+00  -3.10039690e-01   1.21941165e+00
C     5.382792891739634e+00   5.392385636981099e+00   7.085911169657400e+00 -8.55985540e-01  -1.49065019e+00  -4.31155850e-01
C     3.566461894459082e+00   5.412359735869488e+00   1.764621558857851e+00  9.08724180e-01  -3.29989972e+00   9.41647100e-01
C     5.345649108854897e+00   3.572878454305477e+00   1.722623860671272e+00 -1.01265155e+00  -4.09322750e-01   7.73021050e-01
C     4.483070955197960e+00   4.516076285517561e+00   8.524894537692753e-01 -3.62295930e-01  -1.17269805e+00  -3.02288700e-02
C     6.234846599202304e+00   6.267286454502483e+00   8.628827495662036e-01 -9.06821900e-02  -1.00396222e+00   1.85465779e+00
C     4.475805934027640e+00   6.237883957103604e+00   2.711908510182089e+00 -1.75251927e+00  -1.58532400e-02  -8.56642990e-01
C     6.195698383307178e+00   4.407310950766976e+00   2.614554539516070e+00  1.27525823e+00   1.68241699e+00   1.66533173e+00
C     7.075713071145617e+00   7.102364537906332e+00   3.540952111455366e+00  5.31133680e-01   1.03448052e+00   1.01703074e+00
C     1.791885984901088e+00   1.840325691087042e+00   3.577474760371569e+00 -2.22481900e-02  -1.62177049e+00  -1.08128369e+00
C     7.105869701100253e+00   1.776359057372221e+00   5.310216465463244e+00 -2.42612550e-01   6.24781370e-01   7.65569020e-01
C     1.744353171272993e+00   7.097385372197926e+00   5.367479145805143e+00 -5.79301040e-01  -7.12205480e-01  -6.68596120e-01
C     8.669858021866937e-01   9.347580721195834e-01   4.447216426923810e+00  7.12352930e-01  -1.71717368e+00  -5.72939780e-01
C     2.693130403399514e+00   2.657535972309030e+00   4.495443306936522e+00  5.02929410e-01  -2.16635240e-01  -1.84676378e+00
C     8.983143266944627e-01   2.676650236397306e+00   6.153421750616991e+00 -2.61913990e-01  -6.32700340e-01   1.75302532e+00
C     2.635576846404005e+00   8.195985690538568e-01   6.271100052153887e+00  6.44734070e-01   1.81735289e+00  -1.09015340e+00
C     3.477365138592680e+00   7.047245686742399e+00   3.559113491491431e+00  2.59709701e+00   1.60202312e+00   1.83516812e+00
C     5.322409542783330e+00   1.794072891120130e+00   3.590711283048045e+00 -1.33382750e-01   9.75406150e-01  -1.53690298e+00
C     3.543738613122406e+00   1.726929147915301e+00   5.371139485864859e+00 -8.41125500e-02   2.59014500e-01   7.73681000e-03
C     5.330177627022466e+00   1.978537026782940e-02   5.312434435489137e+00 -4.34893080e-01  -1.03854507e+00   9.77928460e-01
C     4.430345794267086e+00   9.169688890919024e-01   4.447907507770926e+00 -5.32970080e-01  -1.90277636e+00   1.58757940e-01
C     6.237542610649392e+00   2.719917214526912e+00   4.449837799933388e+00 -1.09686725e+00  -3.45379969e+00  -9.54049000e-02
C     4.458718778817912e+00   2.600101765729312e+00   6.248549505486879e+00 -9.89384200e-01   1.55571005e+00  -8.64678040e-01
C     6.197918059354500e+00   8.935963955173423e-01   6.254414025232604e+00  9.71663480e-01  -2.08453670e-01  -2.33562105e+00
C     7.080653709203422e+00   3.532192828766097e+00   3.537280042498327e+00  8.65467800e-01   1.88370748e+00  -3.87587660e-01
C     1.797922457389991e+00   5.324436082988066e+00   3.514881402822707e+00 -1.93290685e+00  -9.78407700e-01   1.43451254e+00
C     7.087712586117761e+00   5.312441117406400e+00   5.291824772534292e+00  1.96948061e+00  -1.91770450e-01   7.99155020e-01
C     1.812087766565996e+00   3.533523596564788e+00   5.277599965860958e+00 -1.71867530e+00   1.38577607e+00   2.05025765e+00
C     8.875388110132570e-01   4.428940885620469e+00   4.437041359701317e+00  2.52575710e-01  -1.43114410e-01  -2.11496819e+00
C     2.575096609647391e+00   6.130463180491593e+00   4.516189878111028e+00  2.55217380e+00   2.81683410e+00  -2.61652243e+00
C     8.484527227318298e-01   6.180005331941683e+00   6.208112674739199e+00  4.93494350e-01   1.69615023e+00   9.41837400e-01
C     2.651004184931965e+00   4.429972246658405e+00   6.200057907815798e+00  7.84390660e-01  -8.23847880e-01   9.96302440e-01
C     3.626216858855778e+00   3.535766801490981e+00   3.598968782184568e+00 -2.29215420e+00   7.09247480e-01  -2.10480061e+00
C     5.356153935802732e+00   5.370451390555243e+00   3.592161401262524e+00 -7.09778850e-01  -2.48728863e+00  -1.67814597e+00
C     3.508294169749205e+00   5.292726689196318e+00   5.350632326364195e+00  1.80672366e+00   4.42591160e-01  -3.28306680e-01
C     5.321850465344268e+00   3.454671641546783e+00   5.372941328830577e+00  1.13669094e+00   4.39436549e+00  -1.48461186e+00
C     4.481386543373924e+00   4.424525204573151e+00   4.449809863832491e+00 -9.81881880e-01   7.11377800e-02   1.03834185e+00
C     6.247859775240060e+00   6.190914770305048e+00   4.444834394503848e+00 -1.17997209e+00   2.10722854e+00  -2.00189400e-01
C     4.436896916553678e+00   6.192331763270119e+00   6.225035909723311e+00 -4.77168020e-01   1.44046443e+00  -4.85810030e-01
C     6.265770654462995e+00   4.463201492290535e+00   6.171039194154171e+00 -2.60503753e+00  -2.17031086e+00   2.41865093e+00
