64
Lattice="7.10842262195238 0 0 0 7.10842262195238 0 0 0 7.10842262195238 " PBC="1 1 1" Properties=species:S:1:pos:R:3:force:R:3 Energy="-501.83834597"
C     6.969347753124223e+00   1.130360039764540e-02   2.304010373284880e-02  6.27261243e+00  -1.69203377e+00   1.03771673e+00
C     1.734674769538958e+00   1.787499945976095e+00   7.078421948837647e+00  1.87851506e+00  -1.03236447e+00   1.75446500e+00
C     2.026668156342960e-02   1.721460211888378e+00   1.714290017075810e+00 -4.61413850e-01  -4.88997530e-01   5.33513790e+00
C     1.837517864152141e+00   7.099345093230033e+00   1.734772439265757e+00 -3.09313450e+00  -5.58449110e-01  -3.13363900e-02
C     9.993745578303239e-01   9.160963302152973e-01   9.629100558111526e-01 -5.02983180e+00  -1.47289683e+00  -4.19944063e+00
C     2.541295775752386e+00   2.576941956159542e+00   9.169524686356502e-01  3.87357225e+00   3.28969671e+00  -8.91410920e-01
C     8.667624555479734e-01   2.671810822277610e+00   2.687022846684410e+00 -1.05540989e+00   1.55973570e-01  -4.33116010e-01
C     2.680259751235289e+00   7.673304086132230e-01   2.583235184873481e+00  2.23226479e+00   3.62663033e+00   2.27729620e+00
C     3.553646545822841e+00   8.186201657644400e-03   1.043786560675560e-02  1.28670445e+00  -5.58903620e-01  -2.28006180e+00
C     5.339448502887697e+00   1.874429130532980e+00   1.601911471107480e-02 -1.75496569e+00  -3.28947903e+00  -9.35983980e-01
C     3.582040358051943e+00   1.659070937152936e+00   1.716799361344896e+00 -2.96652618e+00   3.47803354e+00   1.27311441e+00
C     5.218275771875033e+00   7.104969774796561e+00   1.748793518546802e+00  5.11758905e+00   2.35701610e-01  -1.45890716e+00
C     4.425892651832561e+00   8.725084778886242e-01   8.142988845695157e-01  5.35019980e-01   7.68911510e-01   1.21259159e+00
C     6.165505500397180e+00   2.534018670263613e+00   1.030656735422610e+00  1.18983501e+00   6.45325025e+00  -4.00500858e+00
C     4.351180855401123e+00   2.683644853171160e+00   2.587221446110324e+00  1.20417739e+00  -1.76658538e+00   3.14027495e+00
C     6.140209254408970e+00   8.118068848516224e-01   2.611121882232871e+00  4.22413826e+00   1.20435948e+00   1.71609157e+00
C     3.620746145723200e-03   3.574307887010133e+00   1.914982752664306e-01 -3.66951430e-01  -1.35896255e+00  -5.24099134e+00
C     1.839112141177355e+00   5.309498443694398e+00   7.106295282362512e+00 -3.10719875e+00   2.03578626e+00  -1.61718470e+00
C     5.561544556816560e-02   5.200621791045585e+00   1.835584373199501e+00 -1.52844900e+00   5.48611014e+00  -3.93841010e-01
C     1.671083958128057e+00   3.603455618542312e+00   1.827060094962050e+00  4.36187371e+00  -4.03015444e+00  -4.41803900e-01
C     9.816875939199184e-01   4.488043438989102e+00   9.565640115171476e-01 -3.85657519e+00  -1.78475299e+00  -2.39050761e+00
C     2.620767798475533e+00   6.282320412922653e+00   8.237255059743501e-01  2.96607788e+00  -3.11594269e+00   2.63012990e-01
C     1.000174824048883e+00   6.197511031075278e+00   2.622903381883260e+00 -3.66804436e+00  -9.46134670e-01   1.27755960e+00
C     2.638771087192529e+00   4.379838176856748e+00   2.638105027993034e+00 -1.00649770e+00   4.28684253e+00   1.20800683e+00
C     3.580907417654767e+00   3.590621645838806e+00   7.094129217048382e+00 -2.57072458e+00  -1.54182006e+00   1.61112410e-01
C     5.313627513141678e+00   5.265217022572691e+00   6.612638575945480e-02  1.07121369e+00   2.30816657e+00  -1.24469446e+00
C     3.465927970934005e+00   5.336495735215575e+00   1.716525331652895e+00  2.54736233e+00  -9.87973620e-01   1.44490146e+00
C     5.280890525775982e+00   3.538749566706559e+00   1.798191369017706e+00  2.74222510e-01  -1.48825012e+00   2.16494038e+00
C     4.405642746146515e+00   4.423424678583123e+00   9.798292389943720e-01  2.02554330e-01   4.59547460e-01  -4.68913265e+00
C     6.245936093910635e+00   6.195934169685484e+00   9.341282658754514e-01 -1.72871601e+00  -1.21454456e+00  -2.83547960e-01
C     4.502414465915730e+00   6.226702123985439e+00   2.581071949701762e+00 -4.86384058e+00  -2.95337124e+00   1.37910471e+00
C     6.167353334857250e+00   4.360050958399037e+00   2.751923029541915e+00  1.47855710e+00   2.68597027e+00  -2.62619407e+00
C     3.454927971266460e-02   7.000367843174510e+00   3.474184545975588e+00  2.47083120e-01   2.93725230e+00   1.21008272e+00
C     1.835278711026842e+00   1.839805994309293e+00   3.488195246959608e+00 -1.90869752e+00  -2.63931745e+00   2.87712174e+00
C     6.432177050891540e-02   1.764087431982184e+00   5.383404784758764e+00 -2.82983783e+00   1.01947858e+00  -7.46470460e-01
C     1.917501977640834e+00   1.256587143596928e-01   5.319027213132282e+00 -3.74014370e+00  -3.89336574e+00  -1.04448751e+00
C     9.388802463969214e-01   8.829505374647255e-01   4.440752524982766e+00 -4.83093650e-01   1.40464926e+00  -1.02194610e+00
C     2.578700793168409e+00   2.712771899193514e+00   4.584239305441871e+00  4.52338780e+00  -1.54663209e+00  -6.33990413e+00
C     8.533644295095713e-01   2.670696790284603e+00   6.274535339553455e+00  7.46818630e-01   8.60643780e-01   5.48788750e-01
C     2.733765772390970e+00   9.059826086800137e-01   6.270408118296057e+00 -4.65401000e-01   1.41871156e+00  -2.54912677e+00
C     3.530271777553043e+00   6.941533064085974e+00   3.387069831588321e+00  1.13935349e+00   5.80040637e+00   4.24856900e+00
C     5.444114268144874e+00   1.749129533684049e+00   3.598930609955098e+00 -2.11767222e+00   2.83522799e+00  -3.87829101e+00
C     3.621175352280996e+00   1.847775317992802e+00   5.304070594350218e+00 -2.11376214e+00  -1.43196068e+00   4.29375380e-01
C     5.374164048605444e+00   3.613957602121100e-02   5.344470390216048e+00 -2.44899880e-01  -2.09555380e-01  -8.81869570e-01
C     4.535605539318391e+00   1.025899068163044e+00   4.365996798499536e+00 -3.29994447e+00  -5.48841534e+00   3.46103171e+00
C     6.179414337685055e+00   2.738042341607614e+00   4.459544706442129e+00  2.97567464e+00  -2.51920763e+00   5.23582830e-01
C     4.420591403495243e+00   2.722233991627223e+00   6.155854395006006e+00  1.59275331e+00   7.69419960e-01   3.27541536e+00
C     6.181965124058016e+00   9.159441388870032e-01   6.341611908164524e+00  1.19119953e+00   6.56082550e-01  -4.36719346e+00
C     7.103546668588037e+00   3.580870667109822e+00   3.578945066506290e+00  4.27768000e-03  -2.22040515e+00   2.02568012e+00
C     1.795069278718776e+00   5.376353158435498e+00   3.578379662571095e+00 -1.85195760e-01  -2.20196519e+00   2.13451110e-01
C     7.091044090547076e+00   5.307273507414338e+00   5.354721944065933e+00  1.54407967e+00   2.08730060e-01  -1.37731632e+00
C     1.807262000617731e+00   3.593405730642156e+00   5.385351852798609e+00 -4.39320725e+00  -1.84139891e+00   1.13299240e-01
C     9.235355077398059e-01   4.409255317606225e+00   4.522298856510655e+00 -2.07281519e+00   1.99974823e+00  -3.06005721e+00
C     2.674564127611014e+00   6.264794170447685e+00   4.424596217715125e+00  1.49814720e+00  -7.09096230e-01  -1.38499010e-01
C     9.222729807982677e-01   6.183131260788828e+00   6.114408523667418e+00 -8.06067620e-01   2.42756726e+00   3.97697673e+00
C     2.621200061655056e+00   4.469042127736259e+00   6.131287188841703e+00  3.76986825e+00   6.32044420e-01   5.48198517e+00
C     3.475876208390695e+00   3.623679578485795e+00   3.537181875181945e+00  2.15014421e+00  -2.87670228e+00   5.78167470e-01
C     5.271421680340785e+00   5.370985375262458e+00   3.539141027540243e+00  3.59123005e+00  -5.65282560e-01  -9.60978470e-01
C     3.489030628785910e+00   5.361753027047827e+00   5.331161219460396e+00  3.34755472e+00   5.05690650e-01  -1.76063565e+00
C     5.287700892235526e+00   3.598205053258275e+00   5.326835317790768e+00  1.31586957e+00   8.31079700e-01  -1.15633966e+00
C     4.425683522039081e+00   4.528952126830298e+00   4.349343967911889e+00 -2.35606506e+00  -1.86677665e+00   3.36997153e+00
C     6.287577517955500e+00   6.196590703598667e+00   4.390541399879908e+00 -2.04436448e+00   3.01168710e-01   1.51406274e+00
C     4.530130561132241e+00   6.188128837311819e+00   6.205015463919438e+00 -3.81012025e+00   7.95037410e-01   7.64034960e-01
C     6.212287948933508e+00   4.464868275226474e+00   6.239940850272927e+00 -4.03089890e-01  -1.56378234e+00   2.22410875e+00
