52
Lattice="8.88768389401873 1.33226762955019e-15 0 4.44384194700937 7.69696003302603 0 0 0 30 " PBC="1 1 1" Properties=species:S:1:pos:R:3:force:R:3 Energy="-414.97919367"
C     1.210864257184313e+01   6.270829406598252e+00  -3.760694999999998e-01  8.05145680e-01  -3.41635474e+00   1.89876090e-01
C     8.360728138908467e+00   5.925960031250875e+00  -1.478964000000005e-01 -4.28009270e-01   1.90520594e+00   6.61661040e-01
C     9.707089597992397e+00   5.597469171090534e+00   5.117460000000000e-02  8.05492190e-01  -2.35381585e+00  -1.49020555e+00
C     1.001471886626220e+01   4.212767512019862e+00  -1.013768999999982e-01  6.02058460e-01   6.10782620e-01  -1.28433110e-01
C     6.003613984570380e+00   5.432509694028382e+00  -5.285733000000015e-01 -1.62071346e+00  -3.85857700e-01  -9.27523400e-02
C     7.340416561787670e+00   4.966602851303643e+00  -3.222026999999983e-01 -3.38657050e-01  -6.22313980e-01   1.24212450e-01
C     7.693814424704515e+00   3.562886699144459e+00  -2.780366999999977e-01 -1.82461477e+00   3.32013370e-01  -3.97036040e-01
C     9.050995527947032e+00   3.208227329426124e+00  -2.441016000000005e-01  4.16348700e-02  -1.11246122e+00  -6.27061600e-01
C     9.444154755568821e+00   1.843332488509451e+00  -5.257880999999998e-01 -2.02671086e+00   2.04534560e-01   2.14104798e+00
C     3.503149487935695e+00   4.836841418519480e+00  -4.090266000000007e-01  1.77192493e+00   1.77929638e+00  -6.62584810e-01
C     4.892107260647471e+00   4.476498921393393e+00  -5.784177000000028e-01  8.08069290e-01  -2.58577997e+00   8.06168100e-01
C     5.236317791377097e+00   3.019108711191407e+00  -5.199555000000018e-01  7.39727880e-01  -7.67049840e-01   8.35928100e-01
C     6.644652448006406e+00   2.564825355686373e+00  -3.699264000000007e-01 -9.97273270e-01   1.06676291e+00  -4.94521750e-01
C     6.985365364096298e+00   1.168880670130279e+00  -3.455474999999986e-01 -6.14182860e-01   9.57203650e-01  -3.77817470e-01
C     8.386996840750708e+00   8.558810196047183e-01  -5.055137999999992e-01 -9.65976740e-01   1.65489519e+00   3.01408850e-01
C     2.464323843192175e+00   3.883328001535825e+00  -3.311543999999991e-01  2.52640269e+00  -2.24144176e+00   4.93281650e-01
C     2.882318236952128e+00   2.480564502119554e+00  -3.501662999999979e-01 -4.55048390e-01  -1.88874779e+00   2.78879660e-01
C     4.210196779595943e+00   1.927891060490230e+00  -4.086683999999998e-01  1.38546190e+00   5.52972999e+00  -8.35116800e-02
C     4.618666198138063e+00   5.951713597693653e-01  -2.521734000000002e-01 -2.26639731e+00  -1.49241240e-01   4.26121990e-01
C     5.907118975125196e+00   1.646614507697915e-01  -2.302560000000007e-01  4.49174240e+00   2.04932961e+00  -2.91940400e-01
C     1.076582885392319e+01   6.518033980364967e+00  -1.518315000000001e-01 -1.82889390e+00   2.08216920e+00   3.87318580e-01
C     1.887625230827197e+00   1.423638963500836e+00  -3.030702000000005e-01 -3.12500940e-01   3.84876961e+00  -1.57245405e+00
C     2.227395385907650e+00   1.188191265271145e-01  -3.987194999999986e-01  1.70591700e+00  -4.10203334e+00   6.04277630e-01
C     8.061601717819830e+00   7.316201962151140e+00  -1.679208000000010e-01 -2.94179716e+00   5.53512970e-01  -1.26950420e+00
C     4.261669048831485e+00   7.222996163455058e+00  -5.341337999999993e-01  9.76448820e-01  -1.84073319e+00  -1.32771230e-01
C     5.653048759824040e+00   6.835459305938177e+00  -5.893814999999982e-01 -2.45384600e-02  -1.10465980e+00   9.40178200e-01
C     1.199138354228535e+00   1.505623825986784e+00   3.502614900000000e+00  4.79667510e-01  -1.01021400e-02  -8.45736410e-01
C     3.675682137728459e+00   9.198980985966341e-01   3.577801800000000e+00 -2.20137627e+00   1.83458120e-01  -9.85531570e-01
C     5.001200378785100e+00   1.327027875748280e+00   3.795327900000000e+00  5.11020750e-01   2.40964500e-01   2.19043220e-01
C     6.016939774553951e+00   3.597177348804512e-01   4.145835000000000e+00 -2.60005000e-02   1.38544474e+00  -1.01852713e+00
C     7.383587150383978e+00   7.382261352517416e-01   4.052487000000000e+00  6.21782790e-01  -7.75549900e-01  -9.33526850e-01
C     1.279375390685451e+01   7.349763786665953e+00   3.853947000000000e+00  2.15597485e+00   3.25873030e+00  -6.64386830e-01
C     8.333008871656425e-01   9.559501205899519e-02   3.424742700000000e+00 -7.81116040e-01   5.85986060e-01   1.82147424e+00
C     6.329294585003254e+00   6.816078822400240e+00   3.399228300000000e+00 -8.52813790e-01   8.43503020e-01   2.12535290e-01
C     7.689855408317944e+00   7.260858818325833e+00   3.530697900000000e+00  1.91164996e+00  -1.39956921e+00   3.97949380e-01
C     8.747293594966617e+00   6.276488365551509e+00   3.764577300000000e+00  6.18166860e-01   1.99751045e+00   1.36604456e+00
C     1.015928642286477e+01   6.714615032257569e+00   4.176533700000000e+00 -2.87459001e+00  -3.45868024e+00  -1.50968035e+00
C     1.114876520122457e+01   5.646351255757859e+00   4.169216400000000e+00 -5.22833460e-01   3.13201110e-01  -7.98295700e-01
C     3.604794152070990e+00   5.992953524686391e+00   3.972721800000000e+00  8.38907900e-02   8.55194740e-01  -5.85015700e-02
C     4.601071875353465e+00   5.020249123320736e+00   3.731607300000000e+00  1.13153755e+00   2.35077634e+00  -4.75465590e-01
C     5.944599096970329e+00   5.441498126981815e+00   3.498446100000000e+00  1.53328983e+00   1.01792474e+00   4.89255410e-01
C     7.037828253325817e+00   4.536049531449500e+00   3.599215500000000e+00 -1.32254049e+00  -1.02076893e+00   4.07464710e-01
C     8.379503725989881e+00   4.935256442794266e+00   3.776189700000000e+00  2.00836647e+00  -1.31433730e+00  -4.00167670e-01
C     9.453305338502368e+00   3.927793955385937e+00   3.829507800000000e+00 -1.49885074e+00  -5.11533830e-01  -5.29568560e-01
C     1.083335023120571e+01   4.283876723922620e+00   3.896278200000000e+00 -1.64448213e+00  -5.44234910e-01   2.67086300e-01
C     2.928981244186802e+00   3.261045947331191e+00   3.687368100000000e+00  3.85313600e-02   7.89543050e-01  -6.08588690e-01
C     4.287977879573263e+00   3.702735998652742e+00   3.684985800000000e+00 -1.03380375e+00  -2.87121679e+00  -1.92145490e-01
C     5.306507074870704e+00   2.726097988894156e+00   3.647752800000000e+00  1.09078619e+00  -2.46817850e-01   9.26049730e-01
C     6.657880343850101e+00   3.184971734391482e+00   3.739187100000000e+00  1.52455277e+00  -3.33139606e+00  -3.64925310e-01
C     7.708973435149537e+00   2.098248338651822e+00   3.811722900000000e+00 -4.23238280e-01   2.32349966e+00   1.83551430e-01
C     9.069667662600192e+00   2.544225211862081e+00   3.679382100000000e+00  9.30813620e-01  -1.14815847e+00   2.22922100e-01
C     2.626893089528169e+00   1.895019268442108e+00   3.371359200000000e+00 -1.48232573e+00   4.50760140e-01   2.31871379e+00
