52
Lattice="8.88768389401873 1.33226762955019e-15 0 4.44384194700937 7.69696003302603 0 0 0 30 " PBC="1 1 1" Properties=species:S:1:pos:R:3:force:R:3 Energy="-411.47888999"
C     1.194257930888469e+01   6.019669134163319e+00  -2.389709999999994e-01  3.94149290e-01   2.76992389e+00  -1.17423400e-02
C     8.241332904344553e+00   5.867941039271137e+00  -5.148854999999983e-01  2.81436780e+00  -3.86643463e+00   9.68498510e-01
C     9.642108541410504e+00   5.449839322566326e+00  -5.270489999999981e-01 -2.05752196e+00   3.25286770e-01  -3.92768270e-01
C     9.940823862702768e+00   4.093399284364208e+00  -5.696921999999986e-01  1.37946461e+00  -2.94146697e+00   2.89318746e+00
C     5.886259895455560e+00   5.323560225408535e+00  -2.224070999999981e-01 -6.52737040e-01  -6.76573504e+00   3.54829500e-01
C     7.322583557331679e+00   4.895846006231058e+00  -2.148764999999990e-01 -4.14081956e+00  -2.88504966e+00  -1.70836464e+00
C     7.621098239077815e+00   3.412696841714273e+00  -3.185102999999998e-01 -1.52254990e-01   3.32221583e+00   1.63164333e+00
C     9.006196757254108e+00   3.054897651090899e+00  -3.375354000000002e-01 -3.42355598e+00  -5.69739040e-01  -1.31706992e+00
C     9.200720827058413e+00   1.638913853127101e+00  -2.406630000000014e-01  2.14316878e+00   1.17820835e+00  -5.91897600e-02
C     3.341863221818143e+00   4.686167037455404e+00  -1.883009999999992e-01  2.24584826e+00  -3.91361754e+00  -6.43238560e-01
C     4.732725625169478e+00   4.298010959504110e+00  -2.924618999999993e-01  2.12771083e+00  -1.37947403e+00   2.68876277e+00
C     5.045504061930295e+00   2.840197570439675e+00  -5.134019999999850e-02  2.75183208e+00   1.54188606e+00  -2.88919676e+00
C     6.617658952193493e+00   2.478800127971877e+00  -9.844109999999873e-02 -4.38297675e+00  -2.39234804e+00  -1.36530917e+00
C     6.889182937822150e+00   1.025092682235445e+00  -2.896208999999992e-01 -4.54617566e+00   2.60544686e+00   8.26930110e-01
C     8.194026736993290e+00   6.664922380729486e-01  -2.534691000000002e-01  1.31502298e+00  -9.78945160e-01   1.54676340e-01
C     2.355112383303586e+00   3.584617064579557e+00  -2.080686000000007e-01  5.68503430e-01   3.07070158e+00  -1.62413937e+00
C     2.653038744875945e+00   2.195866727563504e+00  -2.209797000000009e-01  2.22998545e+00   1.19179142e+00  -6.18268490e-01
C     4.050533671226485e+00   1.837657058061731e+00  -3.553359000000000e-01  1.28644069e+00  -7.08168820e-01   1.82279459e+00
C     4.473891737749303e+00   3.943612901578794e-01  -4.784025000000014e-01 -4.14286089e+00   5.61821435e+00   6.21545660e-01
C     5.729953617481735e+00   4.372581417362760e-02  -3.759362999999993e-01  7.10195955e+00   2.62517779e+00   2.75951440e-01
C     1.059114435995483e+01   6.447082940990826e+00  -3.520080000000014e-01  9.30043870e-01  -2.45957388e+00  -4.80851210e-01
C     1.658838871944146e+00   1.219753034722161e+00  -2.164757999999978e-01  1.02252495e+00  -1.53081732e+00   3.95140540e-01
C     6.535500627894329e+00   7.527155470538162e+00  -1.373783999999993e-01 -1.56501700e-01   2.34084446e+00  -1.18276869e+00
C     7.923228078518218e+00   7.156044926330106e+00  -4.153139999999986e-01 -3.88543772e+00   2.44062918e+00   6.27104200e-01
C     4.121170319836217e+00   7.005672035190407e+00  -2.057580000000030e-01 -8.26661570e-01  -1.54792804e+00   3.06330510e-01
C     5.483844278312198e+00   6.587783062460824e+00  -1.028370000000010e-01  7.91218800e-02   2.91002854e+00  -6.83569020e-01
C     1.385971201170031e+00   1.662773813463298e+00   3.927758400000000e+00 -2.05940397e+00   7.88696330e-01  -1.47321578e+00
C     3.743355184875182e+00   1.054271934678775e+00   3.879754500000000e+00  2.05467682e+00   3.63241613e+00  -6.51746240e-01
C     5.104018083228246e+00   1.481962139340959e+00   3.670855200000000e+00 -3.36562250e-01   1.82779031e+00  -8.25679800e-02
C     6.128631164796424e+00   5.322871963242654e-01   3.414409800000000e+00 -8.28162400e-01  -8.90281460e-01   7.57259540e-01
C     7.487810886427026e+00   9.062527739162495e-01   3.413786400000000e+00  3.79248270e-01  -1.00262860e+00   1.32784589e+00
C     1.289953485400355e+01   7.535685703461010e+00   3.617280900000000e+00  1.85971766e+00   2.96430690e+00  -8.80199250e-01
C     9.672779669656002e-01   2.019496815135277e-01   3.759636900000000e+00  2.16784934e+00   2.68552150e+00   1.83946163e+00
C     6.539948691135315e+00   6.982425522568599e+00   3.948642900000000e+00 -2.73501696e+00   8.71399240e-01  -1.19368074e+00
C     7.899469033307431e+00   7.443259991663967e+00   3.812063699999999e+00 -1.75322707e+00  -3.89380558e+00   8.85996370e-01
C     8.924683055595914e+00   6.453684392699755e+00   3.682312800000000e+00 -1.96122602e+00  -1.76489932e+00  -9.97806970e-01
C     1.023024111395114e+01   6.815927423196450e+00   3.449981700000000e+00  1.70129749e+00   5.70235710e-01  -6.96310800e-01
C     1.127093539295103e+01   5.796709214795102e+00   3.323070600000000e+00 -1.25691700e+00   6.50691230e-01   1.43408967e+00
C     3.683807528401748e+00   6.200834560568637e+00   3.535342800000000e+00  2.16961929e+00   1.73769640e-01   3.00890600e-01
C     4.766818025762397e+00   5.289395190136172e+00   3.761739900000000e+00 -2.32793248e+00   1.23186659e+00  -1.06473838e+00
C     6.078988876421456e+00   5.624419306939576e+00   3.931903800000000e+00  2.96708162e+00   1.71601436e+00  -5.60689010e-01
C     7.053214700632053e+00   4.657706911987678e+00   3.782843400000000e+00  5.10893083e+00  -2.00559364e+00  -7.11244900e-01
C     8.559987344829523e+00   5.021446847271005e+00   3.592257300000000e+00 -3.54215837e+00   3.50606430e+00   1.55760347e+00
C     9.600305497141447e+00   4.147330189963212e+00   3.630798900000000e+00  1.29215450e-01  -5.37940829e+00   4.33021020e-01
C     1.098850341775038e+01   4.450984037681145e+00   3.567670800000000e+00  1.23170270e-01  -1.12694124e+00   1.03245670e-01
C     3.217212654566445e+00   3.450192120682816e+00   3.773708700000000e+00 -6.51499281e+00   1.46091696e+00  -9.72765760e-01
C     4.464934643373253e+00   3.973647209311857e+00   3.603272700000000e+00  7.66291740e-01  -3.67324752e+00   1.72015964e+00
C     5.420663464278107e+00   2.957221611948593e+00   3.709621500000000e+00  5.55728920e-01  -3.92522636e+00  -9.15574690e-01
C     6.769310658305471e+00   3.245420887561491e+00   3.677869500000000e+00  8.00285470e-01   1.85625874e+00   2.87751220e-01
C     7.782589409896847e+00   2.253959841268330e+00   3.638701500000000e+00  3.41539835e+00   1.58022565e+00  -2.30539300e-01
C     9.226626915378647e+00   2.696699527029171e+00   3.770630400000000e+00 -2.38523570e-01  -8.38839820e-01  -2.97357370e-01
C     2.780068233170186e+00   2.098922823259251e+00   3.950803500000000e+00 -6.66846630e-01  -9.77268590e-01  -4.53991400e-01
