52
Lattice="8.88768389401873 1.33226762955019e-15 0 4.44384194700937 7.69696003302603 0 0 0 30 " PBC="1 1 1" Properties=species:S:1:pos:R:3:force:R:3 Energy="-415.60600986"
C     1.256227146877143e+01   6.696376007892081e+00   5.926500000000000e-02  2.63126310e-01   4.10868070e-01  -5.70976080e-01
C     8.858679426713927e+00   6.567551603021969e+00  -5.846699999999316e-03 -3.64826192e+00   1.10660361e+00   3.53267420e-01
C     1.015900970450657e+01   6.221569247254253e+00  -2.353416000000017e-01  9.50667480e-01  -4.93448068e+00  -1.20533460e-01
C     1.054489076330385e+01   4.781905905697361e+00  -2.334204000000000e-01 -1.19915600e+00   8.77961130e-01   2.14545130e-01
C     6.401081562598088e+00   5.917686722853828e+00   4.188186000000000e-01  1.14141186e+00   1.57377337e+00  -1.64812685e+00
C     7.788946372419855e+00   5.613322137846724e+00   4.789019999999999e-02 -5.86751000e-03  -1.88688139e+00   9.81208180e-01
C     8.181026101944365e+00   4.229954900736453e+00  -6.923100000000204e-02 -1.20160733e+00  -9.17618270e-01  -1.61650680e-01
C     9.547114130864744e+00   3.801774707598759e+00  -8.969429999999790e-02 -1.78764184e+00   7.11772870e-01   1.52217230e-01
C     9.783244870755684e+00   2.446206888907240e+00   1.791402000000000e-01  2.86508155e+00  -2.14624455e+00   1.18886550e-01
C     4.024453253938963e+00   5.324486554548145e+00  -9.171779999999785e-02 -1.16991660e-01   1.17947256e+00   1.68521896e+00
C     5.356927706936663e+00   4.983521231267185e+00   1.935696000000000e-01  1.94748872e+00  -2.91852176e+00  -1.95751797e+00
C     5.772508961196486e+00   3.567309680256098e+00  -1.447442999999993e-01  3.39511950e-01   3.66341540e-01   2.54540007e+00
C     7.180567388647066e+00   3.169322044349685e+00  -1.020606000000015e-01 -1.18681981e+00   1.50581605e+00   6.49958000e-03
C     7.517941379655753e+00   1.777367770751544e+00  -4.891710000000060e-02 -2.28139238e+00  -6.85878600e-02  -2.28705640e-01
C     8.824231249414737e+00   1.388783741822583e+00   2.156799000000000e-01  1.18678220e-01   3.43329170e-01  -2.93063710e-01
C     2.976523954584104e+00   4.366643135730014e+00  -1.848869999999998e-01  2.16714864e+00  -1.59533016e+00   2.36541740e-01
C     3.351654115460128e+00   2.956911732337785e+00  -4.541700000000759e-03 -4.24176620e-01   5.01137300e-02   9.75595820e-01
C     4.780443465513864e+00   2.534228015327115e+00   5.098020000000000e-02 -2.16819419e+00   3.72350174e+00  -1.92238133e+00
C     5.069699491544301e+00   1.204817622571149e+00  -5.384040000000212e-02  1.17872712e+00  -2.12975287e+00   7.54007700e-01
C     6.467193884592517e+00   7.830456874456322e-01  -1.503602999999991e-01 -7.82742390e-01   8.07154100e-01   3.99886860e-01
C     1.119762493327202e+01   7.079682462237272e+00  -1.830366000000012e-01  2.43069140e+00   3.49208806e+00   6.86969690e-01
C     2.284437297791221e+00   2.003679716212828e+00   2.860602000000000e-01  1.00932879e+00   1.03110898e+00  -1.36267562e+00
C     2.660484489909573e+00   6.225178890599522e-01   3.958608000000000e-01 -7.70471900e-02  -1.08027930e-01  -1.21604550e-01
C     4.033373330131530e+00   2.364698545216750e-01   1.842384000000000e-01  3.64555160e-01   2.25410450e-01  -9.60656150e-01
C     4.682191012229971e+00   7.693758787353922e+00   3.555282000000000e-01  1.02042518e+00  -2.07030000e-02  -2.70890320e-01
C     6.084796001304300e+00   7.326918670509711e+00   5.485254000000001e-01 -1.09957270e+00  -7.66107370e-01  -1.41717558e+00
C     7.272058499579437e-01   9.718738993784172e-01   3.459662700000000e+00  1.88084322e+00  -6.37853330e-01  -1.82135150e-01
C     3.140975655517498e+00   3.941801037187732e-01   3.167737800000000e+00 -1.68583919e+00  -1.61117574e+00   1.35154586e+00
C     4.484654856477990e+00   7.370882166809065e-01   3.150694500000000e+00  1.47490365e+00   1.50037697e+00   1.59885030e-01
C     9.994583909402214e+00   7.470084205246919e+00   3.034927800000000e+00 -5.71220760e-01  -2.05585400e-01   1.11069082e+00
C     6.898955745584962e+00   1.541151531062858e-01   3.308056200000000e+00  1.78521280e-01   5.12488780e-01  -2.84843110e-01
C     1.237826663862071e+01   6.870804208213539e+00   3.427399200000000e+00  7.03145500e-02  -1.84546570e-01  -7.77631400e-02
C     4.875152183450050e+00   7.244251164638702e+00   3.596069400000000e+00 -9.01480720e-01   1.88340000e+00  -1.07436889e+00
C     5.904011089366437e+00   6.295005250174081e+00   3.545839800000000e+00 -4.10418040e-01  -1.66122550e+00   4.77569920e-01
C     7.254537717516211e+00   6.658035217864242e+00   3.338795700000000e+00  2.30941360e-01   1.77600858e+00  -8.07878910e-01
C     8.254739308791770e+00   5.676196295243785e+00   3.167021400000000e+00 -1.54410620e-01   4.76924300e-02   1.02907253e+00
C     9.655329238236042e+00   6.078905400371801e+00   2.984909400000000e+00 -1.58884799e+00  -1.37376960e-01   9.62143510e-01
C     1.065174112110436e+01   5.102388001976885e+00   3.128493600000000e+00  2.04696425e+00   1.01183940e-01  -3.81093800e-02
C     1.204027086344365e+01   5.486579067938325e+00   3.305407500000000e+00 -1.06278001e+00   1.61370810e+00   6.60398500e-02
C     4.180991141028141e+00   4.559403339694125e+00   3.446856900000000e+00 -3.62305460e-01  -1.71589931e+00   6.77646330e-01
C     5.510416274552076e+00   4.881108482922416e+00   3.622639800000000e+00  1.77893211e+00   2.38072322e+00  -7.11270850e-01
C     6.529955066299300e+00   3.901850658878419e+00   3.584671500000000e+00 -1.61588976e+00  -7.42719490e-01   5.20522360e-01
C     7.834664350867627e+00   4.301958268485896e+00   3.442052700000000e+00  4.85072372e+00   9.37342260e-01  -1.76929246e+00
C     8.940661020621798e+00   3.370865095464827e+00   3.283851900000000e+00  2.75438980e-01  -2.46468295e+00   9.35186240e-01
C     1.039244094298536e+01   3.717890774164609e+00   3.188443500000000e+00 -3.96746490e+00   1.63521143e+00   5.13731950e-01
C     2.539761659029677e+00   2.819840496613131e+00   3.317579700000000e+00 -2.46444366e+00  -3.58080584e+00  -2.93422770e-01
C     3.863313011170524e+00   3.176911169969665e+00   3.441850500000000e+00 -7.14189000e-03  -6.45728120e-01  -7.75796930e-01
C     4.804976850107375e+00   2.129724748816106e+00   3.381068100000000e+00  1.91380366e+00  -1.34000840e-01   5.87550460e-01
C     6.183228341532232e+00   2.509294559975533e+00   3.578840100000000e+00 -2.25272320e-01   5.78660600e-02  -1.42274701e+00
C     7.214080488311279e+00   1.554891990169213e+00   3.434379600000000e+00  5.19238790e-01  -8.18296190e-01   4.90740600e-01
C     8.598588509248561e+00   1.933907235358479e+00   3.428934900000000e+00 -3.52457680e-01   2.12580184e+00  -2.01075070e-01
C     2.118695591002791e+00   1.393648528439944e+00   3.295898400000000e+00  3.23759210e-01   7.30321200e-02   6.68123000e-01
