52
Lattice="8.88768389401873 1.33226762955019e-15 0 4.44384194700937 7.69696003302603 0 0 0 30 " PBC="1 1 1" Properties=species:S:1:pos:R:3:force:R:3 Energy="-414.17929424"
C     1.206616579749430e+01   6.195996251493779e+00  -4.212276000000017e-01  8.07378480e-01  -3.65808350e-01   1.09534881e+00
C     8.372821610393080e+00   5.949803520092608e+00  -7.358940000000302e-02 -3.90827500e-02  -1.62145062e+00  -1.60796225e+00
C     9.760610074929549e+00   5.521237863196612e+00  -2.422320000000155e-02 -2.72001195e+00   3.36710003e+00   9.60173130e-01
C     1.001063270913929e+01   4.188049879427521e+00  -2.976659999999853e-02  2.21046255e+00  -2.64426978e+00  -2.83326448e+00
C     5.994950359172044e+00   5.402947363884358e+00  -4.904210999999989e-01 -7.15672150e-01  -2.51398721e+00  -3.21344930e-01
C     7.395265036503742e+00   4.970533842730165e+00  -3.860316000000026e-01 -1.93241867e+00   2.69225830e-01   1.85563285e+00
C     7.668364941835639e+00   3.569605914341848e+00  -2.646300000000004e-01  6.05847960e-01   4.73246110e-01  -1.93545157e+00
C     9.050318730797020e+00   3.174686132764192e+00  -3.360813000000000e-01 -1.24154974e+00   1.42181965e+00   2.19692289e+00
C     9.402521955723627e+00   1.832291892072819e+00  -4.017657000000021e-01 -1.23407475e+00  -1.07119402e+00  -2.58018500e-01
C     3.498290457834931e+00   4.832466389468827e+00  -5.055176999999986e-01  1.47651891e+00  -2.80360912e+00   4.30176120e-01
C     4.931700470279451e+00   4.370978217558111e+00  -5.379246000000002e-01 -1.04597811e+00   1.56825857e+00  -1.28873000e-02
C     5.207656388382603e+00   2.957154417487531e+00  -4.772441999999977e-01  2.82635003e+00   2.84426869e+00   3.10694010e-01
C     6.658784754195530e+00   2.619680974063380e+00  -4.225838999999993e-01 -3.14807251e+00  -1.24534957e+00   2.37470230e-01
C     6.932137736328007e+00   1.221542347020335e+00  -4.185027000000012e-01  2.04559515e+00   5.52338110e-01   2.18083600e-02
C     8.309975505599089e+00   8.796085152587997e-01  -5.604647999999983e-01  1.82611603e+00  -2.02803068e+00   1.73514808e+00
C     2.466644595147059e+00   3.787157410805786e+00  -3.764322000000000e-01  8.85704370e-01   2.64244469e+00   9.57063560e-01
C     2.804323389301417e+00   2.436247561415623e+00  -4.113122999999987e-01  3.16466091e+00   9.67836300e-01   7.96645660e-01
C     4.182681887946686e+00   2.055938688154114e+00  -3.773232000000029e-01  3.96571330e-01  -4.28810666e+00  -5.00640960e-01
C     4.552923867060930e+00   5.527688839336955e-01  -2.836271999999980e-01  8.56952540e-01   3.56127484e+00   7.15440570e-01
C     5.983207236822976e+00   2.015138796366291e-01  -1.837619999999980e-01 -3.73472569e+00   1.77282736e+00  -6.65277610e-01
C     1.072631438912760e+01   6.557561102842230e+00  -5.906760000000233e-02  1.89226474e+00  -1.29123045e+00  -1.57228521e+00
C     1.884942172405171e+00   1.468445969649878e+00  -2.567190000000004e-01 -2.24336906e+00  -4.45896602e+00  -1.68991524e+00
C     2.245029350567052e+00   1.120269441486410e-02  -3.690159000000008e-01 -4.39566953e+00   2.51536647e+00   2.16804380e-01
C     7.962534260553422e+00   7.288286473575136e+00  -2.441756999999996e-01  3.75392295e+00   3.37262160e-01   5.69137460e-01
C     4.245962244989575e+00   7.147736596764923e+00  -4.844559000000004e-01 -1.24327775e+00   1.83822386e+00  -6.80609070e-01
C     5.609123248564295e+00   6.763050000516752e+00  -5.049971999999983e-01  9.86952240e-01   1.65002080e-01   5.62262480e-01
C     1.281533405307737e+00   1.567474441639055e+00   3.552185700000000e+00 -2.64314174e+00  -3.08397187e+00  -1.53036170e+00
C     3.642792152566258e+00   9.710538652568208e-01   3.522263700000000e+00  1.20539421e+00  -1.18572364e+00  -2.58189600e-02
C     5.036163549603987e+00   1.389918196761404e+00   3.736402800000000e+00 -9.60313970e-01  -1.27132822e+00   5.59538990e-01
C     6.012377948636922e+00   4.083790707341157e-01   4.077873299999999e+00  2.78803000e-01  -2.05808432e+00  -1.00338067e+00
C     7.403744284139565e+00   7.510418046104925e-01   4.003197900000000e+00 -6.27575640e-01   1.55772604e+00  -6.00811370e-01
C     1.289006649324319e+01   7.468865853443770e+00   3.877113900000000e+00 -2.73188314e+00  -1.23394599e+00   9.74634000e-02
C     8.156343490822250e-01   1.069085426982913e-01   3.476098500000000e+00  3.28045728e+00   3.73074155e+00   7.81815100e-01
C     6.287017294799250e+00   6.864269643087270e+00   3.425797200000000e+00  2.22564513e+00  -8.83881980e-01   2.15933810e-01
C     7.703256791360127e+00   7.279038576099091e+00   3.543629100000000e+00  4.30189190e-01  -1.93922270e-01   1.12953560e-01
C     8.777181187263514e+00   6.330005482579300e+00   3.816447900000000e+00 -2.15493468e+00  -3.17389632e+00  -4.24741890e-01
C     1.008601542362890e+01   6.653201219087001e+00   4.081325100000000e+00  2.87085434e+00   2.21083388e+00   3.01534940e-01
C     1.117852538853760e+01   5.645522062253828e+00   4.152089100000000e+00 -1.33273316e+00   9.05659430e-01  -1.90327317e+00
C     3.671289892124827e+00   6.055903958957350e+00   3.974451000000000e+00 -1.43924507e+00   4.19095950e-01  -1.26689440e-01
C     4.631556897753886e+00   5.062126589512761e+00   3.701414700000000e+00 -5.45446250e-01  -7.95524520e-01  -1.37403390e-01
C     5.975923872170887e+00   5.464582002838188e+00   3.498723600000000e+00  7.51782030e-01   9.42837890e-01   4.07597710e-01
C     7.021857707511758e+00   4.533584195151891e+00   3.604169400000000e+00  2.59809686e+00  -8.78951280e-01   1.40491023e+00
C     8.480406800968757e+00   4.840400877685354e+00   3.785396100000000e+00 -4.28433372e+00   4.23584733e+00  -7.58647100e-01
C     9.444817067096128e+00   3.881215801764392e+00   3.838074600000000e+00  6.30856240e-01  -5.78492880e-01  -1.20481410e+00
C     1.078687862076297e+01   4.302894141855944e+00   3.812085000000000e+00  1.88507200e+00  -6.22392870e-01   2.14936281e+00
C     2.912132861841393e+00   3.268533857926777e+00   3.772871100000001e+00  2.07257870e-01   1.10898002e+00  -2.45963171e+00
C     4.256415580998851e+00   3.645950290578611e+00   3.649205700000000e+00  1.85354329e+00   2.79052538e+00   1.12275948e+00
C     5.372098404199486e+00   2.769945645945058e+00   3.710493300000000e+00 -2.21659788e+00  -1.57370219e+00   1.80907890e-01
C     6.694575013196241e+00   3.173671057675436e+00   3.859935900000000e+00  7.33175910e-01   6.42802700e-02  -1.95412129e+00
C     7.690547177886870e+00   2.170627856837931e+00   3.787767600000000e+00  2.52109471e+00  -1.85692157e+00   8.09565710e-01
C     9.123117349157583e+00   2.502508689104285e+00   3.642377400000000e+00 -1.39023585e+00   7.11934340e-01   1.15285575e+00
C     2.632179306172088e+00   1.925537868900258e+00   3.399472800000000e+00 -1.15437064e+00   7.49764300e-01   2.29147616e+00
