52
Lattice="8.88768389401873 1.33226762955019e-15 0 4.44384194700937 7.69696003302603 0 0 0 30 " PBC="1 1 1" Properties=species:S:1:pos:R:3:force:R:3 Energy="-410.54110057"
C     1.261747074040388e+01   6.751485779889279e+00  -1.134039000000016e-01  3.93664410e+00   2.00438909e+00  -1.00898425e+00
C     8.918116523877694e+00   6.774878303842854e+00  -8.579789999999932e-02 -1.40853280e-01  -1.38228008e+00   9.40818680e-01
C     1.030309834673880e+01   6.377505039286036e+00   1.060152000000000e-01 -2.47527143e+00  -4.31589626e+00   2.02546030e-01
C     1.060158418796181e+01   4.911438892707833e+00   1.574298000000000e-01  1.24470390e-01   2.63248233e+00   5.27648380e-01
C     6.547941295795120e+00   6.080903839073990e+00  -4.167129000000003e-01 -1.02069377e+00  -1.20716894e+00   1.52967678e+00
C     7.879344871767332e+00   5.749820180957944e+00  -4.601549999999932e-02  1.42436128e+00   1.60605104e+00  -2.38713871e+00
C     8.315937232945679e+00   4.433193438207004e+00  -1.072032000000007e-01 -1.46131312e+00  -3.23614213e+00   1.90782875e+00
C     9.615100424468444e+00   3.995069465436953e+00   1.851159000000000e-01 -9.93062780e-01  -4.17146332e+00  -2.64628199e+00
C     9.960527545766844e+00   2.475319947494312e+00  -1.369478999999991e-01 -3.61223630e-01   3.55782712e+00  -4.26338040e-01
C     4.115061591477656e+00   5.421841553487601e+00  -5.709509999999796e-02  8.89699260e-01  -2.47420604e+00  -2.94596360e-01
C     5.571626197998029e+00   5.052484838591980e+00  -2.551743000000002e-01 -2.59284106e+00  -1.59707424e+00   2.00386645e+00
C     5.927896115936314e+00   3.606263764059128e+00   8.820269999999999e-02 -4.32319120e-01   3.51455670e+00  -3.16426855e+00
C     7.368780137401615e+00   3.345394700181553e+00  -9.822960000000336e-02 -3.91740574e+00  -2.11974135e+00   7.37766950e-01
C     7.584864128516016e+00   1.892551853965291e+00  -1.316439000000003e-01  3.08741340e-01   2.01296037e+00   1.74915075e+00
C     8.958367907596129e+00   1.521601406525859e+00  -2.423652000000018e-01 -2.35847247e+00  -1.80613998e+00  -3.63128590e-01
C     2.989747717288502e+00   4.422929388067798e+00   1.452102000000000e-01  5.69434454e+00   4.26942770e-01  -1.53673447e+00
C     3.378812566683710e+00   3.039351562131106e+00  -1.133303999999988e-01  3.35318454e+00   1.91460934e+00   3.47393260e-01
C     4.839398894585527e+00   2.643515534431479e+00  -4.361850000000089e-02  1.80601010e-01   2.55070218e+00   9.47229670e-01
C     5.231349619404375e+00   1.300175799170021e+00   3.944220000000000e-02 -4.07292487e+00   8.30910270e-01  -1.20233515e+00
C     6.535254123682980e+00   9.098333227526051e-01   1.583388000000000e-01  3.98800053e+00   6.97461500e-02  -1.80541953e+00
C     1.136950802930626e+01   7.193760338355507e+00   1.040031000000000e-01 -3.28639135e+00   3.93438009e+00   3.72502180e-01
C     2.414307290006717e+00   2.137661853999042e+00  -4.809510000000010e-01 -2.55234050e+00  -1.31897424e+00   2.12499993e+00
C     2.630985689456471e+00   7.414538554403222e-01  -5.550927000000030e-01  4.79499249e+00   6.34089700e-02   1.00261591e+00
C     4.127798750206273e+00   4.246068024741656e-01  -2.302235999999986e-01 -1.75794933e+00  -1.58482968e+00  -2.38684940e-01
C     2.404951713288508e-01   1.044970851208923e-01  -4.459190999999976e-01  3.41963428e+00  -7.97015140e-01   1.06444656e+00
C     6.103589986595038e+00   7.419443673091140e+00  -5.340209999999992e-01 -7.77929400e-01   8.44673030e-01  -2.87280180e-01
C     7.319838243400657e-01   9.122647154564819e-01   3.303729900000000e+00 -5.16033680e-01   1.63158325e+00   1.98567418e+00
C     3.067872900122763e+00   3.098139557387440e-01   3.581262900000000e+00 -3.76791889e+00  -2.57971581e+00   2.22269250e-01
C     4.347991207624651e+00   6.813619951549055e-01   3.595625100000000e+00  3.65986454e+00  -1.84414156e+00   1.59862876e+00
C     9.815472815541494e+00   7.315836048671315e+00   3.727902000000000e+00  1.12916614e+00  -4.62323930e-01  -2.08597100e-01
C     1.119875166977495e+01   7.661227585787127e+00   3.576299100000000e+00  1.76164850e+00   1.82017519e+00   5.58955350e-01
C     1.236980018643394e+01   6.755758131493131e+00   3.597883200000000e+00 -1.98482454e+00   1.64543360e+00  -1.34646190e+00
C     4.849020037603847e+00   7.285241864065669e+00   3.411045900000000e+00 -2.49445814e+00  -4.66778307e+00  -3.29919650e-01
C     5.778847614618144e+00   6.199251526799268e+00   3.346305900000000e+00 -2.09094470e-01  -7.38927430e-01  -9.23071330e-01
C     7.111245678413479e+00   6.536652310920736e+00   3.484353000000000e+00  2.23721953e+00   1.15039299e+00   2.00516572e+00
C     8.031504330595897e+00   5.494213682592082e+00   3.880933200000000e+00  3.84353428e+00  -1.05510780e-01  -3.31303442e+00
C     9.568460082567022e+00   5.892099795595700e+00   3.908355900000000e+00 -3.29232788e+00   2.18931097e+00  -1.25201188e+00
C     1.062288796629183e+01   4.981764938927539e+00   3.669949800000000e+00 -9.11747070e-01   4.47579070e-01   1.46589676e+00
C     3.133842181474162e+00   5.380078310182422e+00   3.525071700000000e+00 -7.72888820e-01   5.87777750e-01   1.44623740e-01
C     4.135635112558995e+00   4.411739855454586e+00   3.320061600000000e+00 -2.78240996e+00  -8.88891410e-01   3.25611300e-01
C     5.435045115577845e+00   4.765567953489681e+00   3.140120700000000e+00  2.09530628e+00   1.96309402e+00   2.01307388e+00
C     6.431745537084856e+00   3.760116219919590e+00   3.287183400000000e+00  4.66954200e-01  -9.64537550e-01  -7.91511990e-01
C     7.793144513351482e+00   4.085884973195720e+00   3.465045900000000e+00 -1.70158520e-01   3.29483684e+00   2.11809181e+00
C     8.857436481905385e+00   3.155448273895610e+00   3.540781800000000e+00 -6.56225980e-01   2.16285851e+00  -1.99348720e-01
C     1.019603557171771e+01   3.631550740784887e+00   3.734615400000000e+00  1.19304447e+00  -5.48006890e-01  -2.06386371e+00
C     2.376774779075154e+00   2.726063044695620e+00   3.555191100000000e+00 -1.72968581e+00  -2.14441813e+00   1.47125907e+00
C     3.693584956291063e+00   3.068306063341561e+00   3.479417400000000e+00  3.19597012e+00  -4.29947550e-01   3.10100790e-01
C     4.684902329836508e+00   2.029773796167333e+00   3.647244000000000e+00  1.89040627e+00   1.41991457e+00  -2.82685438e+00
C     6.099950210123744e+00   2.358199540045819e+00   3.343124700000000e+00 -2.06220254e+00   1.03434489e+00   1.76049048e+00
C     7.099379372801320e+00   1.390056588102744e+00   3.459636300000000e+00  1.54570384e+00  -7.57386900e-01  -1.41770086e+00
C     8.512951942084005e+00   1.845897731348250e+00   3.281850900000000e+00 -5.64923200e-02  -2.56777490e+00   1.39151970e+00
C     2.084598391660287e+00   1.325462160138978e+00   3.646997700000000e+00 -1.61481681e+00  -6.66033560e-01  -2.79049657e+00
