52
Lattice="8.88768389401873 1.33226762955019e-15 0 4.44384194700937 7.69696003302603 0 0 0 30 " PBC="1 1 1" Properties=species:S:1:pos:R:3:force:R:3 Energy="-416.97392475"
C     1.261752455543040e+01   6.906290503644652e+00  -2.766510000000011e-02  2.17522649e+00  -3.84321085e+00  -5.40801820e-01
C     8.891751476108761e+00   6.559724256489061e+00   5.919000000000000e-03  9.33958150e-01   2.38302300e-01  -1.16617440e-01
C     1.029411796419243e+01   6.202931366420009e+00   1.629240000000000e-01 -2.99018060e+00  -9.40117590e-01  -9.09755110e-01
C     1.056848200926618e+01   4.838584549057473e+00   1.232949000000000e-01  1.31150119e+00  -6.77673390e-01  -3.52104270e-01
C     6.531092157930833e+00   5.987181728299095e+00  -1.950432000000006e-01 -1.98058127e+00   2.61020488e+00   1.48173610e-01
C     7.882587143166503e+00   5.561520750179221e+00  -9.536459999999991e-02 -5.28185590e-01   2.99145240e-01   8.48052270e-01
C     8.188460871678741e+00   4.181147630520619e+00   8.101830000000000e-02  6.87766390e-01   2.20187300e-01  -1.10991933e+00
C     9.589324719052435e+00   3.832527372611422e+00  -7.880100000001278e-03 -1.25975682e+00  -5.25954100e-02   6.97135440e-01
C     9.939100495302633e+00   2.468656689196342e+00  -1.566765000000032e-01 -2.23027823e+00  -1.18269808e+00   9.19727020e-01
C     4.034448876606294e+00   5.483971414849761e+00  -2.080949999999859e-02  2.22396107e+00   1.27270139e+00   4.06775680e-01
C     5.419188510102175e+00   5.118578095582389e+00  -3.561000000000192e-02  1.07707671e+00  -3.05506421e+00  -1.11304356e+00
C     5.778333904842532e+00   3.664228492470653e+00  -7.285530000000051e-02 -5.92855020e-01   3.37159310e-01   1.69349590e+00
C     7.138536465035936e+00   3.210498471422176e+00   7.318050000000000e-02 -1.65785380e-01   1.44716715e+00  -8.25217340e-01
C     7.456923474775379e+00   1.844803685449586e+00   3.565470000000000e-02  1.93610351e+00  -7.92563730e-01  -5.05843040e-01
C     8.857594414950514e+00   1.465817611738833e+00  -1.311125999999980e-01  7.87760470e-01   1.84352405e+00   2.10952260e-01
C     3.066930763897331e+00   4.474372636185106e+00   6.515880000000000e-02 -1.38590687e+00   8.49755780e-01  -3.78069320e-01
C     3.386954396210722e+00   3.145663359518271e+00  -4.623090000000118e-02  9.18755110e-01  -4.54993805e+00   6.79464580e-01
C     4.747274629322291e+00   2.666473334082560e+00   8.468099999999999e-03  7.31976090e-01   2.73400530e-01  -1.02774756e+00
C     5.148461701810987e+00   1.232067631982959e+00  -1.676189999999878e-02 -2.80849257e+00   1.70780257e+00   3.20657170e-01
C     6.451835922432534e+00   8.451700839661710e-01   3.149640000000000e-02  1.74949458e+00   2.54992800e-02  -1.87367220e-01
C     1.127675211630827e+01   7.154080431221649e+00   2.110410000000000e-02 -5.08219740e-01   3.50084087e+00   6.83716590e-01
C     2.383250034043972e+00   2.041801989545414e+00  -7.718069999999955e-02  1.54846335e+00   3.38936387e+00  -8.73041520e-01
C     2.788640670021913e+00   7.277934447182787e-01  -2.027255999999973e-01 -1.41691480e+00  -2.87776892e+00   1.63237500e-02
C     4.134897743150691e+00   2.332602991587653e-01  -7.960920000000016e-02 -9.84503590e-01   1.35806434e+00  -9.22568000e-02
C     3.862968256611781e-01   1.174701573122567e-01  -1.912067999999998e-01 -3.37473470e+00   6.67434380e-01   2.70187810e-01
C     6.138050158917798e+00   7.441738610544437e+00  -3.076647000000001e-01  4.11123037e+00  -2.00975104e+00   9.56457150e-01
C     6.554504674349650e-01   8.783220453593855e-01   3.394994100000000e+00  1.04525087e+00  -2.21073816e+00  -3.21829900e-02
C     3.079415512948292e+00   3.158306693941951e-01   3.485979600000000e+00  9.48780940e-01  -2.10621560e+00   3.25672930e-01
C     4.449704706174979e+00   7.649870028536460e-01   3.566874300000000e+00  9.09846310e-01  -3.56877678e+00  -6.59423010e-01
C     9.978196931130125e+00   7.422415007541121e+00   3.656068800000000e+00 -1.75054688e+00   1.85475522e+00  -6.90743330e-01
C     6.882910143264041e+00   1.263875473246135e-01   3.521908500000000e+00 -8.89426770e-01   2.55643370e-01  -3.76454890e-01
C     1.224507616327844e+01   6.756772513855484e+00   3.400497000000000e+00  2.73349352e+00   1.04291574e+00   6.67712130e-01
C     4.765424882493882e+00   7.107788296634818e+00   3.336809400000000e+00 -1.01225185e+00   3.81185987e+00   1.63387560e-01
C     5.810459150925730e+00   6.201272902442346e+00   3.320984700000000e+00 -1.00129840e-01  -1.10061874e+00   7.30375240e-01
C     7.167308744034596e+00   6.578509918955881e+00   3.490436400000000e+00  1.22791959e+00   2.41125134e+00  -9.46887820e-01
C     8.247020355335241e+00   5.679178097559406e+00   3.445796700000000e+00 -1.89334870e-01  -1.17821490e+00   1.13261202e+00
C     9.633907920321429e+00   6.062221238901972e+00   3.621345600000000e+00 -1.54301183e+00  -1.33130781e+00  -2.28922660e-01
C     1.059601618737744e+01   4.999874423455724e+00   3.613851900000000e+00 -4.66064400e-02   8.03317930e-01  -5.10214840e-01
C     1.193404237702919e+01   5.388184902425220e+00   3.514391400000000e+00  1.37526080e-01   4.72396350e-01  -4.61212710e-01
C     4.078531921338140e+00   4.440553425326890e+00   3.373130700000000e+00  4.72995690e-01  -7.55774440e-01   3.84928590e-01
C     5.434752133111880e+00   4.817090403325697e+00   3.338049600000000e+00  1.04126845e+00   1.40986597e+00  -2.66899060e-01
C     6.490153307098211e+00   3.904801596384321e+00   3.343596600000000e+00  6.03837880e-01  -1.87952233e+00   7.59593000e-03
C     7.888786479605024e+00   4.286239921560631e+00   3.416030700000000e+00 -2.30261260e-01  -7.06259700e-02  -3.37812190e-01
C     8.912346637234458e+00   3.293008805369372e+00   3.423598800000000e+00 -6.91453090e-01  -1.33008932e+00   5.33197240e-01
C     1.027513555839013e+01   3.627232207420855e+00   3.491470800000000e+00  2.78702000e-03   4.82000140e-01  -9.58072900e-02
C     2.418788816064807e+00   2.650890222745023e+00   3.398053500000000e+00 -2.37851330e-01  -9.70993790e-01   4.68072770e-01
C     3.792171323203136e+00   3.057168408238950e+00   3.393819900000000e+00 -1.34536114e+00  -9.82681000e-02  -5.98267780e-01
C     4.827162730985940e+00   2.080700501297027e+00   3.328952100000000e+00 -1.94085560e+00   7.09117100e-01   1.10437622e+00
C     6.136586842990407e+00   2.495177411645310e+00   3.329511600000000e+00  3.14499580e+00   7.27395480e-01   2.05347260e-01
C     7.200573075202917e+00   1.540762218824541e+00   3.393107100000000e+00 -4.51444190e-01  -1.53034698e+00   6.68359090e-01
C     8.567274043745259e+00   1.886108266906576e+00   3.463099800000000e+00 -4.65395710e-01   1.11400269e+00  -1.06739388e+00
C     2.055663070221224e+00   1.221821284851823e+00   3.393818100000000e+00 -1.33362456e+00   3.08064787e+00   8.63771700e-02
