64
Lattice="9.86 0 0 4.93 8.53901048131456 0 0 0 30 " PBC="1 1 1" Properties=species:S:1:pos:R:3:force:R:3 Energy="-516.18229597"
C     4.931152584700000e+00   8.491224554941930e+00  -1.847451000000007e-01  7.18006120e-01   1.20617670e-01  -4.65518820e-01
C     1.235013757700000e+00   6.575552971931944e-01  -1.884036000000009e-01  7.65879560e-01   8.20578520e-01   7.21493900e-02
C     9.833745334300000e+00   3.513162386734000e-02   3.642093900000000e+00  1.48190410e+00   5.25857940e-01  -1.62826460e-01
C     1.243650871200000e+00   7.537727818917296e-01   3.615077400000000e+00 -1.79905034e+00  -6.53733800e-02   1.45322980e-01
C     7.427979727999999e+00   8.507907475887020e+00  -1.773617999999999e-01 -1.83318024e+00  -1.86847663e+00  -7.22642930e-01
C     3.700833616700000e+00   6.395938302089336e-01  -3.037257000000011e-01  1.34364642e+00   1.79224271e+00   1.07631871e+00
C     2.455159917200000e+00   3.852357500031040e-02   3.657040800000000e+00  8.27369600e-02   1.20858162e+00  -1.52169600e-01
C     3.673996570100000e+00   7.947686565963145e-01   3.656853900000000e+00  2.88281800e-02  -2.04615986e+00   2.29390210e-01
C     9.879574564999999e+00   8.508151520806537e+00  -2.759117999999994e-01  5.63262600e-02  -1.29089847e+00  -2.10443960e-01
C     6.183937957099999e+00   6.762376274421769e-01  -2.249486999999988e-01  2.15165500e-02  -3.06192610e-01  -8.79385330e-01
C     4.885290175100000e+00   4.882751355642160e-02   3.714677100000000e+00  1.14139634e+00   2.26603220e-01  -5.53452730e-01
C     6.135997404599999e+00   7.421684374296191e-01   3.654960900000000e+00  5.17754390e-01   4.20576750e-01   5.97702260e-01
C     1.235756329090000e+01   8.489756699040417e+00  -3.208236000000007e-01 -1.19715416e+00   2.26157610e-01   8.27570570e-01
C     8.635103440400000e+00   6.665768471554192e-01  -2.348813999999990e-01  5.71919090e-01  -6.33223870e-01   3.89202420e-01
C     7.395331049499999e+00   6.797983094222321e-02   3.688410300000000e+00 -1.16338010e+00  -5.61079230e-01  -1.66595750e-01
C     8.620767296199999e+00   7.756768807948160e-01   3.656529900000000e+00 -1.13223890e-01  -8.22995220e-01  -3.12129970e-01
C     1.244550251100000e+00   2.097504346214877e+00  -2.582892000000001e-01 -4.22489100e-01  -1.07396982e+00   1.36070600e-01
C     2.485077129200000e+00   2.784676347356904e+00  -3.032520000000005e-01 -2.46366400e-01   3.35679390e-01  -7.57941000e-03
C     1.108031358230000e+01   2.179531959468063e+00   3.616093500000000e+00 -2.90591200e-02   3.71448690e-01   1.89572380e-01
C     2.449633091400000e+00   2.909390303219400e+00   3.670338000000000e+00 -1.34302700e-02  -5.18155140e-01  -3.06345890e-01
C     3.729008270900000e+00   2.081243337777604e+00  -2.625624000000002e-01 -1.19144382e+00  -3.87419790e-01  -5.48160500e-01
C     4.930699123300000e+00   2.801610998330945e+00  -2.774807999999993e-01  1.08480896e+00   2.34660170e-01   5.05994300e-02
C     3.682416566400000e+00   2.185945012508858e+00   3.654142800000000e+00  4.27088500e-02   9.60595400e-01   2.33782220e-01
C     4.930589381500000e+00   2.878539285305684e+00   3.691262400000000e+00 -4.18764540e-01   3.04930740e-01  -4.03069960e-01
C     6.171947901299999e+00   2.101249556211406e+00  -2.446550999999992e-01  3.32148890e-01  -5.39121180e-01   2.33155280e-01
C     7.417335463600001e+00   2.790032868631008e+00  -2.322333000000008e-01 -4.25008510e-01   1.51860800e-02   3.99784210e-01
C     6.164079079000000e+00   2.163666563386328e+00   3.677120700000000e+00 -7.24395240e-01   6.01775360e-01  -1.10425580e-01
C     7.372771221600000e+00   2.906167509884038e+00   3.667833300000000e+00  5.40198520e-01   2.13302200e-01  -6.17742040e-01
C     8.656003485199999e+00   2.069681432197579e+00  -1.559784000000022e-01 -1.59501789e+00   5.88450560e-01  -1.01928440e+00
C     9.842798145400000e+00   2.787775666600725e+00  -2.624180999999979e-01  2.26307292e+00   3.04981420e-01   4.99344770e-01
C     8.611689983000000e+00   2.180926123709133e+00   3.595080300000000e+00 -2.51085270e-01   1.09067453e+00   6.88902560e-01
C     9.833720536400000e+00   2.898797489938750e+00   3.629223900000000e+00  6.76824550e-01  -4.83950270e-01  -1.51095650e-01
C     2.472613645500000e+00   4.206260119588728e+00  -3.837959999999967e-01  7.92309880e-01   5.17822560e-01   1.27240700e-02
C     3.728935060400000e+00   4.913917548432693e+00  -3.980172000000017e-01 -9.58264340e-01   8.55057020e-01   6.50092900e-01
C     1.230805056140000e+01   4.327152782871319e+00   3.697225800000000e+00  5.83055270e-01  -4.95102250e-01  -5.40992800e-02
C     3.693156127700000e+00   5.031711575592301e+00   3.724198500000000e+00 -9.39217000e-01   5.69686900e-01  -3.27440690e-01
C     4.959758811099999e+00   4.233401193619198e+00  -3.060383999999985e-01 -6.66527230e-01  -9.96199780e-01   2.86626690e-01
C     6.177288718200000e+00   4.924525048811367e+00  -1.891806000000003e-01 -2.63462200e-02   7.59169590e-01  -1.22862068e+00
C     4.907801935499999e+00   4.303048949478478e+00   3.664861800000000e+00  4.02309940e-01   4.55650240e-01   7.26099820e-01
C     6.130139677200000e+00   5.044889915856190e+00   3.712580100000000e+00  5.06327260e-01  -1.02500806e+00  -7.26429550e-01
C     7.393051663999999e+00   4.209749415441170e+00  -2.369145000000010e-01  1.19161454e+00  -4.16917800e-02   2.43497020e-01
C     8.644899695499999e+00   4.910271305567628e+00  -2.807309999999994e-01 -4.68047790e-01   4.07871700e-01   4.04495860e-01
C     7.370069483000000e+00   4.358903897879731e+00   3.634971000000000e+00  5.82136200e-01  -1.55283713e+00   8.73724100e-01
C     8.633397019499998e+00   5.038505041549980e+00   3.692283900000000e+00 -1.19963765e+00   3.28447950e-01  -4.61928240e-01
C     9.880209401099998e+00   4.203931702211041e+00  -2.881251000000020e-01 -3.30535720e-01   8.09537760e-01  -4.67366170e-01
C     1.111380810090000e+01   4.947342394885290e+00  -3.840059999999994e-01 -4.09267700e-01  -1.26155012e+00   1.33879290e-01
C     9.849186538000000e+00   4.317721275015948e+00   3.685753500000000e+00 -2.05765440e-01  -3.41663210e-01  -3.07803060e-01
C     1.107809572320000e+01   5.003055766492785e+00   3.678012600000000e+00  3.01595740e-01   1.88434031e+00   5.33032480e-01
C     3.705169551700000e+00   6.344631743010360e+00  -3.138122999999986e-01  9.56257780e-01   3.48315210e-01  -4.38070630e-01
C     4.969972292100000e+00   7.083306529692193e+00  -2.608040999999979e-01 -1.99408402e+00  -9.87108100e-01   5.17010800e-02
C     1.352490841090000e+01   6.482570235183442e+00   3.723254400000000e+00  1.04068154e+00  -1.77227287e+00  -3.01116510e-01
C     4.922471150500000e+00   7.143904813024980e+00   3.651799800000000e+00 -1.00583099e+00   1.23111476e+00   5.00950330e-01
C     6.174921184300000e+00   6.361755703846743e+00  -2.762403000000013e-01  4.07584660e-01  -6.43080210e-01   9.81148250e-01
C     7.406731773100000e+00   7.046209652562880e+00  -2.119596000000001e-01  3.75345400e-02   1.43664162e+00  -2.39180500e-02
C     6.142697225299999e+00   6.438479566910591e+00   3.689766000000000e+00  2.56822570e-01   1.24396254e+00  -8.55751600e-02
C     7.373118145699999e+00   7.181585075350286e+00   3.684277200000000e+00  5.24352940e-01  -1.52197800e+00  -1.66036700e-01
C     8.619053874700001e+00   6.338847758871628e+00  -2.469737999999992e-01  1.51752397e+00   8.96217100e-02  -4.86971870e-01
C     9.874222507699999e+00   7.066783032072764e+00  -3.311091000000026e-01 -6.79530470e-01   2.52505460e-01   2.98431050e-01
C     8.620972827899999e+00   6.463655643849404e+00   3.675579300000000e+00 -3.09370860e-01  -2.16305850e-01   4.09895520e-01
C     9.850344348499998e+00   7.162089148182768e+00   3.715064700000000e+00  1.38039100e-02   2.50960140e-01   7.27924000e-03
C     1.110001332000000e+01   6.363402622798021e+00  -4.119942000000023e-01  1.51356000e-01  -5.50610000e-02   5.80969560e-01
C     1.233773315470000e+01   7.066298357837919e+00  -3.447864000000003e-01  3.39855270e-01  -1.52109000e-02  -3.02149970e-01
C     1.110099458720000e+01   6.454411054933442e+00   3.736812000000000e+00 -1.53509778e+00  -5.64065310e-01  -4.08074940e-01
C     1.229848256530000e+01   7.180076915319308e+00   3.718980000000000e+00  9.13919790e-01   2.58416420e-01   1.08522710e-01
