72
Lattice="7.395 0 0 3.6975 6.40425786098592 0 0 0 13.6 " PBC="1 1 1" Properties=species:S:1:pos:R:3:force:R:3 Energy="-572.34972577"
C     3.642272328225000e+00   6.181261281101907e+00   1.351440731200000e+01  1.24043900e-02   3.09158121e+00   1.23248203e+00
C     1.161007383150000e+00   5.469725497740505e-01   1.352192852000000e+01  1.10538251e+00  -5.42409390e-01   7.22178200e-02
C     1.391917108575000e+00   9.231268273088863e-01   3.424308776000000e+00 -2.12974356e+00   2.36379943e+00   4.81941630e-01
C     2.598479762325000e+00   1.704106860562306e+00   3.329106464000000e+00  1.86458508e+00  -4.96052541e+00   1.46103632e+00
C     6.103207124175000e+00   6.245861542476357e+00   2.599572000000000e-02  6.55345670e-01  -1.60654418e+00   7.03669000e-03
C     3.663609195675000e+00   5.166964847834791e-01   1.356032526400000e+01  9.44728020e-01   1.54705540e-01   8.73949750e-01
C     3.899542233675000e+00   1.027200500514388e+00   3.533626392000000e+00 -2.31984245e+00  -2.89318187e+00  -8.71156070e-01
C     5.104861233299999e+00   1.748270430637130e+00   3.565004720000000e+00 -9.10888830e-01  -1.12718921e+00   7.38245860e-01
C     8.652115132574998e+00   6.280505247284869e+00   1.359812347200000e+01 -4.78410960e-01  -1.73750388e+00   6.62021200e-01
C     6.158730374100000e+00   6.911211227088169e-01   7.258687200000000e-02 -1.07039649e+00  -6.81112434e+00  -1.21104037e+00
C     6.268712659499999e+00   1.024210544647290e+00   3.650580544000000e+00  2.89640188e+00  -1.84146811e+00  -6.54835280e-01
C     7.545502633274999e+00   1.715262565413798e+00   3.482951296000000e+00 -1.15528496e+00  -1.26857678e+00   2.52920660e-01
C     8.564909964825000e+00   2.051664397602620e+00   1.346894332800000e+01  3.45117617e+00  -6.49197092e+00   6.70186100e-02
C     2.419354337850000e+00   2.642118848244876e+00   1.331990310400000e+01  1.83642534e+00  -1.43705800e-02   1.35607907e+00
C     2.608302836625000e+00   3.045822706071545e+00   3.442113896000000e+00  2.59020410e-01   2.13710317e+00  -3.49876350e-01
C     3.844947278099999e+00   3.730925171286113e+00   3.537050056000000e+00  3.23669690e-01   3.39382116e+00   1.58669234e+00
C     3.681766545900000e+00   1.930159038970563e+00   1.357637639200000e+01  8.45942100e-02   1.59618481e+00  -1.70465891e+00
C     4.943307807825000e+00   2.719436364664820e+00   5.492169600000001e-02 -2.37298801e+00  -3.28818060e-01   6.06841710e-01
C     5.130407556600000e+00   3.125370185078341e+00   3.667348936000000e+00 -1.24272757e+00   2.90427141e+00  -1.99247865e+00
C     6.330398606625000e+00   3.993293846655914e+00   3.527861080000000e+00 -1.85571324e+00  -8.72081636e+00   4.33868010e-01
C     6.153838581600000e+00   2.046410536582012e+00   1.797178800000000e-01  7.51704900e-02  -1.09227616e+00   3.92330000e-03
C     7.434746313225000e+00   2.627066344613311e+00   2.300226480000000e-01 -3.79320053e+00   2.28200807e+00  -1.10551481e+00
C     7.486207193849999e+00   3.150900630952074e+00   3.401300840000000e+00  3.02919356e+00   2.08502330e-01   8.24154290e-01
C     8.800693660799999e+00   3.752713609292248e+00   3.451504288000000e+00 -1.75146605e+00   2.10546778e+00  -5.91293620e-01
C     2.469109931475000e+00   4.047620269486194e+00   1.333932036800000e+01 -3.13197610e-01  -5.76446450e-01   1.43871655e+00
C     3.652472510550000e+00   4.741253590425753e+00   1.352129625600000e+01  1.26634358e+00   3.65856142e+00  -4.09070410e-01
C     3.795142988400000e+00   5.226731047291354e+00   3.718742656000000e+00 -1.15745353e+00  -9.01926750e-01  -1.33127495e+00
C     5.009554769099999e+00   5.916804689584589e+00   3.619881128000000e+00 -2.49635150e-01   2.62948103e+00  -3.95955720e-01
C     4.910466317025000e+00   4.171547142057696e+00   1.019457360000000e-01 -1.35534888e+00  -4.13313578e+00  -4.44504930e-01
C     6.125836711574999e+00   4.757689157584763e+00   2.260745680000000e-01  2.12531810e+00   3.22885643e+00  -1.34804842e+00
C     6.237548317725000e+00   5.301790294304705e+00   3.541417968000000e+00  2.87218995e+00   1.07186575e+00   1.90254480e-01
C     7.551587978775000e+00   5.836504197938615e+00   3.554306552000000e+00 -8.86253220e-01   6.87089574e+00  -7.82811230e-01
C     7.353219802950000e+00   3.964313363030421e+00   1.362333760000000e-01  2.69712536e+00   6.89163108e+00   7.42851980e-01
C     8.717811499125000e+00   4.743251270580022e+00   3.239057600000000e-02 -4.93745415e+00   2.52095967e+00  -1.09312197e+00
C     8.778913758900000e+00   5.206552639711223e+00   3.485588336000000e+00 -5.89934320e-01  -1.40806718e+00   1.07858856e+00
C     9.923672737124999e+00   5.991812318279588e+00   3.672320824000000e+00  2.98846667e+00  -7.09082810e-01  -4.79163500e-01
C     7.366460809274999e+00   1.752140267491614e-01   7.112191399999999e+00  1.20436020e+00  -2.81458060e-01  -1.10958157e+00
C     1.203017823525000e+00   8.711058092230495e-01   6.898099792000000e+00  2.04291075e+00  -1.70890632e+00  -3.10760390e-01
C     1.123546161900000e+00   4.811588096202888e-01   9.987771863999999e+00 -2.20463767e+00  -5.59902270e-01  -4.43645630e-01
C     2.309101469400000e+00   1.204020074709052e+00   9.905613991999999e+00  1.50420272e+00  -5.24434300e-01   1.98984150e-01
C     2.490649643775000e+00   8.603934711432061e-02   6.833853528000000e+00 -1.12617019e+00   3.66492150e+00  -1.76330420e-01
C     3.631290975075000e+00   9.344823450056094e-01   6.775741816000000e+00  1.83622855e+00  -1.08551177e+00   2.51877810e-01
C     3.548581005975000e+00   4.752742572856278e-01   1.000122471200000e+01  2.53945037e+00   9.86398740e-01   5.23337310e-01
C     4.874473594874999e+00   1.222027759087535e+00   1.004562422400000e+01 -6.14299954e+00  -2.21794890e+00  -9.68959120e-01
C     4.851997157925000e+00   9.877920919006140e-02   6.931075168000000e+00  3.79593690e-01   4.01753505e+00  -4.38751270e-01
C     6.116014672575000e+00   7.458241799438431e-01   6.987518568000000e+00 -5.16733270e-01   5.26502771e+00  -6.91916900e-02
C     5.975226998699999e+00   4.747729960229256e-01   1.010242299200000e+01  2.57972059e+00  -2.58921782e+00  -9.08429700e-02
C     7.219548559424999e+00   1.090398613672969e+00   9.981799016000000e+00  2.09312956e+00   2.26333381e+00   1.07688483e+00
C     8.673632659875000e+00   2.255673440669649e+00   6.734221831999999e+00 -9.86028030e-01   1.51471756e+00   1.50659535e+00
C     2.474467867800000e+00   3.089404897617839e+00   6.749080784000000e+00  2.38980090e-01   2.62611720e-01  -4.78187700e-01
C     2.323909809000000e+00   2.623320045892946e+00   9.792653888000000e+00 -1.68766600e-02  -6.51108900e-02   6.10510210e-01
C     3.583909583175000e+00   3.303038067269140e+00   9.805167384000001e+00 -1.05463942e+00   1.21493080e-01   3.11826140e-01
C     3.713870311500000e+00   2.447174647923206e+00   6.688455656000000e+00 -1.81296782e+00  -5.72234100e+00   7.78767440e-01
C     4.973254710750000e+00   2.981313321116130e+00   6.770877640000000e+00 -5.60138280e-01   3.86343234e+00   2.30326020e-01
C     4.805301652274999e+00   2.557216000730391e+00   9.823811760000000e+00  9.33552400e-02   3.26829125e+00   1.37273200e+00
C     5.974616837250000e+00   3.274308758636916e+00   1.002706063200000e+01  3.51874556e+00   2.32193955e+00   4.38540320e-01
C     6.150664536674999e+00   2.284854057353268e+00   6.912823151999999e+00  1.05776035e+00  -3.45291391e+00  -3.39942950e-01
C     7.403347623899999e+00   2.954907797448407e+00   6.906200087999999e+00  1.00043851e+00  -2.38060692e+00  -7.99083740e-01
C     7.244716480575000e+00   2.496213779506848e+00   1.009150382400000e+01 -7.39130640e-01   3.55238554e+00  -1.67092725e+00
C     8.483000800275001e+00   3.319821065417057e+00   9.886106152000000e+00 -8.05522700e-02  -3.25309911e+00   1.43261413e+00
C     9.907890143250000e+00   4.554800923685813e+00   6.884737248000000e+00 -1.45540607e+00  -4.28918948e+00   3.24885540e-01
C     3.709242261675000e+00   5.177743918281536e+00   7.066252232000000e+00  3.02346023e+00  -6.38253860e-01  -1.62594049e+00
C     3.582812054250000e+00   4.698709080780516e+00   9.964586583999999e+00 -8.79476710e-01   2.33331172e+00  -5.36737700e-02
C     4.826053020600000e+00   5.483050837069807e+00   9.976821279999999e+00 -5.55301680e-01  -6.07148460e-01   9.51925130e-01
C     4.956592666500000e+00   4.442013361065681e+00   6.815435320000000e+00  1.50059764e+00  -1.80574590e-01   9.63123120e-01
C     6.282020072924999e+00   5.091936213174010e+00   6.823869632000000e+00 -2.82680661e+00  -1.23877358e+00   6.66697340e-01
C     6.064598568674999e+00   4.873153443820062e+00   1.011695092000000e+01 -3.25089300e-01  -6.07101002e+00  -1.09965477e+00
C     7.337054961524998e+00   5.464438078408710e+00   1.011045175200000e+01 -2.14913263e+00   7.59045040e-01   2.81200500e-02
C     7.484171128500000e+00   4.302551424032862e+00   6.896531848000000e+00 -1.17056408e+00   4.78336034e+00  -3.63828360e-01
C     8.662390337174999e+00   5.149707998647813e+00   6.949060080000001e+00 -1.99648540e+00  -2.43746269e+00  -4.40868670e-01
C     8.550222311624999e+00   4.683791066564010e+00   1.007583009600000e+01 -3.91899053e+00   1.44431692e+00  -2.19743010e-01
C     9.640675552725000e+00   5.454437701675163e+00   1.008304503200000e+01  5.91617925e+00  -1.06662163e+00  -3.33498410e-01
