72
Lattice="7.395 0 0 3.6975 6.40425786098592 0 0 0 13.6 " PBC="1 1 1" Properties=species:S:1:pos:R:3:force:R:3 Energy="-574.92661639"
C     3.759301383075000e+00   6.351596736341056e+00   1.343917265600000e+01 -1.26348137e+00   2.38673394e+00   5.46965190e-01
C     1.239461529750000e+00   7.701789962022156e-01   1.348958296000000e+01  7.41253780e-01  -2.27609013e+00  -1.02712420e-01
C     1.332591164775000e+00   6.955620272366766e-01   3.444322808000000e+00 -3.70952729e+00   3.10288917e+00  -5.04023030e-01
C     2.451867120900000e+00   1.549016036690523e+00   3.437380688000000e+00  5.49100120e-01  -1.52358391e+00  -5.66299680e-01
C     2.471793096300000e+00   1.438306655745960e-02   1.351941510400000e+01 -6.98948400e-01  -1.30691442e+00  -1.50270100e-02
C     3.676843398600000e+00   6.874234323056101e-01   1.337942976000000e+01  2.02811504e+00   1.95088990e+00   9.46596230e-01
C     3.620360203725000e+00   7.371642143803939e-01   3.427322264000000e+00  2.90841973e+00   1.38654600e-02   4.72245110e-01
C     4.946010125700000e+00   1.420541116357163e+00   3.473852080000000e+00 -2.74494020e+00  -1.56683870e-01   6.34509000e-03
C     8.644903602525000e+00   6.394957532693130e+00   1.350230426400000e+01 -8.86143980e-01  -6.35784750e-01  -4.04796750e-01
C     6.240111128925000e+00   7.341110484882175e-01   1.355476476800000e+01 -1.98993295e+00  -5.32250519e+00  -6.11493790e-01
C     6.143392811324999e+00   7.482686851690051e-01   3.477460296000000e+00  8.36138830e-01  -1.50986523e+00   1.55685120e-01
C     7.365201329850000e+00   1.378896661111570e+00   3.397039552000000e+00  3.29836286e+00   3.25534189e+00   1.57291010e-01
C     8.601984279674999e+00   2.203882207355829e+00   1.348772479200000e+01  3.41426685e+00  -3.67656123e+00  -5.44066050e-01
C     2.439585874650000e+00   2.918388157427543e+00   1.337233450400000e+01  1.21450364e+00  -3.56213530e+00   8.60980200e-02
C     2.438205486975000e+00   3.017715571090420e+00   3.380522760000000e+00  4.19624789e+00  -5.56618221e+00   6.11374850e-01
C     3.750026721975000e+00   3.552959234934510e+00   3.520316072000000e+00 -1.35093493e+00   3.33844732e+00  -5.03714710e-01
C     3.679303308375000e+00   2.187988504454353e+00   1.333512408800000e+01  5.94657910e-01  -2.02253036e+00   1.58061922e+00
C     4.925650692375000e+00   2.862324451567581e+00   3.939348800000000e-02  1.70651900e-02  -3.27912925e+00  -9.23930250e-01
C     4.975297542524999e+00   2.813776590604379e+00   3.556919792000000e+00 -3.14715042e+00   4.90826280e-01  -5.06804880e-01
C     6.104676621599999e+00   3.581536122229665e+00   3.523460256000000e+00  4.26408087e+00  -3.05206172e+00  -8.43740270e-01
C     6.226897632000000e+00   2.067580323278871e+00   9.151834399999999e-02 -4.36331232e+00   1.70648502e+00  -3.90801970e-01
C     7.391005701675000e+00   2.727200374553655e+00   1.359104440000000e+01 -1.18761467e+00   4.83779205e+00   5.20648850e-01
C     7.370525840775000e+00   2.875360062271297e+00   3.355864464000000e+00  4.51996320e-01  -1.46617589e+00   6.85879800e-01
C     8.646844346325000e+00   3.617532342255632e+00   3.338959528000000e+00 -3.60077848e+00   3.48574550e-01   7.09925660e-01
C     2.516756655975000e+00   4.261087504816342e+00   1.338268777600000e+01 -5.37762025e+00   1.67391686e+00   2.31092220e-01
C     3.688651253925000e+00   4.914618836015889e+00   1.338098179200000e+01  2.22269062e+00   3.11429880e+00   1.06866197e+00
C     3.770752762425000e+00   5.046246188238255e+00   3.495895368000000e+00 -6.99609820e-01  -1.21515446e+00   3.00983700e-01
C     5.047196021625000e+00   5.719216747575731e+00   3.436575976000000e+00 -3.21899915e+00  -5.38646460e-01   4.13798440e-01
C     4.875746939925000e+00   4.233630402008007e+00   4.708564800000000e-02  1.92374519e+00   1.27142765e+00  -5.11989300e-01
C     6.124432585950000e+00   4.956812968713606e+00   8.762724799999999e-02  1.84763860e-01  -7.79902000e-03  -7.04925020e-01
C     6.176216332275000e+00   4.934528777106529e+00   3.455891376000000e+00  1.48221100e-01   2.10891978e+00   1.04633580e-01
C     7.349705070375000e+00   5.657244409371556e+00   3.460259968000000e+00  2.93353110e+00   2.15104389e+00   1.87053510e-01
C     7.297311754199999e+00   4.133789110694443e+00   1.596721600000000e-02  2.66773675e+00   4.74158797e+00  -4.56517730e-01
C     8.577423488024998e+00   4.937342551839898e+00   1.346855532000000e+01  7.64725610e-01   3.74730320e-01   5.32649080e-01
C     8.663182082850000e+00   4.982002195728558e+00   3.534283816000000e+00 -1.40838213e+00   3.18084261e+00  -8.21391510e-01
C     9.886691118600000e+00   5.758366552257120e+00   3.564212384000000e+00  3.31751550e-01  -2.98802142e+00  -6.37251940e-01
C     3.888405622500000e-02   1.840321134391740e-02   7.043982231999999e+00 -1.07867595e+00  -1.42200122e+00  -3.99362970e-01
C     1.216823401125000e+00   7.099570057137559e-01   6.900579615999999e+00  2.40621104e+00   1.60077861e+00  -7.35950210e-01
C     1.131439400025000e+00   6.640775428305018e-01   1.020795042400000e+01  7.30432124e+00  -6.95735310e-01   1.80435000e-03
C     2.471500808925000e+00   1.424792582937524e+00   1.016117880000000e+01 -1.08326330e+00  -2.47099286e+00   7.39945720e-01
C     2.487550547175000e+00   6.932801261185800e-03   6.675858248000000e+00 -8.55992420e-01   1.26968168e+00   6.95260470e-01
C     3.801717254325000e+00   6.727007479538347e-01   6.545560320000000e+00 -1.77336732e+00  -1.09905500e-01   1.51588027e+00
C     3.732350601374999e+00   6.813212632888662e-01   1.034597600800000e+01 -3.95977698e+00  -1.10162660e+00  -4.46559950e-01
C     4.895844775124999e+00   1.401006784990012e+00   1.029728923200000e+01  1.64676210e+00  -8.64492250e-01  -1.42193530e-01
C     8.702066434874999e+00   6.399837961437922e+00   6.868395895999999e+00  8.27187040e-01   3.97788060e-01  -3.84099610e-01
C     6.253481177999999e+00   7.775016246393397e-01   7.027993528000001e+00 -3.06723458e+00  -1.33752969e+00  -1.24843840e+00
C     6.136614480375000e+00   7.297232352580171e-01   1.028232841600000e+01  1.22149899e+00   3.60900700e-01  -1.86291240e-01
C     7.434140625750000e+00   1.351037242824469e+00   1.018004730400000e+01 -5.65091857e+00   5.70079214e+00  -3.47257760e-01
C     8.608704892650000e+00   2.164878804009121e+00   6.879907752000000e+00 -1.24830640e-01   5.71297000e-01  -1.18933157e+00
C     2.490454415775000e+00   2.802502406982478e+00   6.696256616000000e+00 -1.15164201e+00  -5.03175170e-01   4.78435300e-01
C     2.462843038725000e+00   2.829235828652634e+00   1.009606023200000e+01 -5.74053970e-01  -9.40125970e-01   4.66302290e-01
C     3.697162344300000e+00   3.446566772085637e+00   1.007411051200000e+01 -6.35065200e-02   4.07736144e+00   2.23682220e-01
C     3.755057392575000e+00   2.090001822174466e+00   6.539825744000000e+00 -1.54040988e+00   5.06737300e-01   1.09891012e+00
C     4.922221889699999e+00   2.819942546029409e+00   6.709185864000000e+00 -6.31991370e-01   2.29588186e+00   3.57001400e-01
C     4.907892413324999e+00   2.754582547545029e+00   1.014706948000000e+01  4.94579550e-01   3.16169003e+00  -3.35223470e-01
C     6.137700436125000e+00   3.533712646873009e+00   1.012766486400000e+01  1.06001365e+00  -9.00018290e-01   4.93161480e-01
C     6.136616698875001e+00   2.167912436914825e+00   6.833586152000001e+00  2.95384095e+00   1.70859924e+00   3.22305440e-01
C     7.371487930275000e+00   3.029538087270295e+00   6.815398599999999e+00  6.64136910e-01  -6.94972195e+00   6.77966300e-01
C     7.431102426974999e+00   2.878712050835221e+00   1.010411143200000e+01 -9.68575920e-01  -1.80190542e+00   9.70456880e-01
C     8.646675074775001e+00   3.602617594210635e+00   1.021429210400000e+01 -3.06583370e-01  -2.35353105e+00  -6.40028060e-01
C     9.800062465049999e+00   4.203450272800179e+00   6.865354528000000e+00  4.15210261e+00   3.18727480e-01  -1.99133340e-01
C     3.653557504950000e+00   4.965034370698802e+00   6.934674816000000e+00 -1.19105360e+00   1.27925335e+00   1.61870630e-01
C     3.661781669325000e+00   4.962818561521821e+00   1.008195485600000e+01 -8.28560810e-01  -6.43893310e-01   1.09747653e+00
C     4.854712934699999e+00   5.668004651300191e+00   1.021984838400000e+01  1.84267535e+00  -1.38048362e+00  -3.04391700e-01
C     4.842935879550000e+00   4.312640563780350e+00   6.868709104000000e+00  3.03487347e+00  -2.43805634e+00  -9.21266200e-01
C     6.089407129800000e+00   5.038357103193414e+00   6.790393504000000e+00  1.92396140e+00  -8.20520020e-01  -2.75871010e-01
C     6.147535601250000e+00   4.938006096996773e+00   1.027234003200000e+01 -1.38057723e+00   3.59810380e-01  -9.61976300e-02
C     7.387650922950000e+00   5.594900688254078e+00   1.044852245600000e+01 -8.21676550e-01   3.20232446e+00  -1.00754766e+00
C     7.416264248549999e+00   4.371999452437017e+00   6.755507736000000e+00 -3.01017582e+00   1.57771390e-01   3.73506240e-01
C     8.668854158775000e+00   4.942700994391361e+00   6.877424527999999e+00 -1.58646983e+00   3.48600203e+00  -1.98600260e-01
C     8.628851349974999e+00   4.975748886226318e+00   1.039057176800000e+01 -1.41204960e-01   6.88187790e-01  -7.56333730e-01
C     9.799646607224998e+00   5.774638298500071e+00   1.025483560800000e+01  2.20378048e+00  -4.38442249e+00  -1.54243390e-01
