72
Lattice="7.395 0 0 3.6975 6.40425786098592 0 0 0 13.6 " PBC="1 1 1" Properties=species:S:1:pos:R:3:force:R:3 Energy="-578.56622843"
C     3.682161623775000e+00   6.186438867411403e+00   1.894191680000000e-01 -5.42138990e-01   1.12769410e+00   9.30672510e-01
C     1.267159428300000e+00   4.383580015754941e-01   2.366942640000000e-01 -2.11305756e+00   3.06467067e+00  -6.80236970e-01
C     1.400833260075000e+00   1.058366565219764e+00   3.414212544000000e+00 -3.87355800e-01  -7.70362740e-01  -2.70931430e-01
C     2.621931267000000e+00   1.741747694006720e+00   3.350442552000000e+00  1.01591005e+00   5.59550060e-01   3.87351310e-01
C     6.207528537075000e+00   6.194303808404111e+00   2.279617040000000e-01 -3.98776637e+00  -2.11210960e-01  -1.08865620e-01
C     3.664031265299999e+00   4.721056226242356e-01   1.314147600000000e-01  2.90555442e+00   1.14982134e+00   1.36346265e+00
C     3.888243450150000e+00   1.059806946855056e+00   3.362025808000000e+00  2.83502000e-02  -5.73551670e-01  -2.35169160e-01
C     5.161334407949999e+00   1.737702764742344e+00   3.297262064000000e+00 -2.46467057e+00   3.19234960e-01   1.65123424e+00
C     8.599434742500000e+00   6.163394874651815e+00   2.571836160000000e-01 -1.35538631e+00   6.24916400e-01  -1.52996990e-01
C     6.070394325974999e+00   4.541034459075114e-01   2.521635840000000e-01  4.34148150e+00   7.44986030e-01  -7.01752310e-01
C     6.368710068000000e+00   9.809465806740600e-01   3.399458584000000e+00 -2.18346067e+00   4.34655383e+00  -2.18622150e-01
C     7.532263512674999e+00   1.699414845083756e+00   3.414089736000000e+00  3.66032515e+00   3.76481512e+00  -2.58590470e-01
C     1.234657700775000e+00   1.901048420825354e+00   1.617214080000000e-01 -1.07909666e+00   4.02442270e-01   5.01573370e-01
C     2.437716714450000e+00   2.630066803463299e+00   2.026311600000000e-01  1.18425595e+00  -4.82558150e-01   1.01522540e-01
C     2.615399892075000e+00   3.145309393627401e+00   3.352587408000000e+00  2.72886992e+00   8.00845820e-01  -3.54409800e-01
C     3.873792067200000e+00   3.860952739895051e+00   3.282301112000000e+00 -1.12778343e+00   2.03048109e+00   1.69832709e+00
C     3.678069267750000e+00   1.872569134419984e+00   2.555546080000000e-01 -3.39498910e-01   2.04843377e+00  -1.88825811e+00
C     4.906210383600000e+00   2.605644038029032e+00   1.237852960000000e-01  3.90444540e-01   4.32647110e-01   1.30054130e+00
C     5.072246473200000e+00   3.178713298156796e+00   3.459386984000000e+00  1.75350081e+00  -1.57913810e+00  -1.87663345e+00
C     6.293940147374999e+00   3.881234448154464e+00   3.440872488000000e+00  3.08791466e+00   9.91558330e-01  -4.61754110e-01
C     6.127425860100000e+00   1.833004141701533e+00   1.569291760000000e-01  3.41932960e-01   4.38434347e+00  -1.51669680e-01
C     7.382461740524999e+00   2.665071388202223e+00   1.525042800000000e-01 -8.22557720e-01  -1.92062285e+00  -8.54671940e-01
C     7.630590131849999e+00   3.211155603368513e+00   3.374011080000000e+00 -4.01622711e+00  -2.42340747e+00   8.84300590e-01
C     8.856428444700001e+00   3.889550697198567e+00   3.415650200000000e+00 -2.33929328e+00   1.24179563e+00  -5.24126740e-01
C     2.455050816300000e+00   4.058210414326068e+00   2.170803440000000e-01 -1.15495202e+00   2.24733720e-01   7.33446690e-01
C     3.640364566125000e+00   4.821095152953480e+00   2.283997600000000e-01  2.30777381e+00  -3.42201216e+00  -2.33263800e-01
C     3.897871074600000e+00   5.360490120784999e+00   3.384232160000000e+00 -1.24353547e+00  -2.57811881e+00  -2.12692970e-01
C     5.118425327174999e+00   6.054779878155208e+00   3.372310672000000e+00 -1.82576230e-01  -9.50090540e-01   2.72006100e-01
C     4.921112898524999e+00   4.072928231441870e+00   2.205785360000000e-01 -1.74509872e+00  -3.64121370e-01  -4.54669610e-01
C     6.108746311950000e+00   4.824461166842117e+00   2.439500000000000e-01  1.82162406e+00  -3.15999192e+00  -1.27980168e+00
C     6.334972672950000e+00   5.312571926454593e+00   3.370615840000000e+00 -4.98358920e-01  -2.50387950e-01   7.10670980e-01
C     7.551868249275000e+00   6.033984868628317e+00   3.435015920000000e+00  1.33263300e+00  -4.25000680e-01  -8.31540060e-01
C     7.349430087299999e+00   4.117708147293141e+00   6.398487200000000e-02  9.57769930e-01  -2.05680525e+00   2.67430137e+00
C     8.620264460849999e+00   4.787214131213514e+00   3.448314000000000e-01 -1.18376933e+00  -2.24354709e+00  -2.64186548e+00
C     8.808635927775001e+00   5.333622529912677e+00   3.409352856000000e+00 -1.86220670e-01  -4.32887440e-01   5.98833580e-01
C     1.002778631355000e+01   6.058949498320120e+00   3.452147160000000e+00  9.33750180e-01  -4.44482239e+00  -6.75894210e-01
C     7.366009418475000e+00   2.204584434230178e-01   6.494685304000000e+00  1.61383175e+00  -2.41483502e+00   2.81168320e-01
C     1.215001421025000e+00   9.041214235983930e-01   6.527023928000000e+00 -1.34350160e-01  -6.87390960e-01   2.72448980e-01
C     1.091342120100000e+00   3.896996031216288e-01   1.029280082400000e+01  8.78099760e-01   1.16361162e+00  -8.41751250e-01
C     2.295974826750000e+00   1.091907520867363e+00   1.018121336800000e+01  1.95385774e+00   9.66208440e-01  -3.08799620e-01
C     2.449103387550000e+00   2.329496281660548e-01   6.642782639999999e+00 -7.44969210e-01  -2.91882588e+00  -3.89172660e-01
C     3.663548852475000e+00   8.987773265845374e-01   6.638148304000000e+00  8.90894220e-01  -8.99214710e-01   3.35385170e-01
C     3.553250689650000e+00   3.559911761309904e-01   1.005006748000000e+01 -2.20020940e-01   3.07876827e+00   1.80451577e+00
C     4.822687260300000e+00   1.161992644843430e+00   1.023377600800000e+01 -1.71409183e+00  -1.62159513e+00  -1.34015765e+00
C     4.895560659225000e+00   1.959598515756882e-01   6.660436936000000e+00  1.57942837e+00  -3.25280790e-01  -1.03300641e+00
C     6.186975798449999e+00   9.153487920953377e-01   6.512910392000000e+00 -3.56023551e+00   1.65665270e-01   1.15248283e+00
C     6.012184361625000e+00   4.413237493478815e-01   1.024144464000000e+01  1.79219608e+00  -1.17931651e+00   3.13193400e-02
C     7.297536562200000e+00   1.153931989730520e+00   1.028026883200000e+01 -2.56783968e+00  -6.01553230e-01   5.00839680e-01
C     8.619170296649999e+00   2.272134881030415e+00   6.504288944000000e+00 -7.04993150e-01   3.63677275e+00   7.58043900e-01
C     2.476339505325000e+00   2.989621116539858e+00   6.621241056000000e+00 -2.54954057e+00   1.60979671e+00  -1.31367456e+00
C     2.319701203575000e+00   2.566723505779033e+00   1.018636844800000e+01  1.14797052e+00  -2.58001587e+00   3.31419010e-01
C     3.529720095450000e+00   3.256607517997034e+00   1.027550611200000e+01  2.75150742e+00  -6.20838700e-02  -8.59261120e-01
C     3.656155553325000e+00   2.269579646186853e+00   6.621166120000000e+00  1.93521255e+00   2.96665407e+00   4.34451780e-01
C     4.899813412800000e+00   3.035783839748260e+00   6.659359272000001e+00 -7.17411640e-01  -7.94769200e-01  -2.11168870e-01
C     4.828359299250000e+00   2.585478438964621e+00   1.021975794400000e+01 -2.92487645e+00  -1.76645249e+00   7.42468010e-01
C     6.009543976874999e+00   3.266164656044090e+00   1.026402975200000e+01  1.96372217e+00  -7.89379400e-02   2.33890180e-01
C     6.124154349074999e+00   2.349563063026179e+00   6.600067760000000e+00  1.02904340e+00  -7.88678810e-01  -5.25436620e-01
C     7.352431680824999e+00   3.055237861721846e+00   6.525656856000000e+00  8.58621910e-01  -1.94968204e+00   3.57798370e-01
C     7.261806066749999e+00   2.575933404964920e+00   1.032213316800000e+01  1.38963622e+00  -6.27171470e-01  -1.24755781e+00
C     8.557498104224999e+00   3.280416947656049e+00   1.018609903200000e+01 -4.20549853e+00  -5.29157930e-01   8.76924900e-01
C     9.820946055975000e+00   4.464377862066323e+00   6.498217632000000e+00  1.37979978e+00  -9.15576270e-01   1.41961192e+00
C     3.706213787324999e+00   5.161074403582898e+00   6.545525096000000e+00 -2.79971864e+00   1.11165592e+00  -1.11199950e-01
C     3.597162199650000e+00   4.648978865731200e+00   1.027758147200000e+01 -1.56519420e+00   1.88256281e+00  -3.66475090e-01
C     4.859985347849999e+00   5.400444108125867e+00   1.024860123200000e+01 -3.80357145e+00  -1.33223618e+00   4.82286970e-01
C     4.900391849700000e+00   4.447214899299573e+00   6.648726248000000e+00  7.44858140e-01   4.73890340e-01  -2.61882470e-01
C     6.143136204825000e+00   5.175982491199721e+00   6.639160416000000e+00 -1.37497996e+00   6.56407070e-01   2.38593410e-01
C     6.019350967050000e+00   4.668110945662164e+00   1.023974953600000e+01  3.46251130e-01   3.65812310e-01  -3.85646150e-01
C     7.205117808524999e+00   5.369686955284853e+00   1.013205127200000e+01  3.17522040e+00  -1.15009200e-02   1.61854880e-01
C     7.316813071724999e+00   4.441258875447194e+00   6.598408151999999e+00  2.66611021e+00   1.52096937e+00   1.03346580e-01
C     8.586014629274999e+00   5.179296950812585e+00   6.596914736000000e+00 -7.57559400e-02  -4.45466570e-01  -1.91302070e-01
C     8.487120037124999e+00   4.672676733218294e+00   1.018101372000000e+01 -7.38260800e-02   7.06788150e-01  -3.03242820e-01
C     9.703885387499998e+00   5.357188853943327e+00   1.020005426400000e+01  1.69685816e+00   2.22849203e+00   4.38849470e-01
