72
Lattice="7.395 0 0 3.6975 6.40425786098592 0 0 0 13.6 " PBC="1 1 1" Properties=species:S:1:pos:R:3:force:R:3 Energy="-577.27879346"
C     3.704929571625000e+00   6.241856831951341e+00   1.200899040000000e-01  2.09275120e-01  -3.91198937e+00   1.11119783e+00
C     1.211400166950000e+00   5.314336427580180e-01   1.556369040000000e-01  1.40941995e+00  -1.33419816e+00  -5.26048430e-01
C     1.411452036375000e+00   1.062128682457042e+00   3.377486696000000e+00  8.92068380e-01  -7.88686800e-01  -3.60084580e-01
C     2.632827947400000e+00   1.766689588583119e+00   3.218910016000000e+00 -1.12943220e-01   1.02371724e+00   8.09186070e-01
C     6.133715381549999e+00   6.209891836077930e+00   2.340187360000000e-01  1.51332826e+00  -5.38076840e-01  -2.86482620e-01
C     3.725429953650000e+00   5.024313206132220e-01   1.361761200000000e-01 -3.18757308e+00   4.41230260e-01   8.15070690e-01
C     3.820152175875000e+00   1.027433231245021e+00   3.315744464000000e+00  5.52054600e-01  -2.34607690e-01  -1.33657500e-02
C     5.045884185600000e+00   1.707787323511870e+00   3.371974344000000e+00  2.04675083e+00   4.14080200e-01   1.03429015e+00
C     8.580925131449998e+00   6.163413190829295e+00   2.855600160000000e-01  2.34238826e+00   1.17352632e+00   4.51047600e-02
C     6.193067133900000e+00   4.423563078426492e-01   2.979580480000000e-01 -3.37185810e+00   1.68568296e+00  -1.22926471e+00
C     6.330827886374999e+00   1.063941727857208e+00   3.539586592000000e+00  7.59044490e-01  -2.46379101e+00  -6.09573430e-01
C     7.610373680850000e+00   1.781798769896746e+00   3.403341520000000e+00 -3.05750399e+00  -5.67209396e+00   6.29145040e-01
C     1.229545056600000e+00   1.902502891827939e+00   4.049291200000000e-02 -8.33290880e-01   2.50054390e+00   9.45010110e-01
C     2.477292794775000e+00   2.633226600248844e+00   2.316841600000000e-02 -2.80584462e+00   2.06358750e+00   1.66234380e-01
C     2.659043000550000e+00   3.245003130839871e+00   3.246769344000000e+00 -2.72205416e+00  -1.29712620e+00   2.63522320e-01
C     3.863038886775000e+00   3.948287668374449e+00   3.385979488000000e+00  1.70503608e+00  -4.21594637e+00   3.78045220e-01
C     3.674542481325000e+00   1.955999386882141e+00   9.380953600000000e-02  8.67587210e-01  -2.00346346e+00  -3.86101450e-01
C     4.903124154300000e+00   2.605028973104158e+00   1.753125680000000e-01  5.04989710e-01   7.86616290e-01   4.26177640e-01
C     5.066951135549999e+00   3.097429560801576e+00   3.479436512000000e+00  1.08351584e+00   3.63486561e+00  -9.76475180e-01
C     6.384247443674999e+00   3.821025586394617e+00   3.472328880000000e+00 -4.48788934e+00   4.69001340e-01  -2.52386020e-01
C     6.112026401174999e+00   1.875243232289427e+00   2.299403680000000e-01  1.84104111e+00   2.53815540e-01   1.42961940e-01
C     7.350145849350000e+00   2.602512099765178e+00   1.883235520000000e-01  7.08341740e-01   1.25910675e+00  -6.85419610e-01
C     7.526305693950000e+00   3.081328616115750e+00   3.335379328000000e+00  3.36972569e+00   6.76318540e+00  -5.75751200e-02
C     8.749877809050000e+00   3.913438066675738e+00   3.289876448000000e+00  1.85622257e+00  -3.49685820e-01   6.93657920e-01
C     9.770639423924999e+00   4.121470584743312e+00   7.235907200000000e-02  3.26782186e+00  -2.97871301e+00   7.64873580e-01
C     3.692877792225000e+00   4.745391061216206e+00   1.144616800000000e-01 -8.54618490e-01   1.65330124e+00   3.13841500e-01
C     3.893342117775000e+00   5.298432798079021e+00   3.546431200000000e+00  8.27414630e-01   1.66403088e+00  -3.59119190e-01
C     5.108441929274999e+00   6.041835848338891e+00   3.459775400000000e+00  1.54660173e+00  -1.32049937e+00   5.10450900e-02
C     4.923052422150000e+00   4.012548183869425e+00   2.517292000000000e-01 -2.61617540e-01   1.33438290e+00  -6.16205970e-01
C     6.175201701300000e+00   4.758722484590475e+00   3.595943360000000e-01 -3.41632143e+00   1.85003236e+00  -1.23153449e+00
C     6.372843503249999e+00   5.261047750693535e+00   3.412119504000000e+00 -7.73888830e-01   1.04490885e+00   2.91091530e-01
C     7.598766895575000e+00   6.026984886702180e+00   3.391300896000000e+00 -2.61963281e+00   2.34649340e-01   1.13556800e-01
C     7.356010454100000e+00   4.107189794183877e+00   2.348084880000000e-01  9.92297500e-02  -4.66390244e+00   6.38118270e-01
C     8.547925239750001e+00   4.768727344304524e+00   3.243561920000000e-01  1.88154091e+00   6.91404760e-01  -1.78482094e+00
C     8.811459042974999e+00   5.381338349694707e+00   3.482209960000000e+00  7.24463400e-02  -4.51136079e+00  -5.53565920e-01
C     1.007062965277500e+01   5.945573704615545e+00   3.614963640000000e+00 -1.05977987e+00   5.28512429e+00  -9.23773350e-01
C     7.405632050325000e+00   1.592128604007942e-01   6.543709088000000e+00 -1.46706080e+00   1.32581078e+00   7.81314320e-01
C     1.216753333500000e+00   9.145106028266209e-01   6.549938432000000e+00 -1.35856000e-03  -7.86315210e-01   1.73051060e-01
C     1.123600145400000e+00   4.276850496814896e-01   1.028920063200000e+01 -1.74815769e+00  -7.98937600e-01  -8.84819080e-01
C     2.372380003725000e+00   1.123119376016438e+00   1.000154132000000e+01 -3.66895676e+00  -1.07696756e+00   8.51313100e-01
C     2.460618955500000e+00   1.591382507967252e-01   6.679662712000000e+00 -5.68776880e-01   4.07410176e+00  -3.60946990e-01
C     3.742765904250000e+00   8.260508945392705e-01   6.670133463999999e+00 -1.24921403e+00   2.23647488e+00   1.48471220e-01
C     3.517831634625000e+00   4.054583683099950e-01   9.958474471999999e+00  3.84105352e+00  -1.26478501e+00   1.18389070e+00
C     4.764731757900000e+00   1.104681453594919e+00   1.013402680800000e+01  8.43362500e-01   6.79295770e-01  -3.81405300e-02
C     4.999562756025000e+00   2.070937819504554e-01   6.767900600000000e+00 -2.22596634e+00  -1.68965352e+00  -7.56647280e-01
C     6.162082527600000e+00   9.312907831010785e-01   6.643038592000000e+00  2.53439161e+00   1.11530040e-01  -2.88313830e-01
C     6.061274146425000e+00   4.369336305848514e-01   1.031142738400000e+01 -1.70577820e+00   9.37912500e-01  -8.03135010e-01
C     7.261162295025001e+00   1.190498060620869e+00   1.036186842400000e+01  2.26275362e+00  -1.85839886e+00  -3.16214080e-01
C     8.567878132950000e+00   2.358237310084656e+00   6.488014775999999e+00  4.55226280e-01  -2.44078687e+00   4.14253170e-01
C     2.413838296425000e+00   2.945145338894359e+00   6.560632112000000e+00  2.54083538e+00   2.39561660e+00  -5.12871400e-01
C     2.360200105950000e+00   2.482672040304456e+00   9.992388112000000e+00 -1.12416708e+00   4.98115588e+00   1.09472055e+00
C     3.585602483550000e+00   3.278335884064441e+00   1.011668164000000e+01 -1.80130059e+00  -1.73542113e+00  -3.62910120e-01
C     3.715567242150000e+00   2.279711118078795e+00   6.587213584000000e+00 -2.33126735e+00  -1.80961026e+00   5.99428090e-01
C     4.898967794550000e+00   2.985594951751012e+00   6.673968392000000e+00  9.16072190e-01   3.31623488e+00  -2.42611420e-01
C     4.779277759875000e+00   2.549320703555426e+00   1.017973178400000e+01  1.91911701e+00  -5.15106680e-01   2.75822910e-01
C     6.076346857274999e+00   3.255823572792391e+00   1.028903104000000e+01 -3.08796870e+00   5.86575250e-01   7.09212500e-02
C     6.157223531924999e+00   2.369255387434736e+00   6.605364008000000e+00 -2.57699400e-02  -1.78895219e+00   6.16634100e-02
C     7.375606686449999e+00   3.091774344940882e+00   6.493895279999999e+00 -1.20596534e+00   4.24080070e-01   8.38484890e-01
C     7.300639763024999e+00   2.614437788539177e+00   1.032066028800000e+01 -2.22074509e+00  -2.69741579e+00  -3.85662470e-01
C     8.451689593799999e+00   3.270209521265887e+00   1.014248573600000e+01  5.39119460e+00   1.10252979e+00  -1.57911500e-02
C     9.842776576649999e+00   4.373691457363629e+00   6.531072375999999e+00 -1.86766317e+00   1.59092934e+00   1.21368565e+00
C     3.635510783925000e+00   5.132843666425075e+00   6.599315136000000e+00  1.43933999e+00   2.05989200e-01   6.27181400e-02
C     3.555126098625000e+00   4.687424330133145e+00   1.024032454400000e+01 -1.50424865e+00  -8.55791220e-01  -3.36862000e-01
C     4.740985710375000e+00   5.324018064400035e+00   1.028315230400000e+01  3.55288256e+00   4.40886343e+00   4.86709700e-02
C     4.882869840900000e+00   4.472280780308141e+00   6.703584024000000e+00 -1.31055372e+00  -1.83382422e+00  -2.88049290e-01
C     6.047980376775000e+00   5.228047954835105e+00   6.748318503999999e+00  2.92060905e+00  -3.89375746e+00  -5.31221240e-01
C     6.010846495199999e+00   4.662828457608923e+00   1.026219796800000e+01  1.51370530e-01  -1.33695540e-01  -6.02401880e-01
C     7.227207228150000e+00   5.389097556390149e+00   1.010401160800000e+01  6.95257080e-01   2.00012840e-01   5.73819010e-01
C     7.327667046000000e+00   4.510367157971875e+00   6.624241760000000e+00  1.04860155e+00   2.47490830e-01   5.00411720e-01
C     8.613203936700000e+00   5.183191572144986e+00   6.682157768000000e+00  4.12456190e-01  -1.67272875e+00  -6.57336400e-01
C     8.497960145775000e+00   4.717802543036584e+00   1.018288766400000e+01 -2.03231400e-01  -2.71719170e-01  -7.88516500e-01
C     9.760815831974998e+00   5.449789619405532e+00   1.019633711200000e+01 -1.53942844e+00  -1.64765785e+00   5.21942590e-01
