64
Lattice="9.86 0 0 4.93 8.53901048131456 0 0 0 30 " PBC="1 1 1" Properties=species:S:1:pos:R:3:force:R:3 Energy="-515.77396209"
C     4.951869332100000e+00   8.486375080110127e+00  -4.661009999999877e-02 -3.98584900e-01  -3.13509000e-03  -3.33555890e-01
C     1.248087427500000e+00   6.755789281737496e-01  -2.581560000000138e-02 -3.01288280e-01  -1.12363129e+00  -3.70548870e-01
C     1.231766810400000e+00   7.528172666190176e-01   3.492787200000000e+00 -1.86273214e+00   5.82080410e-01   8.39620700e-02
C     2.445399059500000e+00   1.446638082881191e+00   3.487708800000000e+00  1.48937369e+00   1.46197037e+00   4.49439020e-01
C     7.389820788500000e+00   8.480539008007467e+00  -6.464910000000046e-02  1.88516344e+00   1.51952183e+00  -3.15663160e-01
C     3.745179755500000e+00   6.805605868877816e-01  -1.697489999999995e-01 -1.37190401e+00  -1.21027736e+00   6.05856770e-01
C     3.690499104200000e+00   7.560552593930336e-01   3.591004800000000e+00  3.87253100e-02  -3.75058700e-01  -2.10106120e-01
C     4.908951710099999e+00   1.488434831378695e+00   3.551762400000000e+00 -2.86515640e-01   1.22705520e+00   2.63680160e-01
C     9.906616403799999e+00   8.481454304540817e+00  -1.733744999999978e-01 -9.90170360e-01   9.65709180e-01   1.72809810e-01
C     6.221128545999999e+00   6.709307178189616e-01  -1.081788000000010e-01 -1.81015763e+00  -1.45306013e+00  -8.18770980e-01
C     6.150836507399999e+00   8.092686649022977e-01   3.584903700000000e+00 -1.26843131e+00  -1.41915673e+00  -1.58766320e-01
C     7.370171780500000e+00   1.476866692321020e+00   3.546225300000000e+00  1.42510090e-01   3.04167130e-01   5.19930050e-01
C     1.235041774890000e+01   8.532607161431152e+00  -2.221905000000000e-01  1.10462129e+00  -2.78206734e+00   6.27460380e-01
C     8.660316890099999e+00   6.641009610667432e-01  -1.141103999999977e-01 -5.28963450e-01   2.01300590e-01   2.02837370e-01
C     8.569212560700000e+00   7.432072080545112e-01   3.592167300000000e+00  2.39700389e+00   9.48326910e-01  -4.60143780e-01
C     9.829888841799999e+00   1.448690434050059e+00   3.508664400000000e+00 -9.65151600e-02   1.25725944e+00   2.20848440e-01
C     1.215755846600000e+00   2.078370387701608e+00  -1.358688000000008e-01  1.53443063e+00   5.87872050e-01  -7.23699700e-02
C     2.467509024900000e+00   2.801100194724031e+00  -2.388116999999994e-01  4.12403780e-01  -1.24937689e+00   7.97555500e-02
C     2.487001949100000e+00   2.904902626261636e+00   3.507575400000000e+00 -1.35427167e+00  -1.43396428e+00  -1.22517720e-01
C     3.674217039700000e+00   3.645689964136220e+00   3.528864000000000e+00  7.16579750e-01  -8.58657700e-01  -8.50653900e-02
C     3.710440017500000e+00   2.094547116105444e+00  -2.057697000000012e-01  8.69318520e-01  -2.79696140e-01   2.57921740e-01
C     4.990616321999999e+00   2.774246799956632e+00  -1.536287999999999e-01 -2.04856496e+00   3.06938930e-01  -3.40248790e-01
C     4.904452345599999e+00   2.951420166703008e+00   3.537897600000000e+00  9.50060000e-03  -2.23252408e+00   4.60614300e-02
C     6.143219854600000e+00   3.597813013226432e+00   3.572361000000000e+00  1.37780890e-01   2.02277271e+00  -2.51682940e-01
C     6.193106968300000e+00   2.051318033990025e+00  -8.111159999999984e-02 -6.28242710e-01   1.15746424e+00   5.32537600e-02
C     7.394073061399999e+00   2.755252795825130e+00  -6.196769999999674e-02  6.40894930e-01   1.60777431e+00  -9.96745800e-02
C     7.365707912000000e+00   2.881649961433443e+00   3.576129000000000e+00  7.92784190e-01   1.18311035e+00  -3.07453570e-01
C     8.607532957700000e+00   3.621149189577119e+00   3.561196200000000e+00 -3.06217400e-01  -7.51744960e-01  -1.17177710e-01
C     8.598673846299999e+00   2.081879835618783e+00  -6.761849999999825e-02  2.90161251e+00  -6.25255930e-01  -2.14724150e-01
C     9.872479900600000e+00   2.781067078407218e+00  -1.434354000000013e-01 -1.80760924e+00   8.32632040e-01   8.73276500e-02
C     9.832177347799998e+00   2.906378252662685e+00   3.515393400000000e+00  8.69345410e-01  -1.42279274e+00   1.56043210e-01
C     1.111064358320000e+01   3.584419575288552e+00   3.534812700000000e+00 -1.43459177e+00   5.53286190e-01  -2.61407050e-01
C     2.512775644000000e+00   4.191508039693375e+00  -3.381350999999988e-01 -1.58241887e+00   9.74977100e-01   1.55605290e-01
C     3.733365602100000e+00   4.912232374714465e+00  -2.985356999999986e-01  3.23727310e-01  -1.24313350e-01   2.08150270e-01
C     3.673682923500000e+00   5.039200117003052e+00   3.539161500000000e+00 -5.37934450e-01   1.34587652e+00  -4.18106000e-02
C     4.883592529600000e+00   5.765079794211338e+00   3.564398700000000e+00  1.66339015e+00  -1.15685100e+00   9.61340700e-02
C     4.967008376099999e+00   4.191515810192911e+00  -2.167086000000005e-01  4.70041150e-01   6.74998730e-01   5.30962320e-01
C     6.199671706999999e+00   4.922976413870715e+00  -1.033179000000004e-01  2.22485000e-02  -5.50528660e-01  -5.09371580e-01
C     6.133139680799999e+00   5.065610678686959e+00   3.562199400000000e+00  6.94407180e-01  -9.38181200e-01   1.40243410e-01
C     7.382312891500000e+00   5.780373247371123e+00   3.594252300000000e+00 -3.99619900e-01  -5.69644020e-01  -2.14605000e-03
C     7.445939619399999e+00   4.180087113176374e+00  -8.558610000000044e-02 -2.08952098e+00   9.16882940e-01   1.20853610e-01
C     8.628810098199999e+00   4.928654855839915e+00  -1.366745999999992e-01  9.94072860e-01  -6.70312160e-01  -5.31959700e-02
C     8.621649174600000e+00   5.032847861716875e+00   3.572742900000000e+00 -1.45102545e+00   5.73758170e-01   2.47551270e-01
C     9.833661129899999e+00   5.732930163583823e+00   3.589905300000000e+00  1.25563718e+00  -1.98499090e-01   2.74871100e-02
C     9.865694100699999e+00   4.219096301702682e+00  -2.350965000000009e-01  3.12918840e-01  -1.01020413e+00   2.52363640e-01
C     1.110101494810000e+01   4.878297151605477e+00  -3.462335999999979e-01  7.22305210e-01   2.61520148e+00   6.16449000e-02
C     1.107208378540000e+01   5.004112212869369e+00   3.561037800000000e+00  6.62544030e-01   1.11917792e+00  -2.76528840e-01
C     1.231094880980000e+01   5.759386152803483e+00   3.524691300000000e+00 -1.19515190e+00  -4.47823380e-01   5.79253770e-01
C     3.728201821500000e+00   6.337691064512008e+00  -2.224148999999969e-01 -1.78027369e+00   7.98513200e-02  -5.30310790e-01
C     4.910766098000000e+00   7.059693177061325e+00  -1.216161000000007e-01  2.29578033e+00   1.11134860e-01   6.03772900e-02
C     4.945627459100000e+00   7.155261526183170e+00   3.603516000000000e+00 -1.82765907e+00   1.56943067e+00  -3.82422110e-01
C     6.140710188800000e+00   7.888799671110759e+00   3.535822800000000e+00  1.15515408e+00  -3.18460410e-01   5.67365860e-01
C     6.176677447499999e+00   6.346916440654390e+00  -1.293849000000016e-01 -5.35418040e-01   2.09595040e-01   6.58555250e-01
C     7.398239995999999e+00   7.079391649557428e+00  -7.061759999999850e-02 -1.00945700e-01  -1.15353839e+00  -3.12963500e-02
C     7.388860523100000e+00   7.219542855516191e+00   3.625047600000000e+00 -5.68119370e-01  -2.30874702e+00  -2.70638010e-01
C     8.629249607700000e+00   7.848105394256327e+00   3.678425400000000e+00 -3.04936280e-01   2.32290601e+00  -6.87422560e-01
C     8.625969826600000e+00   6.334937148242102e+00  -1.053144000000010e-01 -4.95260710e-01   1.22659595e+00  -4.87265290e-01
C     9.828706775699999e+00   7.071389145105885e+00  -2.189918999999989e-01  2.10686105e+00  -7.60261950e-01  -1.21421170e-01
C     9.838354341999999e+00   7.152637232092352e+00   3.634726800000000e+00  1.02247063e+00   4.15429350e-01  -2.22201400e-02
C     1.106239702560000e+01   7.919327145917387e+00   3.601620600000000e+00  1.58614570e-01  -1.13636699e+00   1.10894400e-01
C     1.109210372660000e+01   6.367958184889101e+00  -3.628511999999979e-01 -1.48942300e-02  -1.40618665e+00   7.96538660e-01
C     1.233871772500000e+01   7.067437547226056e+00  -2.924942999999978e-01 -1.43725510e-01   3.94285970e-01   6.47775000e-03
C     1.228811033830000e+01   7.184816407696127e+00   3.594283800000000e+00  1.06851177e+00   1.54852160e-01  -1.29419300e-01
C     1.356418438980000e+01   7.890539409105954e+00   3.625578300000000e+00 -1.39799751e+00  -1.42656067e+00  -3.21915990e-01
