64
Lattice="9.86 0 0 4.93 8.53901048131456 0 0 0 30 " PBC="1 1 1" Properties=species:S:1:pos:R:3:force:R:3 Energy="-515.24076628"
C     4.967337305699999e+00   8.380523286057322e+00  -1.523838000000026e-01 -1.56631686e+00  -8.82066340e-01   2.09132000e-01
C     1.232055560500000e+00   5.454751488962777e-01  -1.511217000000009e-01  1.17923953e+00   3.74496720e-01   2.72908070e-01
C     1.231690691200000e+00   9.005329257916993e-01   3.469820700000000e+00 -2.08960208e+00  -1.33918781e+00  -3.03372060e-01
C     2.438791084700000e+00   1.563758979844662e+00   3.542175600000000e+00  1.74486559e+00   1.37431816e+00  -1.57402230e-01
C     7.416654334800000e+00   8.412414697007922e+00  -1.977998999999997e-01 -1.91092730e-01  -8.70950060e-01   6.00162240e-01
C     3.726367417800000e+00   5.785673155005744e-01  -6.760829999999984e-02 -3.20844220e-01  -1.14048282e+00  -8.52982220e-01
C     3.673635940600000e+00   8.622615931609681e-01   3.398933400000000e+00  8.15543260e-01   1.00703572e+00   3.75692460e-01
C     4.916439394099999e+00   1.600616593900324e+00   3.404212500000000e+00 -5.71435720e-01  -2.38337040e-01  -4.20165100e-02
C     9.875204366500000e+00   8.362814403003060e+00  -9.976439999999798e-02  4.84638160e-01   1.37489454e+00   3.48173380e-01
C     6.193384132899999e+00   5.337748259563720e-01  -1.082784000000032e-01  2.44327200e-02   5.21317390e-01   4.80083280e-01
C     6.143651722600000e+00   8.951688901883728e-01   3.348184200000000e+00  2.60899300e-02  -4.52735320e-01   3.71655270e-01
C     7.380171447400000e+00   1.578612161624098e+00   3.366842700000000e+00 -2.49404470e-01   1.24210822e+00  -3.76543170e-01
C     1.236663858280000e+01   8.411509391116832e+00  -4.404720000000140e-02 -1.35343020e-01  -1.09723540e+00  -3.23767260e-01
C     8.670753256399999e+00   6.039814600515696e-01  -1.067682000000012e-01 -5.32205900e-01  -3.11069781e+00  -2.42156610e-01
C     8.611790259199999e+00   8.324087001822592e-01   3.365629200000000e+00 -1.49242900e-01   4.21116000e-01   2.22679560e-01
C     9.821705830600001e+00   1.542521009149120e+00   3.422013300000000e+00  1.06522975e+00   2.74373461e+00   8.65532860e-01
C     1.210796118700000e+00   1.956367823836827e+00   1.751700000000000e-02  8.03822500e-01   4.35655190e-01  -4.84584720e-01
C     2.440663843799999e+00   2.666264522789067e+00   8.985750000000001e-02  1.57315977e+00   7.98697490e-01   1.22973010e-01
C     2.464616347400000e+00   2.992670760090211e+00   3.671957100000000e+00  1.53413950e-01  -1.83752530e-01  -1.87446800e-01
C     3.689038394500000e+00   3.743515600678454e+00   3.620070600000000e+00 -4.44410960e-01  -8.36814070e-01   8.81038000e-03
C     3.728545590400000e+00   1.998071924070622e+00  -9.670500000002136e-03 -2.35160435e+00  -1.50837190e+00   3.49079170e-01
C     4.925157754000000e+00   2.649728558214338e+00  -1.857509999999962e-02  3.14442530e+00   1.39969622e+00  -1.37681950e-01
C     4.927343568100000e+00   3.011570920496538e+00   3.476638200000000e+00 -1.07274087e+00   9.18466020e-01   1.92751420e-01
C     6.128533926899999e+00   3.758387653671051e+00   3.419994300000000e+00  3.92937240e-01  -1.15100823e+00  -2.35524880e-01
C     6.227551448600000e+00   1.952187380476133e+00  -9.109709999999893e-02 -3.32380695e+00  -7.05552000e-02  -2.51959690e-01
C     7.406977878699999e+00   2.670135341629756e+00  -1.517900999999995e-01  3.85904530e-01   6.59167310e-01   6.62376100e-02
C     7.338101045900000e+00   3.049014310671129e+00   3.337155600000000e+00  2.50106936e+00  -1.89231482e+00   4.77512670e-01
C     8.634257649599999e+00   3.723810040803653e+00   3.392495100000000e+00 -1.71825740e+00  -4.98577510e-01   3.98573160e-01
C     8.621623489299999e+00   1.968390579812457e+00  -1.724211000000011e-01  1.62745080e+00   1.77652586e+00   6.79794810e-01
C     9.868552662599999e+00   2.685028656758448e+00  -3.577860000000044e-02 -8.48915990e-01  -4.02318190e-01  -3.89897090e-01
C     9.850208034000000e+00   3.034070615380605e+00   3.555680100000000e+00 -7.13869740e-01  -2.92392569e+00  -8.39843570e-01
C     1.108750586070000e+01   3.684117389878526e+00   3.687443100000000e+00  5.17991800e-01   1.45420380e+00  -4.09106900e-01
C     2.495852975300000e+00   4.094939772444321e+00   2.150466000000000e-01  3.12325810e-01   1.33192500e-01  -4.87412150e-01
C     3.796704615200000e+00   4.827621283840555e+00   1.569852000000000e-01 -3.50334927e+00  -1.07513192e+00  -4.91711750e-01
C     3.660063256200000e+00   5.166722468022315e+00   3.628857300000000e+00  8.62535430e-01   3.53595830e-01  -5.33819350e-01
C     4.930814189500000e+00   5.847318406413484e+00   3.420381000000000e+00 -1.68300553e+00  -3.48650880e-01   7.38613140e-01
C     4.977233344000000e+00   4.076216027994510e+00  -3.259799999998592e-03 -2.54555180e-01   3.79205130e-01   1.85275800e-02
C     6.195620873899999e+00   4.786577419897073e+00  -1.589238000000002e-01 -5.76353730e-01   6.34516130e-01   8.28870180e-01
C     6.131900821100000e+00   5.161825430902140e+00   3.399977100000000e+00  1.24732832e+00   2.17048500e-02  -6.83472420e-01
C     7.371161182200000e+00   5.871025346599213e+00   3.257936100000000e+00  1.25765730e-01  -5.73408860e-01   8.57767340e-01
C     7.407519932200000e+00   4.097051896686549e+00  -1.443063000000002e-01  5.43066760e-01  -5.95974820e-01  -2.24684270e-01
C     8.628637301700000e+00   4.793570015579144e+00  -8.802599999999927e-02  4.08201690e-01   1.62531094e+00  -2.15810560e-01
C     8.609949890199999e+00   5.118517875280410e+00   3.383071500000000e+00 -7.17169820e-01   1.64342681e+00  -6.55162720e-01
C     9.815323748399999e+00   5.829320819414892e+00   3.429847800000000e+00  2.49924866e+00   2.85263870e-01   6.62897980e-01
C     9.864293783499999e+00   4.090936513551087e+00  -1.082400000000305e-02  6.97854470e-01   5.52908090e-01   6.63349930e-01
C     1.110816911760000e+01   4.797253488529902e+00   1.699290000000000e-01 -8.99489300e-02   8.08814040e-01  -2.28491860e-01
C     1.110973320940000e+01   5.121029539822997e+00   3.618743700000000e+00 -2.22102952e+00   9.46952900e-01  -4.45789800e-02
C     1.228615574120000e+01   5.910459692457320e+00   3.656869800000000e+00  6.02702640e-01  -1.45815755e+00  -5.35930670e-01
C     3.676528075800000e+00   6.240802072029325e+00   2.476200000000000e-02  1.65442599e+00   2.47056700e-02   2.35556150e-01
C     4.916524140799999e+00   6.926264477883151e+00  -1.124961000000013e-01  7.14902380e-01   1.11707181e+00   1.13808170e-01
C     4.934983342600001e+00   7.232067107577312e+00   3.367625100000000e+00 -4.39310120e-01   2.58258788e+00   3.93528490e-01
C     6.140751502200000e+00   8.031834244738304e+00   3.368610900000000e+00  6.93882740e-01  -2.20857826e+00  -5.57770200e-01
C     6.162203411199999e+00   6.209572178220610e+00  -1.246022999999994e-01 -3.19052700e-02   1.01198858e+00  -8.25610060e-01
C     7.386490376300000e+00   6.967559901075374e+00  -2.131433999999999e-01  6.14919910e-01  -2.11646200e-01   5.00777050e-01
C     7.377565301499999e+00   7.293748222829068e+00   3.259570800000000e+00  4.37272290e-01   4.09515390e-01   5.71832290e-01
C     8.648136585600000e+00   8.002510258068726e+00   3.320909400000000e+00 -1.39552235e+00  -1.13490750e+00  -1.01248340e-01
C     8.622727513499999e+00   6.251649774772802e+00  -1.204449000000025e-01  5.84751370e-01  -5.53690720e-01   1.62529020e-01
C     9.892407650799999e+00   6.964553059315051e+00  -2.407649999999961e-02 -1.99694050e+00  -1.15443606e+00  -8.27997200e-02
C     9.858818229699999e+00   7.264133397462542e+00   3.389038200000000e+00 -7.03382100e-02   1.71867580e-01  -1.48628650e-01
C     1.108497741160000e+01   8.010926648358234e+00   3.419042700000000e+00 -1.34093906e+00   2.10289820e-01  -1.32036040e-01
C     1.108512348750000e+01   6.242858692703432e+00   1.519779000000000e-01  1.32706763e+00   6.81956400e-02  -8.45082050e-01
C     1.233055482820000e+01   6.982843278202792e+00   4.633320000000000e-02 -3.89944090e-01  -8.69908620e-01   4.36189930e-01
C     1.228698910840000e+01   7.336785945719630e+00   3.504981300000000e+00  1.03510737e+00  -2.40468527e+00   2.13217520e-01
C     1.355034021030000e+01   7.936914177292100e+00   3.430089900000000e+00  1.68735340e-01   1.63120642e+00  -3.80306560e-01
