64
Lattice="9.86 0 0 4.93 8.53901048131456 0 0 0 30 " PBC="1 1 1" Properties=species:S:1:pos:R:3:force:R:3 Energy="-515.46820904"
C     9.883744802699999e+00   2.218213762332568e-01  -4.845450000000184e-02 -1.65587422e+00   1.03642812e+00   3.00446500e-02
C     1.226117424800000e+00   9.480094825000800e-01   4.739400000000000e-03  8.06991120e-01   2.65913550e-01  -1.28447730e-01
C     1.252938153100000e+00   4.595392305463960e-01   3.316514400000000e+00 -6.83262260e-01  -3.62684920e-01  -4.51048040e-01
C     2.454811957800000e+00   1.193722583105853e+00   3.368019600000000e+00  6.11290200e-01  -7.91886840e-01   5.57320320e-01
C     2.468930491800000e+00   2.280091701775888e-01  -8.777999999999864e-02 -8.70604000e-02   7.92485170e-01  -1.73163610e-01
C     3.696158349800000e+00   9.322278541111536e-01  -6.949769999999944e-02 -3.79465320e-01   1.49630470e+00   7.86902880e-01
C     3.675089846899999e+00   4.848036008535720e-01   3.406836900000000e+00  1.23566587e+00  -9.65790170e-01  -1.29188000e-01
C     4.932120343699999e+00   1.176404701341470e+00   3.411742500000000e+00 -3.84324160e-01   3.82266660e-01   1.39392060e-01
C     4.933768886400000e+00   2.806969142017040e-01  -8.973479999999867e-02 -1.22095750e-01  -1.88247969e+00  -5.85552890e-01
C     6.176359363900000e+00   9.829030387552375e-01  -1.436621999999979e-01 -1.00315437e+00  -1.32145052e+00   5.98604370e-01
C     6.173220777999999e+00   4.618170115919360e-01   3.406782900000000e+00 -9.21615940e-01   4.53819110e-01  -3.67403420e-01
C     7.370292121799999e+00   1.195051423916750e+00   3.305025900000000e+00  2.10760833e+00  -1.19779095e+00  -4.28663600e-02
C     7.354940989199999e+00   2.243911914372128e-01  -6.504809999999850e-02  2.10148423e+00   2.95268770e-01   2.34728770e-01
C     8.625327792699998e+00   9.347401163844744e-01  -2.900879999999972e-02 -2.69056850e-01   4.35002310e-01  -2.72531980e-01
C     8.649878798300000e+00   4.933528581461480e-01   3.261495900000000e+00 -6.64283550e-01  -1.51051240e-01   5.09611010e-01
C     9.900562068000001e+00   1.190929814338264e+00   3.322806300000000e+00 -1.54012337e+00  -3.36935410e-01  -4.76088250e-01
C     1.109446889410000e+01   2.388687506846441e+00   1.408224000000000e-01  3.24965900e-02  -1.15746423e+00   1.79966230e-01
C     2.458014485800000e+00   3.071328025906941e+00   2.986008000000000e-01  4.57170980e-01   2.40551530e-01  -8.33988570e-01
C     2.466505375500000e+00   2.589385847465217e+00   3.528125700000000e+00 -1.10683863e+00   8.57239630e-01  -2.69609950e-01
C     3.681998650300000e+00   3.305362578049532e+00   3.580810200000000e+00  1.40985171e+00   3.22284240e-01  -7.97892280e-01
C     3.672166406200000e+00   2.346939857659196e+00   1.361808000000000e-01  1.19177011e+00   6.85456440e-01  -1.28358590e-01
C     4.933027710200000e+00   3.082141145657975e+00   7.458270000000000e-02 -1.00395933e+00  -6.88049310e-01  -5.55317090e-01
C     4.940366951900000e+00   2.619785920235484e+00   3.425994900000000e+00 -6.11088420e-01  -1.71653942e+00   8.12511700e-02
C     6.186603903900000e+00   3.259380518955361e+00   3.297895500000000e+00 -1.50972135e+00   3.38388639e+00   6.89760450e-01
C     6.167878728600000e+00   2.377614886566920e+00  -1.238244000000002e-01 -3.57221750e-01   9.14453050e-01   5.89403110e-01
C     7.387648630499999e+00   3.078906824658465e+00  -9.962940000000131e-02  7.47597640e-01   1.47791308e+00  -4.11584890e-01
C     7.398827602700000e+00   2.589621694934674e+00   3.271122300000000e+00  5.99741300e-01   6.17158460e-01  -1.47870100e-01
C     8.637984384499999e+00   3.323164536318027e+00   3.291136800000000e+00 -5.52906810e-01   2.58580400e-01   5.71252450e-01
C     8.624107420500000e+00   2.385489476641471e+00  -4.104000000000241e-02  8.46967120e-01  -6.88966850e-01   1.75732300e-01
C     9.894888673299999e+00   3.112339783171018e+00   8.891550000000001e-02 -2.15559104e+00  -8.13075510e-01   4.51327100e-02
C     9.837323972000000e+00   2.613064267355942e+00   3.358597500000000e+00  1.70579180e+00  -5.02401840e-01   1.85799870e-01
C     1.107348696200000e+01   3.302474257754672e+00   3.500733300000000e+00  5.58718690e-01   1.11584765e+00   5.90058440e-01
C     1.232038448470000e+01   4.507467907743600e+00   3.076743000000000e-01 -1.07339883e+00  -3.63382840e-01  -1.60163380e-01
C     3.652102785199999e+00   5.208911840221689e+00   1.918806000000000e-01  2.44292583e+00   8.05908190e-01  -3.38136720e-01
C     3.711750855200000e+00   4.725915350156000e+00   3.546884400000000e+00 -4.91686800e-01   6.33819430e-01   3.91755930e-01
C     4.932499460699999e+00   5.473436637085217e+00   3.434376600000000e+00 -3.96967400e-02  -2.28490122e+00  -1.17357860e-01
C     4.888987625800000e+00   4.488773195929422e+00   6.283470000000001e-02  1.73571825e+00   1.41535665e+00  -2.82388170e-01
C     6.171977185499999e+00   5.248109399319187e+00  -1.474677000000000e-01 -1.74909199e+00  -8.51753440e-01   2.03880180e-01
C     6.154463459100000e+00   4.734440612829127e+00   3.337691700000000e+00  7.33489870e-01  -6.65014760e-01  -2.85439400e-02
C     7.391672052800000e+00   5.447135716295874e+00   3.333364500000000e+00  8.54556930e-01  -9.24415380e-01  -3.52283400e-02
C     7.403028702200000e+00   4.542768091677816e+00  -1.857228000000006e-01 -9.57903550e-01  -1.55940779e+00   6.10235120e-01
C     8.614060918600000e+00   5.236661404138965e+00  -1.283949000000000e-01  1.71767932e+00  -1.19069667e+00   3.81414020e-01
C     8.671917032200000e+00   4.747808519125671e+00   3.403092300000000e+00 -2.16205113e+00  -2.96790350e-01  -2.04682420e-01
C     9.865210812799999e+00   5.477330340473991e+00   3.565884600000000e+00  4.16634210e-01  -1.30196245e+00  -4.24024620e-01
C     9.860117235400001e+00   4.520180188815491e+00   1.439091000000000e-01 -2.20494100e-01   7.38357450e-01  -1.09231470e+00
C     1.109772363080000e+01   5.232579927909734e+00   2.010309000000000e-01 -8.12669360e-01   7.23896300e-02  -3.23538730e-01
C     1.108601739510000e+01   4.745228627889350e+00   3.645229500000000e+00  8.27012790e-01  -5.65358860e-01  -6.54891840e-01
C     1.234769594520000e+01   5.445028800850038e+00   3.624837300000000e+00 -9.10836690e-01   5.71861070e-01  -3.47518100e-02
C     1.357032825440000e+01   6.646728356766097e+00   9.011130000000001e-02 -1.68805408e+00  -5.84597530e-01  -1.38896050e-01
C     4.921526611799999e+00   7.353442481122338e+00  -9.578730000000135e-02  3.65221800e-01  -2.00964910e-01   4.16837780e-01
C     4.922132065100000e+00   6.861077586488726e+00   3.366775200000000e+00  1.32965100e-01   1.57262527e+00  -7.53752070e-01
C     6.160656525099999e+00   7.553241749327674e+00   3.224862900000000e+00  3.63707080e-01   1.01892682e+00   1.08818447e+00
C     6.154486975199999e+00   6.670007236356464e+00  -2.013480000000030e-01  1.07587959e+00  -5.98010260e-01   2.41097050e-01
C     7.429037706000000e+00   7.379750660070589e+00  -2.268168000000017e-01 -1.68857284e+00  -1.54443224e+00  -7.72808700e-02
C     7.404090279100000e+00   6.851973635075368e+00   3.300833100000000e+00 -4.20011960e-01   6.77163200e-01   1.94796400e-01
C     8.626380692800000e+00   7.578556755966996e+00   3.411782700000000e+00 -9.58248000e-02   5.41963900e-01  -4.24545810e-01
C     8.647768856899999e+00   6.624845349218897e+00  -2.339681999999996e-01 -1.01853081e+00   1.72904772e+00   7.53312080e-01
C     9.829139087399998e+00   7.365192501103237e+00  -9.723689999999863e-02  2.19213016e+00   6.05486220e-01  -3.00128530e-01
C     9.862040822799999e+00   6.869221326173607e+00   3.484787700000000e+00 -7.95081900e-02   1.36969431e+00   3.08834750e-01
C     1.109989411260000e+01   7.584958622904063e+00   3.470856300000000e+00 -6.23779110e-01   1.39263000e-02   3.92438480e-01
C     1.108915356530000e+01   6.659313065021417e+00   3.341400000000000e-03 -1.41403081e+00  -1.25838269e+00   9.88742830e-01
C     1.229059653730000e+01   7.330601738159700e+00   8.093670000000000e-02  1.89024565e+00   1.67681028e+00  -8.47491640e-01
C     1.231272533530000e+01   6.895247632385913e+00   3.549460800000000e+00  1.72343336e+00  -7.25272610e-01  -9.09137980e-01
C     1.356087216930000e+01   7.617598051172710e+00   3.334501800000000e+00 -4.84772740e-01  -1.01321690e+00   9.73470790e-01
