64
Lattice="9.86 0 0 4.93 8.53901048131456 0 0 0 30 " PBC="1 1 1" Properties=species:S:1:pos:R:3:force:R:3 Energy="-515.28652056"
C     9.827312177300000e+00   5.425138200618136e-01  -1.992872999999982e-01 -5.11283430e-01   7.46127700e-02   1.50265950e-01
C     1.196317694700000e+00   1.231398319755604e+00  -8.403720000000092e-02  2.10579140e-01  -2.23836600e-02  -6.19712090e-01
C     1.239725703800000e+00   1.546389180896560e-01   3.182644200000000e+00  8.63321390e-01   2.02921485e+00   7.95346020e-01
C     2.482915077700000e+00   9.308550373962839e-01   3.332533200000000e+00  1.50005430e-01  -2.51095873e+00  -5.70547840e-01
C     2.422685957900000e+00   5.210498217588664e-01  -1.109684999999985e-01  1.19185196e+00   6.28619270e-01   3.94832880e-01
C     3.679382644400000e+00   1.240907788776656e+00  -3.153480000000286e-02 -6.47145720e-01   3.77919450e-01   3.40880020e-01
C     3.720004759800000e+00   1.460816341272288e-01   3.282819000000000e+00 -9.11244100e-02   1.70103166e+00   3.44882370e-01
C     4.961644388200000e+00   8.860982409158881e-01   3.364433700000000e+00 -2.13106300e-01  -1.15485848e+00  -4.30655110e-01
C     4.924732442899999e+00   5.269504487807560e-01  -2.731079999999864e-02 -1.36863546e+00   8.65295820e-01  -3.21105100e-02
C     6.117330847000000e+00   1.247731482831434e+00  -4.314180000000079e-02  1.39453337e+00  -4.06689800e-02  -6.25620960e-01
C     6.226399997799999e+00   1.888171614369040e-01   3.295026600000000e+00 -1.92153791e+00  -8.41150680e-01   1.23996167e+00
C     7.435418703600000e+00   8.947752418052448e-01   3.299822700000000e+00 -2.65249390e-01  -3.93384540e-01   5.57556010e-01
C     7.366672959499999e+00   5.800060533763496e-01  -1.284237000000026e-01 -3.21665080e-01  -1.82129839e+00   4.31454030e-01
C     8.590886122499999e+00   1.257945078656666e+00  -1.939133999999996e-01  4.43994470e-01   2.49461500e-02   1.21903250e-01
C     8.638101866400000e+00   1.812555260964448e-01   3.331458600000000e+00  1.55270736e+00  -5.12775950e-01  -2.73475640e-01
C     9.882256534299998e+00   8.754860440814488e-01   3.289248600000000e+00  3.89668010e-01   1.14945320e+00   3.16767170e-01
C     1.107269969030000e+01   2.632438684404329e+00   2.274090000000000e-02 -5.59607040e-01   1.29955234e+00   9.78679240e-01
C     2.433318045200000e+00   3.345389445844846e+00   2.393163000000000e-01 -1.80036010e-01   1.44335365e+00  -1.28194359e+00
C     2.515916793500000e+00   2.338850938421598e+00   3.529706700000000e+00 -1.85318805e+00  -9.79121370e-01   2.70654380e-01
C     3.715274474100000e+00   3.010152420075601e+00   3.595439700000000e+00  1.69683489e+00   2.62130730e-01  -3.49506600e-02
C     3.659722445300000e+00   2.685740724842375e+00   1.137747000000000e-01  1.91433696e+00  -1.33413211e+00  -3.69033830e-01
C     4.946979314400000e+00   3.398151650040347e+00   2.310480000000000e-02 -2.58735668e+00  -5.15414940e-01   2.94911650e-01
C     4.932831299000000e+00   2.284797721231626e+00   3.464563200000000e+00  9.66020910e-01   8.44703830e-01  -1.42116100e-02
C     6.184375888999999e+00   3.003247861591578e+00   3.421589100000000e+00 -2.65517120e-01   6.94749300e-02  -2.56965200e-02
C     6.146997023399999e+00   2.643829126653915e+00  -9.049289999999743e-02 -8.42999260e-01   1.70442791e+00   2.34620610e-01
C     7.353947101199999e+00   3.374034922741683e+00  -1.223318999999989e-01  1.06587599e+00   3.39902670e-01   2.03488270e-01
C     7.425837642999999e+00   2.293711423491488e+00   3.395164800000000e+00 -3.05975460e-01   1.08679428e+00  -9.97614290e-01
C     8.647593299600000e+00   3.025276800827882e+00   3.354811800000000e+00  1.24281698e+00  -1.61280526e+00   1.36720302e+00
C     8.590234376500000e+00   2.662408903387033e+00  -1.420403999999991e-01  6.47833130e-01   8.87596660e-01   4.73434460e-01
C     9.832429418700000e+00   3.362326829302241e+00   3.738329999999999e-02 -5.07157320e-01   2.03816770e-01  -6.55737050e-01
C     9.924226363799999e+00   2.328758254984761e+00   3.452509500000000e+00 -1.11096624e+00  -6.34683780e-01  -4.70426250e-01
C     1.114034495980000e+01   3.057312948006117e+00   3.643986600000000e+00 -7.08931940e-01  -9.99916580e-01  -5.90161360e-01
C     1.229456770160000e+01   4.803306451498756e+00   2.156523000000000e-01 -1.43282331e+00  -3.59341430e-01   6.82389770e-01
C     3.627680896300000e+00   5.542416642324962e+00   1.623402000000000e-01  1.33156343e+00  -6.02467020e-01  -6.52293380e-01
C     3.743012478200000e+00   4.427403669170082e+00   3.665473800000000e+00 -1.42057740e-01  -2.87918880e-01  -5.67393640e-01
C     4.944862865400000e+00   5.119938254283653e+00   3.450309600000000e+00  1.16647463e+00   1.78305525e+00  -3.46783850e-01
C     4.868845124800000e+00   4.817524074728166e+00   2.251680000000000e-02  1.26019322e+00   2.49678320e-01  -1.43963540e-01
C     6.122588692000000e+00   5.523132055666825e+00  -1.315859999999986e-01 -4.29548910e-01   5.90506100e-02   4.63103700e-01
C     6.170335988500000e+00   4.436989306164615e+00   3.355014900000000e+00  1.40212462e+00  -1.03997668e+00   2.46153630e-01
C     7.447182718900000e+00   5.130634304201005e+00   3.288604200000000e+00 -2.14897080e+00   8.98650230e-01   4.11872990e-01
C     7.367504453300000e+00   4.802384665317438e+00  -6.346379999999741e-02 -1.35527130e-01   1.16542376e+00  -1.98085380e-01
C     8.613956501200001e+00   5.568036491638421e+00   4.868580000000000e-02 -1.30684807e+00  -1.78121759e+00  -6.41505450e-01
C     8.652196144800000e+00   4.405581203207184e+00   3.448452900000000e+00  5.16627040e-01   2.14732410e+00  -6.32680570e-01
C     9.882190472300000e+00   5.157115825062001e+00   3.554280600000000e+00  1.14772610e-01  -8.58401300e-02   4.22427500e-01
C     9.797553514099999e+00   4.797782651009348e+00   1.102923000000000e-01  1.28100984e+00   3.61326020e-01   4.35392100e-01
C     1.103645314710000e+01   5.520537989673106e+00   2.242995000000000e-01  9.23976400e-01  -5.13690960e-01  -5.31093860e-01
C     1.111900323630000e+01   4.472376502615622e+00   3.748161900000000e+00  4.01906210e-01  -4.26133080e-01  -9.45315330e-01
C     1.239352335180000e+01   5.125130484996122e+00   3.684497400000000e+00 -1.49014300e+00   2.35651304e+00   1.49938470e-01
C     1.351311151250000e+01   6.966951581968779e+00   4.286640000000000e-02  9.25939750e-01  -2.98336510e-01  -7.64278890e-01
C     4.882143454700000e+00   7.672625142507925e+00  -1.926425999999992e-01  1.40268950e-01  -7.79750680e-01   5.65392380e-01
C     5.005371959900000e+00   6.566169880265996e+00   3.296949300000000e+00 -3.09891731e+00  -8.45073010e-01   7.14845630e-01
C     6.172138643000000e+00   7.282091534232715e+00   3.136994100000000e+00  1.30806226e+00   5.81923900e-02   4.33090160e-01
C     6.107574968600000e+00   6.955187472620588e+00  -2.160024000000007e-01  1.20721257e+00  -5.96338780e-01   6.97603050e-01
C     7.372933073500000e+00   7.649258140329406e+00  -1.279208999999994e-01 -7.18790980e-01   2.51110070e-01  -3.95460450e-01
C     7.385754376600000e+00   6.577876265903343e+00   3.216818400000000e+00  2.34617044e+00  -1.32996409e+00  -1.94547560e-01
C     8.653016201000000e+00   7.263223565895897e+00   3.254000100000000e+00 -1.02057805e+00   6.75233050e-01   4.38094170e-01
C     8.625813989299999e+00   6.990911362254820e+00  -1.074990000000042e-02 -8.77063760e-01  -1.42720610e+00  -4.77008400e-02
C     9.852602633600000e+00   7.669293306008734e+00   1.768590000000000e-02  4.95317020e-01  -5.30560360e-01   2.98638810e-01
C     9.876472461100001e+00   6.582464020063932e+00   3.467374200000000e+00  1.59224350e-01  -4.52868220e-01  -1.15326060e-01
C     1.110726342730000e+01   7.303109540018292e+00   3.515675100000000e+00  1.65085937e+00  -2.43400570e-01  -1.08217312e+00
C     1.107885070340000e+01   6.939313110577848e+00   1.415454000000000e-01 -3.64802000e-03   7.41539630e-01  -5.11031860e-01
C     1.232478071360000e+01   7.682845227981123e+00   1.045830000000000e-02 -1.93235442e+00  -3.31196000e-03   3.71241940e-01
C     1.238310813520000e+01   6.578934932422652e+00   3.542447700000000e+00 -5.46361440e-01  -3.77555410e-01   4.52110430e-01
C     1.362309010040000e+01   7.294155960579488e+00   3.422373600000000e+00 -7.75934120e-01  -3.66966450e-01  -5.75213770e-01
