64
Lattice="9.86 0 0 4.93 8.53901048131456 0 0 0 30 " PBC="1 1 1" Properties=species:S:1:pos:R:3:force:R:3 Energy="-515.13241533"
C     9.848493823700000e+00   6.360802835667280e-02  -2.020944000000000e-01 -2.19275301e+00  -4.06845520e-01  -1.25185890e-01
C     1.190970074400000e+00   7.424206797991983e-01  -2.383556999999996e-01  1.18884033e+00   1.71266246e+00   1.25245461e+00
C     1.250839747900000e+00   6.585577770235465e-01   3.478131000000000e+00  4.82255990e-01  -4.06148180e-01   1.07311150e-01
C     2.485911581000000e+00   1.375537755949157e+00   3.648735900000000e+00  8.14462400e-02  -1.47682432e+00  -7.12803010e-01
C     2.423555609900000e+00   3.268144020020880e-02  -2.134433999999992e-01  9.77157130e-01   1.23679080e+00  -6.48132980e-01
C     3.669405310400000e+00   7.701229375984143e-01  -1.994298000000008e-01 -6.81899520e-01   6.01366890e-01   7.77029000e-03
C     3.714406005300000e+00   6.362876961312872e-01   3.522938100000000e+00  7.09452330e-01   8.29565100e-01  -9.80425400e-02
C     4.979144261299999e+00   1.363266258598244e+00   3.504259800000000e+00 -7.85261320e-01  -1.65791315e+00   5.26337900e-02
C     4.901047391800000e+00   7.912195876705121e-02  -2.585322000000012e-01 -1.24440700e-02  -8.39828810e-01   7.60146430e-01
C     6.131688781800000e+00   7.799655134182911e-01  -2.262437999999989e-01 -3.36011190e-01  -7.50364600e-02   3.36620570e-01
C     6.242997582300000e+00   6.678492451070440e-01   3.436430400000000e+00 -2.63788479e+00  -1.10270201e+00   4.14895200e-02
C     7.415044394000000e+00   1.405266662495696e+00   3.409845000000000e+00  2.06016160e+00  -2.46298465e+00  -1.02768400e-02
C     7.335778227100000e+00   7.248637911314799e-02  -1.179065999999978e-01  1.79263300e+00   6.59856490e-01  -9.59928840e-01
C     8.591140066800000e+00   7.984833823254288e-01  -2.081553000000014e-01  1.43186180e-01  -1.67756801e+00   5.01424140e-01
C     8.678073961300001e+00   6.541308124302951e-01   3.454865400000000e+00 -1.63443351e+00  -4.21231490e-01  -6.92514890e-01
C     9.874074952799999e+00   1.361245843328571e+00   3.461622300000000e+00  1.44541486e+00   4.36899320e-01   6.24414030e-01
C     1.106644430910000e+01   2.190409292577907e+00  -3.646230000000017e-02 -1.62696780e-01  -6.65745620e-01  -7.62781620e-01
C     2.420977170600000e+00   2.914122110486787e+00   2.007150000000000e-02  5.74813440e-01  -5.39822510e-01   4.33648620e-01
C     2.506988464900000e+00   2.773046983594087e+00   3.804813300000000e+00 -1.04987816e+00   1.19914053e+00  -4.21117580e-01
C     3.720882842099999e+00   3.492545372880564e+00   3.745346100000000e+00  9.29730540e-01  -7.55843840e-01   3.49412420e-01
C     3.679234152800000e+00   2.217994992884071e+00  -7.627049999999969e-02 -1.48787406e+00  -1.58054302e+00  -8.34266600e-02
C     4.885579615399999e+00   2.905506590472886e+00  -8.515590000000017e-02  1.26890874e+00  -4.44662870e-01  -1.48106030e-01
C     4.940065038700000e+00   2.746910267976274e+00   3.572905200000000e+00  9.11131770e-01   1.98812671e+00  -3.54987850e-01
C     6.181539906499999e+00   3.469496192672110e+00   3.415437000000000e+00 -5.56865700e-01   1.55273617e+00   1.46086240e-01
C     6.154231650500000e+00   2.183931940788197e+00  -2.194896000000028e-01 -1.92167784e+00   1.04501747e+00   4.23027100e-01
C     7.343792928099999e+00   2.898535940047748e+00  -2.053020000000032e-01  1.81391918e+00   1.20539545e+00  -1.51800660e-01
C     7.409304641499999e+00   2.785056931053997e+00   3.346533000000000e+00  9.24731420e-01   1.16245965e+00   7.63541580e-01
C     8.678612514499999e+00   3.476275825432810e+00   3.480162900000000e+00 -9.72797800e-01   9.46721350e-01  -5.50052630e-01
C     8.588881091499999e+00   2.187600641250825e+00  -2.068727999999993e-01  3.53372830e-01   1.25369045e+00   4.38136520e-01
C     9.843813774699999e+00   2.917303489621321e+00  -6.270359999999897e-02 -1.10840483e+00  -1.90419533e+00  -4.27014960e-01
C     9.896027059600000e+00   2.791909913914722e+00   3.588731700000000e+00  7.34208820e-01  -1.95728900e-02  -7.22601900e-02
C     1.113627657590000e+01   3.524652052285364e+00   3.769338300000000e+00 -4.82332530e-01  -4.75289490e-01  -3.37859150e-01
C     1.225906672230000e+01   4.328822244810263e+00   1.529478000000000e-01  1.65168717e+00  -8.55649900e-02  -7.96761880e-01
C     3.646354060100000e+00   5.043506681548535e+00   6.132180000000000e-02  1.50412700e-02  -1.56423100e-01  -3.95724340e-01
C     3.749507999700000e+00   4.901469293564844e+00   3.814101600000000e+00 -1.40750620e-01   4.12146360e-01  -9.19397990e-01
C     4.968422546599999e+00   5.613251747591488e+00   3.520668300000000e+00 -6.39101180e-01   3.95458200e-01   2.78425380e-01
C     4.859706679600000e+00   4.301383927824984e+00  -1.425479999999979e-02  2.23031307e+00   1.97037873e+00  -8.54131330e-01
C     6.159262518299999e+00   5.041294053152958e+00  -2.227397999999994e-01 -2.60790829e+00   2.03069300e-01   6.68301460e-01
C     6.184448409300000e+00   4.940551832191175e+00   3.393837900000000e+00  6.91118460e-01  -2.31457088e+00   3.85745240e-01
C     7.424654886699999e+00   5.640318105280258e+00   3.384724200000000e+00  4.58753560e-01  -1.19721059e+00  -4.54838570e-01
C     7.389550180800000e+00   4.364396018640258e+00  -2.257928999999983e-01 -1.24374647e+00  -1.77086056e+00  -9.48456500e-02
C     8.599820810799999e+00   5.060713043836049e+00  -2.203923000000003e-01  9.86005680e-01  -5.59996120e-01   3.61648390e-01
C     8.691529410299999e+00   4.899469798870848e+00   3.451725600000000e+00 -1.52455694e+00   7.42105030e-01   4.82848240e-01
C     9.875256279399999e+00   5.648886063005786e+00   3.621596400000000e+00  1.21455564e+00  -6.24953530e-01  -2.56485980e-01
C     9.812888574900001e+00   4.294289290967676e+00  -5.156159999999943e-02  9.39977400e-01   2.89574701e+00  -1.05155640e-01
C     1.107281416490000e+01   5.037119843269914e+00   5.496480000000000e-02 -2.25201540e+00  -4.67038400e-02   2.41149830e-01
C     1.115400155280000e+01   4.979007863618589e+00   3.758958600000000e+00 -2.15056185e+00  -2.65738780e+00   4.91491740e-01
C     1.236777805370000e+01   5.604405759684732e+00   3.873195900000000e+00  1.37765696e+00   3.15236535e+00  -1.28443389e+00
C     1.351657114000000e+01   6.463181131037031e+00  -1.279149000000004e-01  1.40726300e-02   3.64368630e-01   1.27204740e+00
C     4.894564836199999e+00   7.171666416947032e+00  -1.581110999999993e-01 -3.91051720e-01   4.33039850e-01  -8.50149730e-01
C     4.980900573800001e+00   7.028859493338883e+00   3.406426200000000e+00 -9.99299580e-01   3.28614910e-01   4.62477410e-01
C     6.195565017000000e+00   7.754503920808445e+00   3.366908100000000e+00 -7.19399560e-01   1.03138757e+00  -1.57961300e-02
C     6.103892455799999e+00   6.476697189165403e+00  -2.751774000000005e-01  1.89068971e+00  -1.15545555e+00   3.44853870e-01
C     7.382076350099999e+00   7.171737376124121e+00  -3.137307000000007e-01 -1.55357523e+00  -5.82236700e-02   2.93360440e-01
C     7.394010351800000e+00   7.044748371699438e+00   3.344586300000000e+00  2.10684421e+00   4.48581430e-01   3.07851410e-01
C     8.651256240300000e+00   7.766529153097115e+00   3.392563200000000e+00 -8.35596050e-01  -2.13433040e-01   7.94725470e-01
C     8.603538129399999e+00   6.483361886845043e+00  -2.695556999999980e-01  6.97044310e-01  -6.58388550e-01   4.33974860e-01
C     9.843566485900000e+00   7.182431632849273e+00  -1.525298999999976e-01 -4.19386290e-01   1.68880060e-01  -2.97936940e-01
C     9.864762626499999e+00   7.051289509897433e+00   3.563023500000000e+00  6.99820420e-01   8.77644310e-01  -8.18607620e-01
C     1.112106757520000e+01   7.754681361446219e+00   3.511160100000000e+00  5.92816490e-01   9.28889200e-01   6.50928110e-01
C     1.105389987480000e+01   6.455728453470296e+00   2.336700000000000e-02  8.20445330e-01   1.17699571e+00  -8.88531880e-01
C     1.230222655520000e+01   7.217918650332790e+00  -7.173359999999818e-02 -9.60081730e-01  -2.32490785e+00   3.69900590e-01
C     1.236791348080000e+01   7.080194487322757e+00   3.641631300000000e+00 -2.94617590e-01  -2.15755329e+00   4.68532800e-02
C     1.360390175160000e+01   7.738895292771844e+00   3.462036000000000e+00 -4.91150700e-02   1.56281006e+00   4.96794500e-01
