64
Lattice="9.86 0 0 4.93 8.53901048131456 0 0 0 30 " PBC="1 1 1" Properties=species:S:1:pos:R:3:force:R:3 Energy="-515.56665222"
C     4.926940491300000e+00   8.373368619956340e+00  -6.436259999999905e-02  8.40173250e-01  -6.02643800e-01   3.00362800e-02
C     1.245191299000000e+00   5.484423696479728e-01  -4.782509999999718e-02 -5.46795060e-01  -8.93308860e-01  -4.86407280e-01
C     1.202466637200000e+00   8.383450202679552e-01   3.433235700000000e+00  1.45897253e+00   1.97607787e+00   4.41823490e-01
C     2.460136160600000e+00   1.616114812531419e+00   3.523686900000000e+00 -6.61545640e-01  -2.20769538e+00  -8.37838570e-01
C     7.380452999699999e+00   8.341401980323411e+00  -8.205510000000160e-02  1.75265310e+00   1.28641512e+00   1.11837910e-01
C     3.712535809800000e+00   5.343524900153440e-01  -7.067280000000054e-02 -8.89504230e-01   1.26517570e-01   2.83266990e-01
C     3.702682662500000e+00   8.945078853871160e-01   3.397066200000000e+00 -1.09684367e+00  -9.42307870e-01   3.19224130e-01
C     4.918976963700000e+00   1.592098418605895e+00   3.409149600000000e+00  2.14215390e-01   8.08719490e-01  -2.40213330e-01
C     9.892561861200001e+00   8.389187734601274e+00  -5.366460000000117e-02 -1.45135549e+00  -1.14152799e+00  -3.41493480e-01
C     6.170993798400001e+00   5.538489295234896e-01  -8.704860000000281e-02  4.58639470e-01  -2.35791700e-01   6.07079920e-01
C     6.167645539600000e+00   8.912465811144896e-01   3.374036700000000e+00 -1.19184384e+00   2.88393930e-01   5.21562400e-01
C     7.388668400999999e+00   1.614570276315797e+00   3.387560400000000e+00  3.10815840e-01  -2.36008103e+00  -5.41652830e-01
C     1.233121441290000e+01   8.376392795907938e+00  -2.399129999999872e-02  5.15049690e-01   2.57896050e-01  -4.07967660e-01
C     8.648655911800001e+00   5.256058108004704e-01  -3.064590000000322e-02 -7.38781460e-01   1.83285228e+00  -2.10417660e-01
C     8.602065144000001e+00   8.936778081783552e-01   3.314773800000000e+00  1.00504329e+00  -7.02754600e-02   1.34030618e+00
C     9.852503984300000e+00   1.604728810567282e+00   3.458234700000000e+00 -5.67352010e-01  -1.92191271e+00  -8.86957820e-01
C     1.255600698200000e+00   1.958963426852432e+00  -6.532649999999762e-02 -5.99984820e-01   2.52561000e-01   1.13705056e+00
C     2.463575082100000e+00   2.663057868183513e+00   7.998660000000000e-02  4.94983160e-01   7.43992580e-01  -7.50424120e-01
C     2.456923821900000e+00   3.017698002076358e+00   3.560854800000000e+00 -4.55741810e-01   6.90437550e-01   1.07049520e-01
C     3.685517733600000e+00   3.726652335832025e+00   3.558841800000000e+00 -2.87399480e-01   4.46518540e-01  -3.02838780e-01
C     3.671136578500000e+00   1.950793557795482e+00   2.240310000000000e-02  2.49944572e+00   3.71615320e-01  -4.04627120e-01
C     4.985680800400000e+00   2.680458236789133e+00  -2.680829999999901e-02 -3.62903237e+00  -5.40733980e-01   6.40825830e-01
C     4.880105589899999e+00   3.042313749147473e+00   3.432936900000000e+00  2.34470526e+00  -1.68415102e+00   3.67910300e-02
C     6.155337498800000e+00   3.708687624023783e+00   3.358800000000000e+00 -2.26903460e-01   8.18281720e-01   6.73582000e-01
C     6.161113289599999e+00   1.967021007921570e+00  -6.860370000000060e-02  2.04551239e+00   2.04843660e-01  -1.66007260e-01
C     7.418152463199999e+00   2.691028677862325e+00  -8.139059999999887e-02  6.52436000e-02  -8.38188310e-01   2.67021620e-01
C     7.421148227000000e+00   2.983997174805046e+00   3.380336400000000e+00 -2.88461225e+00   2.24210291e+00  -3.59725020e-01
C     8.587010255100001e+00   3.720661451469363e+00   3.375330600000000e+00  2.47218228e+00   5.26934270e-01   8.10498970e-01
C     8.661455818699999e+00   1.992441215170005e+00  -4.269210000000001e-02 -8.80181440e-01  -1.73517379e+00  -1.99730980e-01
C     9.881949986899999e+00   2.676956986322018e+00  -2.671139999999994e-02  1.85947500e-02   3.52402930e-01  -1.43957780e-01
C     9.835850000599999e+00   2.993521928654857e+00   3.478881600000000e+00  9.52926020e-01   2.21144738e+00  -2.91231000e-01
C     1.109307074610000e+01   3.744478288719969e+00   3.523934400000000e+00 -1.65544430e+00  -9.80717100e-01   4.47068110e-01
C     2.490064810200000e+00   4.105863472381071e+00   8.547210000000000e-02 -1.84443668e+00  -1.06852018e+00   4.51424200e-02
C     3.672393038300000e+00   4.791832156166255e+00  -3.734399999999027e-03  2.67518411e+00   7.45405410e-01   8.14807160e-01
C     3.705946322500000e+00   5.146975237776372e+00   3.555474300000000e+00 -2.07314285e+00  -4.43174930e-01   2.35534080e-01
C     4.867579199400000e+00   5.865524516047997e+00   3.455908800000000e+00  3.44422188e+00   4.85960240e-01  -6.64610340e-01
C     4.934109746600000e+00   4.083943832478910e+00   4.334940000000000e-02  6.23640970e-01   9.04021460e-01  -1.15579395e+00
C     6.176941547600000e+00   4.806397231732096e+00  -6.832649999999774e-02 -2.01179610e-01   1.38151330e-01   5.70603970e-01
C     6.154842871900000e+00   5.146201774207094e+00   3.390978600000000e+00 -6.29280970e-01  -2.31789250e-01  -2.97193920e-01
C     7.399741624700000e+00   5.852167198124447e+00   3.320051100000000e+00 -9.58138980e-01   9.13761930e-01   6.95755760e-01
C     7.432650557900001e+00   4.092485319271950e+00  -8.309489999999897e-02 -1.08742024e+00   1.25690404e+00  -2.56703250e-01
C     8.649453240700002e+00   4.840397778271255e+00  -1.025175000000011e-01  2.71269580e-01  -1.79301279e+00   6.17818850e-01
C     8.615043171800000e+00   5.162951982554767e+00   3.416013600000000e+00  4.30596350e-01  -1.02826274e+00  -8.10704770e-01
C     9.872655309999999e+00   5.865841654897224e+00   3.441495600000000e+00 -2.35911532e+00   4.21748020e-01  -8.69501000e-03
C     9.861976486300000e+00   4.098317975770418e+00   1.036800000000000e-02  1.04960477e+00   7.50747200e-01  -1.55861600e-01
C     1.111685420000000e+01   4.820100464970190e+00   1.021911000000000e-01 -1.01690334e+00  -5.08990030e-01  -4.25358810e-01
C     1.104301152610000e+01   5.165876849814481e+00   3.557533500000000e+00  3.01841123e+00  -1.08125461e+00   7.01950000e-04
C     1.232292466720000e+01   5.842290210092336e+00   3.607156500000000e+00 -8.05080560e-01   1.10956545e+00  -7.48034600e-01
C     3.725905821900000e+00   6.220893283705101e+00  -1.182479999999941e-02 -1.56502978e+00   4.00191660e-01  -3.97342230e-01
C     4.932276526100000e+00   6.934722282373486e+00  -9.172680000000000e-02  8.09042100e-01   5.89620450e-01   6.43930770e-01
C     4.916216607400000e+00   7.302660473457149e+00   3.337276800000000e+00 -1.11082330e-01  -1.67697471e+00   9.45512980e-01
C     6.161305165199999e+00   7.957593867482458e+00   3.361957800000000e+00 -7.49676150e-01   1.78718962e+00  -1.60088860e-01
C     6.172109950399999e+00   6.242473327160471e+00  -5.310030000000054e-02  8.05527240e-01  -7.52898340e-01  -6.79989110e-01
C     7.435634588299999e+00   6.942291432043167e+00  -9.862260000000234e-02 -1.90107031e+00  -4.06213510e-01   8.59396300e-02
C     7.386355738000000e+00   7.302457074227515e+00   3.344079300000000e+00 -8.96889000e-02  -2.30835191e+00  -3.66045770e-01
C     8.595139332099999e+00   7.972415454923119e+00   3.316723200000000e+00  1.15066986e+00   2.08471219e+00   5.44960200e-01
C     8.664476183200000e+00   6.241130823932805e+00  -9.597420000000056e-02 -1.76965864e+00  -1.36691340e-01   8.99934000e-02
C     9.838642796300000e+00   6.939378434008020e+00  -3.415890000000132e-02  2.84289821e+00   1.41337858e+00   2.63743970e-01
C     9.834471375400000e+00   7.282765945280425e+00   3.373426200000000e+00  1.58084300e-01   2.98149770e-01   4.64901470e-01
C     1.103946261630000e+01   8.021820290978093e+00   3.471968400000000e+00  2.38384912e+00  -1.30998872e+00  -8.31723210e-01
C     1.107772257150000e+01   6.231361427432742e+00   7.617030000000000e-02  1.37204095e+00   8.96734400e-01  -7.49601760e-01
C     1.235011199030000e+01   6.971384865429784e+00  -1.161029999999741e-02 -1.02364758e+00  -1.65160509e+00   6.12517980e-01
C     1.232413872900000e+01   7.265409040238149e+00   3.486383100000000e+00 -6.52922080e-01   1.05034219e+00   3.40039180e-01
C     1.357252106910000e+01   8.011135085604051e+00   3.402462300000000e+00 -1.87146207e+00  -1.61777830e-01  -4.74789190e-01
