32
Lattice="9.86 0 0 4.93 8.53901048131456 0 0 0 30 " PBC="1 1 1" Properties=species:S:1:pos:R:3:force:R:3 Energy="-257.37394891"
C     4.998316045299999e+00   8.413649864873854e+00  -2.433797999999996e-01 -2.41599813e+00  -9.77097880e-01   1.04994150e-01
C     1.265367915600000e+00   5.863576255416879e-01  -2.365080000000006e-01  5.92228400e-01   1.31686180e-01  -4.02746160e-01
C     7.415559233900000e+00   8.415103716798178e+00  -2.584695000000004e-01  1.14944219e+00  -3.84176920e-01   2.71682500e-01
C     3.733144491600000e+00   5.714655912645680e-01  -2.048331000000019e-01 -4.18819920e-01   9.70306970e-01   2.42169690e-01
C     9.897069458799999e+00   8.408817382672908e+00  -1.455870000000026e-01 -9.56789990e-01  -4.46513660e-01  -2.00156820e-01
C     6.178630565600000e+00   5.643450812055056e-01  -1.681100999999998e-01  1.20655760e+00   9.99993370e-01   3.66368300e-02
C     1.234205109520000e+01   8.384367463185313e+00  -1.540418999999993e-01  1.01372775e+00   1.03651370e+00  -1.32011030e-01
C     8.665268729999999e+00   5.700305251632992e-01  -2.407004999999991e-01 -3.28414800e-02   3.33029680e-01   2.96529460e-01
C     1.291841473300000e+00   2.009193387490089e+00  -2.071952999999986e-01 -2.18620081e+00   7.06087000e-03   6.44394600e-01
C     2.470982998700000e+00   2.699267029783324e+00  -7.249049999999713e-02  2.35322049e+00   1.96117268e+00  -1.23124260e-01
C     3.726723708900000e+00   2.020266605500343e+00  -1.272315000000006e-01 -5.89269600e-01  -1.63237885e+00  -2.13588950e-01
C     4.944272941600000e+00   2.704213422384074e+00  -1.528842000000026e-01  8.46981340e-01   1.18654966e+00   2.93107010e-01
C     6.205283969700000e+00   2.011562621337870e+00  -2.016546000000012e-01 -1.49490227e+00  -8.51993300e-01  -1.75165830e-01
C     7.404117492699999e+00   2.724948957702972e+00  -2.722076999999992e-01  1.63140344e+00  -9.99492300e-02   5.98307400e-01
C     8.653748010199999e+00   2.001295058966403e+00  -2.401671000000007e-01  7.71353050e-01   7.82500920e-01  -1.51972120e-01
C     9.923715122800001e+00   2.756751050603950e+00  -1.731948000000010e-01 -1.40971298e+00  -1.70258696e+00  -3.61185970e-01
C     2.500196256000000e+00   4.153195719812339e+00   3.023730000000000e-02 -5.46815300e-01  -8.06613670e-01  -4.22765450e-01
C     3.726925395200000e+00   4.871838158688301e+00  -4.756019999999950e-02 -2.40980260e-01  -1.52730136e+00   6.81048300e-01
C     4.932923440700000e+00   4.142153669190336e+00  -1.033878000000001e-01  2.03571548e+00   8.44821300e-02  -5.52964830e-01
C     6.214216833900000e+00   4.867499914413936e+00  -1.968740999999987e-01 -1.61327066e+00  -5.17946480e-01   1.18898550e-01
C     7.441643420199998e+00   4.154846481318333e+00  -2.304621000000004e-01 -6.68825750e-01  -3.81204120e-01  -2.07638590e-01
C     8.664522968900000e+00   4.855294765174453e+00  -1.985175000000012e-01  2.10594760e-01   7.25780180e-01   4.66641220e-01
C     9.901562660800000e+00   4.170750217557123e+00  -1.046765999999977e-01 -3.11010800e-02  -7.69098830e-01   1.67541400e-02
C     1.112849407790000e+01   4.864822080727409e+00   3.471059999999999e-02  1.60102900e-02  -4.69777100e-02  -3.57035180e-01
C     3.734955675000000e+00   6.265121856997204e+00  -2.334240000000065e-02 -4.82506920e-01   9.17666970e-01  -8.32164890e-01
C     4.939177145700000e+00   6.957089195644587e+00  -2.032730999999970e-01  1.30544487e+00   2.00283624e+00   2.92736370e-01
C     6.178335505100000e+00   6.292856819206557e+00  -2.404466999999997e-01  1.08630308e+00  -1.09301092e+00   1.24019140e-01
C     7.438986544600000e+00   6.986627767647528e+00  -2.559281999999996e-01 -1.23802795e+00   6.83700010e-01   1.50499320e-01
C     8.660596470400000e+00   6.292489897926233e+00  -1.574649000000008e-01 -5.04215410e-01  -1.14519214e+00  -4.37016490e-01
C     9.876356063799999e+00   6.980287381585919e+00  -1.048517999999987e-01  9.49477880e-01   6.46568230e-01   2.22050450e-01
C     1.110337967190000e+01   6.274740113011770e+00   6.374400000000000e-03  1.27774309e+00   6.15490980e-01  -2.18109070e-01
C     1.237508712380000e+01   6.986926462234119e+00  -4.198859999999982e-02 -1.61592518e+00  -7.03296740e-01   2.27176500e-01
