32
Lattice="9.86 0 0 4.93 8.53901048131456 0 0 0 30 " PBC="1 1 1" Properties=species:S:1:pos:R:3:force:R:3 Energy="-256.84355419"
C     9.778668705399999e+00   1.773863809018101e+00   3.734514300000000e+00 -4.38168620e-01   2.20998689e+00   9.29392000e-03
C     1.098358742600000e+01   2.582646604224086e+00   3.645439800000000e+00  2.98422860e-01  -3.37613423e+00  -3.58258790e-01
C     2.364691607100000e+00   1.804961604334689e+00   3.501570000000000e+00 -1.09306520e-01   1.07932570e+00   7.48589240e-01
C     3.610895380200000e+00   2.513795538042589e+00   3.480429000000000e+00 -7.48348390e-01   1.06647600e-02   6.12679700e-02
C     4.849293632199999e+00   1.793913576405350e+00   3.604505400000000e+00 -1.45581235e+00   6.49179910e-01   1.53146810e-01
C     6.046620547200000e+00   2.520831853458318e+00   3.772338000000000e+00  8.28681360e-01  -1.37750021e+00  -5.17516930e-01
C     7.280878042900000e+00   1.810320174971308e+00   3.783153300000000e+00  1.37381810e-01  -6.39772480e-01   1.32726350e-01
C     8.528461180699999e+00   2.492425212684607e+00   3.836233800000000e+00  1.74767430e-01   1.67700600e-01  -1.09290940e-01
C     1.097200310920000e+01   3.973544332224667e+00   3.656498100000000e+00  1.37081980e-01   6.58709260e-01  -1.05635120e-01
C     1.222484152840000e+01   4.655968387369499e+00   3.544644900000000e+00 -7.53603480e-01  -1.00475442e+00  -2.15047830e-01
C     3.542558382400000e+00   3.948755072460598e+00   3.460760400000000e+00  3.73609062e+00  -9.48847360e-01   1.19132836e+00
C     4.831374117500000e+00   4.654068030587175e+00   3.685976400000000e+00 -1.38091605e+00  -1.83169180e-01  -7.63181380e-01
C     6.057990556900000e+00   3.910032623906209e+00   3.797358000000000e+00 -1.35456237e+00   1.51961417e+00   1.43393940e-01
C     7.259663217600000e+00   4.620160046921619e+00   3.908613600000000e+00  1.39010372e+00   7.39069710e-01  -1.59490890e-01
C     8.513536542400001e+00   3.919784088484264e+00   3.899678100000000e+00  6.68200120e-01   7.51002830e-01  -4.43216160e-01
C     9.752893728700000e+00   4.690685186107721e+00   3.777403800000000e+00 -1.47510872e+00  -1.47449547e+00   3.03503250e-01
C     1.227527113930000e+01   6.031557804332060e+00   3.566980200000000e+00 -2.65676078e+00   2.11049789e+00   4.36834890e-01
C     1.342529361970000e+01   6.817127299548165e+00   3.547950000000000e+00  2.19333545e+00  -5.23255670e-01   6.13033820e-01
C     4.825821409200000e+00   6.084118402490128e+00   3.690418800000000e+00 -2.24095600e-01   3.27184140e-01  -4.54845610e-01
C     6.070993826300000e+00   6.795930913833661e+00   3.750817500000000e+00 -1.02882662e+00  -3.86984900e-02  -6.53970200e-02
C     7.274093820600000e+00   6.061622720940988e+00   3.866923500000000e+00  9.80353500e-02  -4.45086700e-02  -2.21137870e-01
C     8.496342181399999e+00   6.792690786307025e+00   3.820374900000000e+00  1.73981880e-01  -2.82209130e-01  -1.64474980e-01
C     9.726041103299998e+00   6.105063997466834e+00   3.757680000000000e+00  1.10141255e+00  -1.42763336e+00   3.45495000e-01
C     1.100710436410000e+01   6.704149018128962e+00   3.708002400000000e+00 -3.16102930e-01   3.58364283e+00  -7.08745160e-01
C     1.341685015660000e+01   8.254981814689209e+00   3.608091300000000e+00  1.85901211e+00  -2.35687066e+00   2.19516960e-01
C     9.762062789199998e+00   3.686256668174080e-01   3.672554400000000e+00 -1.08649159e+00   9.16936680e-01  -3.66878050e-01
C     6.040964555400000e+00   8.230977119208044e+00   3.643426800000000e+00  1.57639539e+00  -1.55597584e+00   5.38025500e-01
C     2.361861787100000e+00   3.866446013421992e-01   3.632359200000000e+00 -8.65760130e-01   2.43104640e-01  -2.54454620e-01
C     8.505481366100000e+00   8.194070405842121e+00   3.714744000000000e+00 -1.14539370e-01   1.07745976e+00  -2.10192570e-01
C     4.799280261200000e+00   3.846158178422560e-01   3.670410600000000e+00  1.39825828e+00  -1.25262679e+00  -4.27653000e-03
C     1.098196880840000e+01   8.192730037367076e+00   3.680906100000000e+00 -1.55051300e-01  -1.27771160e+00   2.78349390e-01
C     7.284541723099999e+00   3.689087350148200e-01   3.688250700000000e+00 -1.60770611e+00   1.72008380e+00  -5.24649500e-02
