32
Lattice="9.86 0 0 4.93 8.53901048131456 0 0 0 30 " PBC="1 1 1" Properties=species:S:1:pos:R:3:force:R:3 Energy="-257.29430464"
C     1.201749519400000e+00   8.285902254758128e-01   3.561612000000000e+00  9.72177600e-01  -1.70586746e+00  -1.59407730e-01
C     2.448157739600000e+00   1.506896769767189e+00   3.472768800000000e+00 -1.16894126e+00   1.51375638e+00  -1.18076400e-02
C     3.652676982300000e+00   8.288230842916023e-01   3.613149900000000e+00  4.86530340e-01  -1.14525257e+00  -2.92847800e-02
C     4.898122620000000e+00   1.495103542393261e+00   3.624480000000000e+00 -3.35161000e-03   1.01650505e+00  -6.48109300e-02
C     6.112065409800000e+00   7.889405257734000e-01   3.716990100000000e+00  1.78906273e+00   4.10102320e-01  -6.79641460e-01
C     7.362320410400000e+00   1.510992079193397e+00   3.642627000000000e+00  7.98892900e-02   4.22871680e-01   4.82610210e-01
C     8.627209869499998e+00   7.852177733744343e-01   3.629568900000000e+00 -1.42948817e+00   1.55637448e+00  -1.90364060e-01
C     9.855815908999999e+00   1.527556222502710e+00   3.564822600000000e+00 -1.06076258e+00  -6.64646350e-01  -3.76551130e-01
C     2.438497108800000e+00   2.940427044611056e+00   3.329619300000000e+00 -6.13583440e-01  -1.11735870e-01   3.82612800e-01
C     3.663016424800000e+00   3.639999311382033e+00   3.408921600000000e+00  8.58232990e-01   1.88459790e-01   2.66545000e-03
C     4.921923181000000e+00   2.918673573852836e+00   3.524017800000000e+00 -1.40948520e+00   4.16733730e-01   3.33305000e-02
C     6.120857571800000e+00   3.659260074200931e+00   3.586232400000000e+00  2.21885210e-01  -4.09025900e-01   2.31593110e-01
C     7.343686489400000e+00   2.971642251321744e+00   3.657690000000000e+00  1.17999554e+00  -2.16634927e+00  -3.30429410e-01
C     8.602834371899998e+00   3.635746627992679e+00   3.619805100000000e+00 -3.89217040e-01   1.40563741e+00  -3.21591830e-01
C     9.832641260799999e+00   2.927906464324442e+00   3.452983500000000e+00 -2.38778350e-01   1.19111031e+00   5.13771270e-01
C     1.104707172620000e+01   3.671100607692919e+00   3.323121600000000e+00  8.00896170e-01  -4.58807790e-01   6.75354520e-01
C     3.670916996300000e+00   5.069411477641712e+00   3.450629400000000e+00  7.18820080e-01   4.16774760e-01  -4.44543900e-02
C     4.931726831100000e+00   5.783130835415533e+00   3.602081400000000e+00 -2.04833164e+00  -2.10155650e-01  -4.42142480e-01
C     6.133753071399999e+00   5.067228479612499e+00   3.619637400000000e+00 -2.65653200e-01   3.18080860e-01   5.59605540e-01
C     7.337496332099999e+00   5.778048416377837e+00   3.770044200000001e+00  1.54895789e+00  -1.81847740e-01  -6.62211610e-01
C     8.584239200700001e+00   5.091295595260274e+00   3.675345900000000e+00  9.19485060e-01  -1.14415892e+00   1.39768620e-01
C     9.839881015100000e+00   5.797414550586058e+00   3.630246900000000e+00 -7.93940800e-01   4.20950090e-01  -3.23361110e-01
C     1.106716877260000e+01   5.097501321126614e+00   3.445535700000000e+00 -4.82644100e-02  -2.29807190e-01  -2.89226260e-01
C     1.231293362780000e+01   5.817841656846420e+00   3.415453500000000e+00 -3.62401300e-01  -1.61462902e+00   6.65189240e-01
C     4.890048611100000e+00   7.202483449599038e+00   3.644894400000000e+00  5.27162890e-01   2.98732240e-01  -4.61483810e-01
C     6.124994581300000e+00   7.917643338440836e+00   3.640648200000000e+00  3.15927610e-01   2.76076230e-01   6.01773170e-01
C     7.371937805100000e+00   7.185140548533949e+00   3.762697500000000e+00 -1.16295755e+00   1.77680881e+00  -5.84296920e-01
C     8.575104650200000e+00   7.951355607986191e+00   3.709816200000000e+00  1.14288416e+00  -1.33894727e+00   1.04015650e-01
C     9.838698505300000e+00   7.235443346931000e+00   3.670861800000000e+00 -5.58607620e-01  -5.44944350e-01   3.03600600e-01
C     1.108774664190000e+01   7.914168131955686e+00   3.668579100000000e+00 -1.24270644e+00   1.83921000e-01  -5.52833400e-02
C     1.230488047280000e+01   7.209349753316110e+00   3.573608700000000e+00 -2.98647020e-01   4.01104250e-01  -2.24845920e-01
C     1.351057690090000e+01   7.920958011528962e+00   3.583090800000000e+00  1.53321006e+00  -2.87824030e-01   5.55304130e-01
