32
Lattice="9.86 0 0 4.93 8.53901048131456 0 0 0 30 " PBC="1 1 1" Properties=species:S:1:pos:R:3:force:R:3 Energy="-255.99022667"
C     1.195245912700000e+00   7.419174759116119e-01   3.566248200000000e+00  1.49160027e+00   1.15240246e+00   8.75399250e-01
C     2.450844638900000e+00   1.490558995625700e+00   3.720567000000000e+00 -1.87058740e-01  -1.78611836e+00  -6.09328970e-01
C     3.699635035100000e+00   7.433682537921640e-01   3.515106300000000e+00 -2.40157890e-01   1.26733400e-01   2.85868650e-01
C     4.946217185699999e+00   1.439974409882809e+00   3.520859700000000e+00  1.13401600e-02   5.88221730e-01  -3.69551160e-01
C     6.229985044499999e+00   7.917303058873207e-01   3.322430400000000e+00 -3.70204633e+00  -9.31011440e-01   1.27500742e+00
C     7.399908801000000e+00   1.542850102613019e+00   3.471120900000000e+00  2.52477990e-01  -3.56678120e+00  -3.95210740e-01
C     8.585466820000001e+00   7.293740964670160e-01   3.511656600000000e+00  1.30928204e+00   2.10537363e+00   6.70825390e-01
C     9.821022976299998e+00   1.456050292572876e+00   3.663636900000000e+00  5.04474830e-01  -1.69369863e+00  -3.35917200e-01
C     2.435635145200000e+00   2.904317618653651e+00   3.930065400000000e+00  1.70272557e+00  -8.28635780e-01  -7.83012530e-01
C     3.702212488400000e+00   3.580009005595422e+00   3.847154100000000e+00 -1.15120337e+00   6.07013200e-01  -1.32555650e-01
C     4.913105087200000e+00   2.867109563607889e+00   3.662351100000000e+00 -1.03699580e-01   4.55729630e-01  -3.41875350e-01
C     6.092420542999999e+00   3.625512026201666e+00   3.479031600000000e+00  2.77484272e+00   4.12222460e-01   6.64430840e-01
C     7.372893534900000e+00   2.913158312373910e+00   3.511934700000000e+00 -5.07843310e-01   1.33674705e+00  -7.67005370e-01
C     8.640696870499999e+00   3.558210363471764e+00   3.499714200000000e+00 -4.36534520e-01  -4.02179970e-01   1.48543107e+00
C     9.844441117199999e+00   2.840931519179354e+00   3.775388700000000e+00  6.79004910e-01   2.03803408e+00  -9.83850440e-01
C     1.109932834580000e+01   3.619619596629837e+00   3.866456400000000e+00 -2.25855219e+00  -1.26616379e+00   1.01481710e-01
C     3.661282888900000e+00   5.017450232629234e+00   3.752448600000000e+00  6.67671350e-01  -5.99191050e-01  -4.68539500e-02
C     4.866647528000000e+00   5.721704011895872e+00   3.558165000000000e+00  2.81511722e+00   1.30147221e+00  -1.73898580e-01
C     6.182234790000000e+00   5.085971949176519e+00   3.455584800000000e+00 -1.96383659e+00  -2.68829031e+00  -4.23567540e-01
C     7.450945245600000e+00   5.702785834177432e+00   3.264569700000000e+00 -1.76594083e+00   1.44775823e+00   1.72823483e+00
C     8.658804859100000e+00   4.941452697796815e+00   3.454952700000000e+00 -1.30621017e+00   1.97046141e+00  -1.24659050e+00
C     9.845204034700000e+00   5.669528010769823e+00   3.462090000000000e+00  6.89921980e-01   1.74832151e+00   7.18900010e-01
C     1.105581907450000e+01   5.025012038749903e+00   3.748141200000000e+00  1.14388058e+00  -2.41063270e-01  -5.44137940e-01
C     1.229892059580000e+01   5.737685453130031e+00   3.700670100000000e+00 -6.60141810e-01  -9.73139100e-02  -1.81601260e-01
C     4.937176995400000e+00   7.148836176967285e+00   3.501171900000000e+00 -7.17331180e-01   1.46901410e-01   1.92777180e-01
C     6.181037687399999e+00   7.872758286023030e+00   3.429778500000000e+00 -1.40433266e+00  -3.29604080e-01   2.51461620e-01
C     7.397961746800000e+00   7.186914357180958e+00   3.358353000000000e+00  4.07543500e-01  -2.97181369e+00  -7.23798390e-01
C     8.622686150800000e+00   7.827920795893599e+00   3.351536400000000e+00 -2.55585110e-01   2.50246987e+00   4.77137640e-01
C     9.819313252299999e+00   7.113100332718380e+00   3.371806800000000e+00  1.57085494e+00   5.52226840e-01  -2.32803950e-01
C     1.104731137350000e+01   7.893499798649265e+00   3.367333200000000e+00  1.82116903e+00  -1.48762240e+00   9.32660000e-04
C     1.228653263970000e+01   7.135252746046224e+00   3.480992100000000e+00  7.70423370e-01   1.28318276e+00   6.69837400e-01
C     1.356963292720000e+01   7.868991045379464e+00   3.560955900000000e+00 -1.95185619e+00  -8.85784030e-01  -1.10616613e+00
