26
Lattice="8.88768389401873 1.33226762955019e-15 0 4.44384194700937 7.69696003302603 0 0 0 30 " PBC="1 1 1" Properties=species:S:1:pos:R:3:force:R:3 Energy="-208.39087175"
C     6.224852923475632e-01   7.455321666818180e-01   3.725118000000000e+00  3.41536650e-01   2.93204120e-01   1.95487640e-01
C     3.056076410478108e+00   1.055120832400484e-01   3.821686800000000e+00 -1.55538033e+00   1.07914613e+00  -4.26130230e-01
C     4.396002475895436e+00   5.228118536793338e-01   3.705230100000000e+00  2.01148510e-01  -1.25394149e+00  -5.52631130e-01
C     9.839533020034992e+00   7.204265072434850e+00   3.491030400000000e+00 -6.45886390e-01   7.81665560e-01   9.27962770e-01
C     1.118348027355691e+01   7.570739429738437e+00   3.472428000000000e+00  1.84308500e+00   1.66826805e+00  -2.93994550e-01
C     1.227453887973346e+01   6.635543930960579e+00   3.469805400000000e+00 -9.20402400e-02   1.37918259e+00   5.99180230e-01
C     4.741753291888217e+00   7.080417214041736e+00   3.623941500000000e+00 -1.47578550e-01  -1.21783520e+00   3.57439100e-02
C     5.760661902375917e+00   6.049892171356317e+00   3.665538300000000e+00 -5.75284590e-01   1.41437842e+00   5.69934140e-01
C     7.113777735054904e+00   6.443645709550228e+00   3.672406200000000e+00  1.01408346e+00  -6.13354850e-01   7.89840100e-02
C     8.122389474936590e+00   5.417993689229403e+00   3.544767000000000e+00  3.63906850e-01   2.48069678e+00   2.74060860e-01
C     9.492044087521300e+00   5.848320179671462e+00   3.519365700000000e+00  9.79627900e-02  -9.44036810e-01  -7.59955480e-01
C     1.055115160341732e+01   4.895827533526986e+00   3.447460500000000e+00  7.58450670e-01  -9.57836000e-02   1.25110385e+00
C     3.083878555519402e+00   5.286383677554835e+00   3.532737300000000e+00 -2.71534549e+00  -9.73444840e-01  -1.76312270e-01
C     4.053537087839404e+00   4.294481749391156e+00   3.714365100000000e+00  5.52912440e-01  -5.96479050e-01  -6.14139500e-01
C     5.413584780697822e+00   4.697881271833862e+00   3.763722300000000e+00  7.43399280e-01  -1.71596236e+00  -1.92645185e+00
C     6.446209398229991e+00   3.674110619453170e+00   3.518528400000000e+00 -2.02693379e+00   8.07119100e-01   1.84631341e+00
C     7.773096875867859e+00   4.082982680477207e+00   3.502705500000000e+00  1.77352722e+00  -1.63382376e+00   3.19290260e-01
C     8.827278437379547e+00   3.089355863570805e+00   3.628244400000000e+00 -7.36618880e-01   9.82795640e-01  -5.21564080e-01
C     1.021238579932421e+01   3.536504214097630e+00   3.647970900000000e+00 -1.52233346e+00  -1.28246623e+00  -5.35977020e-01
C     2.307344281275623e+00   2.529498079449480e+00   3.730103700000000e+00  1.97095463e+00  -6.27091690e-01   3.23939280e-01
C     3.696509848522890e+00   2.917519152721847e+00   3.654371400000000e+00  4.46152000e-03  -1.14802549e+00   9.40207840e-01
C     4.718711968021887e+00   1.874956526367110e+00   3.665298600000000e+00  1.60463990e-01   2.62932443e+00   1.99725310e-01
C     6.095220584671408e+00   2.309164439813097e+00   3.620425200000000e+00 -6.74505340e-01  -1.32218655e+00  -1.10510172e+00
C     7.089512621583554e+00   1.281617197024086e+00   3.510913200000000e+00 -3.30636770e-01   2.82497310e-01   6.72912920e-01
C     8.427837393007792e+00   1.719500331914798e+00   3.631688700000000e+00  2.48899336e+00  -5.06744570e-01  -4.90376200e-02
C     2.022251733426792e+00   1.126356890204537e+00   3.888122099999999e+00 -1.29234253e+00   1.32898360e-01  -1.27355098e+00
