32
Lattice="9.86 0 0 4.93 8.53901048131456 0 0 0 30 " PBC="1 1 1" Properties=species:S:1:pos:R:3:force:R:3 Energy="-250.68742765"
C     5.876308570000000e-02   2.739015696617200e-02   3.838419900000000e+00 -2.60404188e+00   1.13132403e+00  -6.12061410e-01
C     1.255207382800000e+00   7.093299648266832e-01   3.848720700000000e+00 -2.63125185e+00   1.73280729e+00   8.67827020e-01
C     2.372060478100000e+00   7.320912096017519e-02   3.627607800000000e+00  8.11440665e+00  -9.92149360e-01  -1.19684916e+00
C     3.658078043800000e+00   8.861547691652656e-01   3.574638600000000e+00 -8.41084680e-01  -2.89411497e+00   1.16818951e+00
C     9.772232984799999e+00   8.525036389349479e+00   3.571434600000000e+00 -1.47231797e+00   5.44201482e+00  -9.24775900e-01
C     5.996524746600000e+00   7.077060158135967e-01   3.504178800000000e+00  7.50510398e+00   5.53801440e-01   1.78421200e+00
C     1.231411248940000e+01   8.517874379699485e+00   3.654536700000000e+00 -1.64919180e-01   4.52316145e+00  -4.60199240e-01
C     8.743096865199998e+00   7.962225939107440e-01   3.813888900000000e+00 -6.20211540e+00  -2.14101058e+00  -8.83337610e-01
C     1.226528438900000e+00   2.086281695521223e+00   4.054898700000000e+00  1.60747480e-01   4.59362155e+00   2.51380960e-01
C     2.354145153900000e+00   3.014017517779268e+00   4.011709200000000e+00  4.55401367e+00  -4.61843010e+00  -1.14997153e+00
C     3.767186486700000e+00   2.317444834609705e+00   3.786936000000000e+00 -5.24102900e+00  -4.17816179e+00   4.76614800e-01
C     5.006789187000000e+00   2.858911259646042e+00   3.804710700000000e+00 -1.86756855e+00   3.19796767e+00  -1.55922896e+00
C     6.176919461200001e+00   2.123910979953963e+00   3.634995600000000e+00 -7.36699300e-01   1.70790398e+00   2.20979040e-01
C     7.356416045200000e+00   2.987284181499218e+00   3.720999000000000e+00  1.41919408e+00  -3.88910764e+00  -1.80076857e+00
C     8.575196989100000e+00   2.204718795560081e+00   3.788519400000000e+00  1.84533349e+00  -2.31135900e-01   1.85132554e+00
C     9.845242587300000e+00   2.805631164464929e+00   4.114375800000000e+00 -1.53213678e+00   2.15801325e+00  -2.01080200e+00
C     1.233952540690000e+01   4.377923775212988e+00   3.890336700000000e+00 -1.61514362e+00   6.91677200e-01   3.96571480e-01
C     3.748164771900000e+00   5.060920627180819e+00   3.712467900000000e+00 -4.70809357e+00   1.05047415e+00   4.41810000e-01
C     4.835291988500000e+00   4.307828575204554e+00   3.604018200000000e+00  6.49765309e+00  -1.22153804e+00   9.23844930e-01
C     6.072250384700000e+00   5.007867755068578e+00   3.497898900000000e+00  1.78266080e+00   2.95359819e+00  -1.70504832e+00
C     7.400531509299999e+00   4.381917982755113e+00   3.411126000000000e+00 -4.43485568e+00  -1.78676211e+00   2.41060255e+00
C     8.563156006400000e+00   5.048612070524422e+00   3.613019700000000e+00  4.67864490e+00   2.62550400e-01   2.40422800e-02
C     9.769880142300000e+00   4.244563558898863e+00   3.966224100000000e+00  3.09042336e+00   2.32664192e+00  -7.11754020e-01
C     1.110918543710000e+01   5.034302652932353e+00   3.886114200000000e+00 -3.99186889e+00   2.01898426e+00   3.07146130e-01
C     1.353658728510000e+01   6.486700896113037e+00   3.698840100000000e+00 -6.62752200e-02  -1.33456725e+00  -5.49341810e-01
C     4.877325217799999e+00   7.195401792037659e+00   3.595889100000000e+00  1.90010006e+00  -6.20784160e-01   3.74372110e-01
C     6.109996239500000e+00   6.489269942806051e+00   3.415532100000000e+00  1.97241523e+00  -1.73859326e+00   1.01154106e+00
C     7.474660221800000e+00   7.200445443967777e+00   3.458910900000000e+00 -3.22265232e+00  -8.63407780e-01  -4.67767120e-01
C     8.743757485200000e+00   6.479914859094476e+00   3.427719300000000e+00 -6.60004045e+00  -2.56312697e+00   7.21081450e-01
C     9.871669605799999e+00   7.166242779050555e+00   3.559840800000000e+00 -6.53759240e-01   9.35165240e-01   3.05530360e-01
C     1.103200865350000e+01   6.553681065098368e+00   3.768425100000000e+00  3.06729852e+00  -6.40796083e+00  -1.78929990e-01
C     1.226972996720000e+01   7.158535297411098e+00   3.684798300000000e+00  1.99785827e+00   2.01143900e-01   6.73764430e-01
