32
Lattice="9.86 0 0 4.93 8.53901048131456 0 0 0 30 " PBC="1 1 1" Properties=species:S:1:pos:R:3:force:R:3 Energy="-254.5082441"
C     5.063047191799999e+00   8.172861126221791e+00  -4.803980999999986e-01  2.29217910e-01  -1.56476724e+00   8.26996810e-01
C     1.369867104300000e+00   3.284514157012088e-01  -4.778856000000005e-01 -5.70314500e-02  -9.39712900e-02   2.30723590e-01
C     7.488137658599999e+00   8.097440657717611e+00  -4.938624000000011e-01  3.13079930e-01   1.73853968e+00   4.63189530e-01
C     3.790282747900000e+00   2.635969479847704e-01  -3.286277999999996e-01 -5.74928980e-01   1.39338560e+00  -1.48727142e+00
C     9.925272263299998e+00   8.140014029218271e+00  -4.546485000000011e-01  3.10867141e+00  -1.32634379e+00   2.48903050e+00
C     6.301354731800000e+00   3.425304507905280e-01  -3.621794999999999e-01 -9.91714030e-01  -5.71586253e+00  -2.08481040e-01
C     1.247879795620000e+01   8.080717518033161e+00  -2.873219999999996e-01 -7.22313240e-01   1.69441753e+00  -6.91550980e-01
C     8.760661370599999e+00   2.831713486585984e-01  -5.036741999999990e-01 -4.94423280e-01   7.01611330e-01   5.00261410e-01
C     1.411113209800000e+00   1.741706237110840e+00  -2.795681999999999e-01 -3.57526411e+00  -1.01609214e+00  -4.54808320e-01
C     2.591377000400000e+00   2.430217069706026e+00  -1.683971999999976e-01  5.02190080e-01  -6.08258130e-01   2.04601870e-01
C     3.802494062100000e+00   1.694785826155021e+00  -2.909733000000010e-01  1.90822379e+00   1.28957027e+00   3.74057810e-01
C     5.094876257800000e+00   2.436674269431002e+00  -3.335379000000032e-01 -2.59593844e+00  -4.50995110e-01   7.32571970e-01
C     6.297783834199999e+00   1.686332291169926e+00  -3.709074000000001e-01 -6.23255370e-01   3.23792345e+00  -7.73345130e-01
C     7.478702279500000e+00   2.424906402918199e+00  -4.706355000000002e-01  3.54237061e+00   4.87477000e-02   1.10223500e-02
C     8.768957919700000e+00   1.728044076513154e+00  -5.808105000000019e-01 -1.98585850e+00  -2.24524260e-01   1.78860143e+00
C     9.947951002800000e+00   2.442098419668107e+00  -2.754101999999996e-01  2.54348602e+00  -6.96246270e-01  -2.00784145e+00
C     2.535321618600000e+00   3.823340746958533e+00   3.171030000000000e-02  1.66302466e+00  -9.58446420e-01  -8.36766720e-01
C     3.757860257800000e+00   4.449063552373440e+00   1.266060000000000e-02  3.82597416e+00   5.18644866e+00  -1.11796757e+00
C     5.046751569800000e+00   3.898343828630451e+00  -2.352360000000004e-01 -2.17213280e-01  -3.67141304e+00   2.83433940e-01
C     6.279186296599999e+00   4.582566370162581e+00  -3.625587000000010e-01 -6.74719000e-02   3.46744000e-02  -8.20666400e-02
C     7.548686291699999e+00   3.837814113551818e+00  -3.763182000000000e-01 -2.43799893e+00   1.23986920e+00  -2.70843300e-01
C     8.709323900199999e+00   4.631646211478686e+00  -2.989160999999996e-01  2.16509170e+00  -3.34192576e+00  -9.63123240e-01
C     1.003585310000000e+01   3.845236306851139e+00  -3.618683999999988e-01 -3.40883563e+00   1.65963714e+00   1.89560692e+00
C     1.123318696630000e+01   4.523304698140228e+00  -1.253679000000005e-01 -2.26577334e+00   3.48811251e+00   5.52079570e-01
C     3.877941451000000e+00   5.946247026939419e+00  -1.112906999999979e-01 -2.28808394e+00  -5.63964100e-02   8.69747460e-01
C     5.088339521500000e+00   6.737702035128865e+00  -2.476017000000006e-01 -2.21243630e+00  -7.99495860e-01  -1.60568399e+00
C     6.230378852899999e+00   5.995487316262444e+00  -4.951647000000001e-01  2.75201684e+00  -5.48609300e-02   1.03972426e+00
C     7.488887215800000e+00   6.715048979616578e+00  -5.551598999999996e-01 -1.77623192e+00  -6.52689200e-01   6.37250640e-01
C     8.656117861199998e+00   6.020769020760894e+00  -3.161418000000005e-01  2.55813263e+00  -6.83718880e-01  -1.70455640e-01
C     9.924524973900001e+00   6.674317985017082e+00  -1.936806000000004e-01  1.58493600e-01   2.96555506e+00  -1.42771620e+00
C     1.116176778180000e+01   6.048665284878216e+00  -4.616550000000075e-02  2.14449522e+00  -3.73678314e+00  -5.64809620e-01
C     1.248421686430000e+01   6.665796564898671e+00  -9.448679999999854e-02 -1.11969590e+00   9.74297890e-01  -2.36168790e-01
