32
Lattice="9.86 0 0 4.93 8.53901048131456 0 0 0 30 " PBC="1 1 1" Properties=species:S:1:pos:R:3:force:R:3 Energy="-256.91404377"
C     1.473137594030000e+01   8.531167142703806e+00  -1.163199000000006e-01  2.50317557e+00   1.57841659e+00  -1.37059120e-01
C     1.230011730400000e+00   7.213242005073104e-01  -1.449488999999993e-01 -1.56059225e+00  -2.93882310e-01  -3.77966800e-01
C     2.448642851600000e+00   2.196318885560800e-02  -6.279480000000248e-02  6.11959100e-01  -1.60852843e+00   5.69171200e-02
C     3.687446941200000e+00   7.220209837624785e-01  -1.051788000000009e-01 -3.98768310e-01   4.09165950e-01  -2.22711480e-01
C     4.944622182800000e+00   3.038504411182240e-02  -7.385280000000094e-02 -1.44238585e+00  -8.03754180e-01   1.17928430e-01
C     6.150884377699999e+00   7.727976118510648e-01  -6.843300000000241e-02 -1.44557120e-01  -2.28701912e+00  -5.34975730e-01
C     7.379245445500000e+00   3.167417852398800e-02  -1.310210999999981e-01 -8.11622570e-01  -7.93684420e-01  -3.39561810e-01
C     8.603212256399999e+00   7.013299366881809e-01  -1.925363999999981e-01 -4.25963280e-01   1.75089082e+00   6.19850760e-01
C     1.106251968400000e+01   2.127795375821315e+00  -3.287906999999990e-01 -4.49121670e-01   5.43951070e-01   9.82639100e-01
C     2.438663594900000e+00   2.862040721596856e+00  -3.542297999999988e-01 -7.54192710e-01  -6.08352870e-01  -4.13222550e-01
C     3.626323716600000e+00   2.137921105228709e+00  -2.647575000000018e-01  3.05577401e+00   1.96597150e-01   5.91585820e-01
C     4.930852840699999e+00   2.852361923997986e+00  -2.092293000000005e-01 -3.93593459e+00   1.77662515e+00  -1.87595860e-01
C     6.088978269100000e+00   2.161411154548246e+00  -1.145159999999983e-01  3.03158501e+00   1.01295920e-01   1.40937240e-01
C     7.347506499900000e+00   2.876630816463404e+00  -9.583200000000147e-02 -2.82059400e-02  -2.22555085e+00  -1.72051280e-01
C     8.585260055799999e+00   2.158013396888149e+00  -1.763720999999983e-01 -2.28516930e-01  -1.00430853e+00   3.28059190e-01
C     9.804826496600000e+00   2.839573474952614e+00  -2.165055000000002e-01  1.59470289e+00   8.23222840e-01  -9.21650710e-01
C     2.467255672200000e+00   4.267374244544611e+00  -4.425917999999989e-01 -1.43502880e+00   1.42222275e+00   7.00988490e-01
C     3.665346441400000e+00   5.019333169830179e+00  -3.118122000000021e-01  8.24603680e-01  -1.00720205e+00   5.25176700e-02
C     4.918711039500000e+00   4.315500705340625e+00  -2.156501999999989e-01 -8.62925500e-01  -1.28377570e+00  -3.97422470e-01
C     6.127823168800000e+00   5.012230591693125e+00  -1.498716000000009e-01  1.09341781e+00  -4.39310030e-01   8.58389690e-01
C     7.356376161499999e+00   4.234169363001978e+00  -4.202970000000050e-02  6.55307380e-01   3.51647757e+00  -5.32365320e-01
C     8.631539691299999e+00   4.967429050797814e+00  -5.545500000000203e-02 -1.30822103e+00  -7.04527390e-01  -2.65213210e-01
C     9.855940046400001e+00   4.293298851142101e+00  -2.494203000000006e-01 -1.19838844e+00  -1.64856048e+00   5.03398190e-01
C     1.105461635170000e+01   4.991168353833261e+00  -3.735897000000001e-01  2.03211097e+00  -2.89594900e-02   8.17514000e-03
C     1.353681820630000e+01   6.427808877854363e+00  -1.973316000000018e-01  3.65926600e-02   1.88358880e-01  -2.78166670e-01
C     4.913420360699999e+00   7.149081331958166e+00  -7.216169999999877e-02 -5.12724210e-01  -1.47118240e+00  -5.69891200e-01
C     6.151678649999999e+00   6.438045016667264e+00  -8.178029999999836e-02 -4.43280900e-01  -6.92711300e-01   3.06679950e-01
C     7.383887040499999e+00   7.097367035128771e+00   5.727000000000000e-03 -9.79996200e-02   1.53607900e+00  -1.71074730e-01
C     8.604961173900000e+00   6.365937428059008e+00   1.377300000000000e-03  2.73055940e-01   1.65174151e+00  -4.40838800e-01
C     9.815180482599999e+00   7.119900202933919e+00  -9.657659999999879e-02  1.83332641e+00   7.30178200e-02  -2.60725290e-01
C     1.107917317470000e+01   6.410066351098810e+00  -2.873531999999983e-01 -1.28487918e+00   4.33918050e-01   5.93879780e-01
C     1.230521886800000e+01   7.127069897693346e+00  -2.395119000000001e-01 -2.22302530e-01   8.99328500e-01   3.60546470e-01
