32
Lattice="9.86 0 0 4.93 8.53901048131456 0 0 0 30 " PBC="1 1 1" Properties=species:S:1:pos:R:3:force:R:3 Energy="-248.29867156"
C     4.923108796700000e+00   7.982304824520426e+00  -8.256614999999989e-01  6.18820090e+00  -1.96813340e-01  -8.35864880e-01
C     1.435422103100000e+00   1.681581356519064e-01  -9.545291999999996e-01 -7.03500663e+00   2.55199655e+00   8.54981500e-02
C     7.382749393699999e+00   7.883045829679021e+00  -9.236769000000002e-01  6.31125747e+00   3.83163446e+00   5.23001240e-01
C     3.860251526400000e+00   1.480596105148160e-01  -8.141876999999980e-01 -7.36728310e-01  -1.16508194e+00  -4.01037884e+00
C     1.004808783170000e+01   7.981805292407346e+00  -1.127379300000001e+00  3.76660210e-01   5.65246390e-01   4.01245419e+00
C     6.434182144199998e+00   3.821463360114400e-02  -8.536517999999980e-01 -5.26230567e+00   4.16966719e+00  -1.12418976e+00
C     1.252364458860000e+01   7.882447501214687e+00  -1.040901000000002e+00 -2.29342127e+00   1.83113805e+00  -4.70338260e-01
C     8.702361261199998e+00   1.436036132859328e-01  -1.035713399999999e+00  3.33873504e+00  -2.79362690e-01   1.24810466e+00
C     1.445514158200000e+00   1.650631542254094e+00  -1.216833899999997e+00 -1.60769685e+00  -1.24124240e+00   2.89823592e+00
C     2.650215071400000e+00   2.347053426498581e+00  -1.415181900000000e+00  5.05791820e-01  -1.31392894e+00  -4.18513130e-01
C     3.945849637400000e+00   1.501783951852184e+00  -1.278002099999998e+00 -1.81045843e+00   1.94818564e+00   2.13772467e+00
C     5.228485420299999e+00   2.249607178191974e+00  -1.117778699999999e+00 -4.04315320e+00  -1.53799284e+00  -9.20591970e-01
C     6.367779776999999e+00   1.564386682505047e+00  -7.702323000000000e-01  3.59960504e+00  -2.44394984e+00  -9.06088090e-01
C     7.700123270900001e+00   2.257576807453167e+00  -8.249472000000004e-01 -6.11882273e+00  -9.29078900e-01  -1.82173250e-01
C     8.822019066000001e+00   1.528476727832454e+00  -9.717599999999997e-01  2.48714191e+00   2.26272106e+00   1.47251425e+00
C     1.002650759480000e+01   2.398976587524317e+00  -8.443734000000021e-01  2.10459006e+00  -2.48847994e+00  -5.17169344e+00
C     2.520728966500000e+00   3.776885712073875e+00  -1.663382100000000e+00  3.01596917e+00  -1.14991926e+00   4.34580000e-02
C     3.822979839000000e+00   4.388428038954960e+00  -1.701000600000000e+00  1.21053340e+00   1.31593973e+00   2.10664967e+00
C     5.056061874799999e+00   3.612962071719000e+00  -1.386391800000002e+00  1.07646478e+00   3.48885184e+00  -2.82160990e-01
C     6.263449391500000e+00   4.414865583911983e+00  -1.262437800000001e+00  1.84858592e+00  -4.12918809e+00   1.93442166e+00
C     7.578312091400000e+00   3.591762953521143e+00  -9.703304999999993e-01 -5.64791500e-02   6.83621794e+00  -2.34874413e+00
C     8.803027029799999e+00   4.463684900018344e+00  -1.231839300000001e+00 -3.28456487e+00   4.73270690e-01   1.63756057e+00
C     1.000996522630000e+01   3.810479545543871e+00  -1.344737100000000e+00 -1.04641721e+00  -2.94654508e+00   2.30678559e+00
C     1.116336875000000e+01   4.518717456320267e+00  -1.598672999999998e+00  2.41722177e+00  -2.36985576e+00   1.76080260e-01
C     3.925522803700000e+00   5.872584142962337e+00  -1.410222300000001e+00 -3.33853786e+00  -1.95542523e+00   1.37049610e-01
C     5.008665052000000e+00   6.547113626748095e+00  -8.080506000000014e-01  1.27351748e+00  -9.47530820e-01  -3.35151185e+00
C     6.333333028900000e+00   5.789847791839311e+00  -1.046861400000001e+00 -8.14998920e+00  -1.34778404e+00   4.97596950e-01
C     7.362318191900000e+00   6.538775539184689e+00  -1.049301300000000e+00  9.61088250e+00   1.57337830e-01   7.43063490e-01
C     8.746432946900001e+00   5.911044529285095e+00  -1.107939000000002e+00 -4.24527710e-01  -1.49247834e+00  -8.26030220e-01
C     1.004266690230000e+01   6.582638898998562e+00  -1.096781699999998e+00 -2.16540974e+00  -7.19411510e-01  -1.96535897e+00
C     1.123834586620000e+01   5.872454264612935e+00  -1.443331500000003e+00 -6.93539500e-01   2.11516931e+00   2.83760780e-01
C     1.246431790530000e+01   6.578621294567722e+00  -1.434452699999998e+00  2.70190087e+00  -2.89330772e+00   5.69678110e-01
