32
Lattice="9.86 0 0 4.93 8.53901048131456 0 0 0 30 " PBC="1 1 1" Properties=species:S:1:pos:R:3:force:R:3 Energy="-253.69538806"
C     4.929540622599999e+00   8.481017961105289e+00  -2.018315999999984e-01  9.80825190e-01  -2.64678568e+00  -1.20449251e+00
C     1.221406168900000e+00   6.278072632631799e-01  -1.979153999999994e-01  2.19943845e+00   7.41794770e-01  -4.50194600e-02
C     7.444462739299999e+00   8.453582376603363e+00  -1.515911999999986e-01 -1.86750878e+00   4.67474200e-02  -1.99246001e+00
C     3.726310969300000e+00   6.080939328888424e-01  -5.080626000000024e-01 -4.80748580e-01   1.53917910e-01   2.72186096e+00
C     9.868155008799999e+00   8.447424981536340e+00  -4.577886000000007e-01  2.15548184e+00  -8.58723200e-02  -6.82799260e-01
C     6.193381125599999e+00   6.031231187181200e-01  -3.502179000000005e-01 -7.77186100e-02   1.48992755e+00  -1.45982437e+00
C     1.238839758150000e+01   8.380590915020324e+00  -5.442072000000024e-01 -1.72171190e+00   5.37060115e+00   2.07789297e+00
C     8.639860742500000e+00   6.127365928868184e-01  -3.015945000000002e-01  3.27725130e-01  -8.67066360e-01   5.64303130e-01
C     1.237038903100000e+00   2.051591623885804e+00  -4.451028000000008e-01  9.00422100e-01  -1.56754393e+00   3.98386920e-01
C     2.513506615100000e+00   2.660013881727603e+00  -6.201588000000022e-01 -2.16749478e+00   4.40587143e+00  -4.49152540e-01
C     3.758021271600000e+00   2.036900170964859e+00  -4.743296999999984e-01 -1.45228218e+00  -1.06196270e-01  -1.28578527e+00
C     4.910840343799999e+00   2.841475454146929e+00  -4.937706000000013e-01  3.28101357e+00  -3.80547424e+00   8.17597370e-01
C     6.185355332099999e+00   2.137420804604686e+00  -3.198626999999981e-01 -5.73262200e-02  -3.50718192e+00  -3.07910360e-01
C     7.457805044800000e+00   2.786473467502525e+00  -2.880921000000001e-01 -1.36853460e+00  -2.62311837e+00   1.16126487e+00
C     8.701317432300000e+00   1.993881917018191e+00  -1.081335000000010e-01 -3.27651941e+00   2.54799772e+00  -2.51240568e+00
C     9.840710586200000e+00   2.747706530703534e+00  -4.213763999999998e-01  2.92003622e+00  -1.27873674e+00   9.65593640e-01
C     2.472052019900000e+00   4.211291475343753e+00  -8.867003999999987e-01  2.42189698e+00  -2.81073191e+00   8.46079390e-01
C     3.761124509400000e+00   4.850399948197003e+00  -8.467923000000006e-01 -1.21608985e+00   2.31500564e+00   1.21466476e+00
C     4.980489658300000e+00   4.199118432783674e+00  -5.393241000000017e-01 -1.47061777e+00   1.23006740e+00   4.42283600e-02
C     6.170258193100000e+00   4.891537570475556e+00  -2.195022000000009e-01 -1.05015530e-01   1.07574300e-02  -2.36582282e+00
C     7.371973103899999e+00   4.160690153140321e+00  -2.977685999999977e-01  2.91523757e+00   1.49283671e+00   4.20315680e-01
C     8.653953640499999e+00   4.832595855175889e+00  -4.276157999999981e-01 -4.09399140e-01   2.17642256e+00   7.21276660e-01
C     9.893560136900000e+00   4.119829280191425e+00  -5.158287000000001e-01 -1.87724080e-01   3.72168601e+00  -1.50772538e+00
C     1.115908808030000e+01   4.973562451245388e+00  -8.567645999999982e-01 -3.04700818e+00  -5.68727736e+00   1.02157354e+00
C     3.741189709299999e+00   6.291798323467456e+00  -6.605054999999993e-01  1.23740928e+00   7.31546420e-01  -4.14103070e-01
C     4.997954577699999e+00   7.035115257806636e+00  -4.302306000000016e-01 -2.76688911e+00   2.52779600e-02   4.09358490e-01
C     6.184590837000000e+00   6.304699316670956e+00  -3.459378000000015e-01 -2.00899900e-02   1.06849210e-01   1.43486280e+00
C     7.383687474100000e+00   7.005244603686129e+00  -1.881395999999995e-01  2.56777072e+00   1.01696881e+00  -5.32712820e-01
C     8.632076124599999e+00   6.308762177857339e+00  -3.654398999999984e-01  1.06008887e+00  -9.79905730e-01  -9.77151880e-01
C     9.895004774800000e+00   7.031015422704874e+00  -6.310977000000015e-01 -3.06442573e+00  -4.35852880e-01   1.21007243e+00
C     1.104967269560000e+01   6.313122025828218e+00  -8.761832999999974e-01  3.86176193e+00   3.33609119e+00   1.20154478e+00
C     1.240200270530000e+01   7.056208833834961e+00  -6.892157999999995e-01 -2.07200339e+00  -4.51862357e+00  -1.49351130e+00
