32
Lattice="9.86 0 0 4.93 8.53901048131456 0 0 0 30 " PBC="1 1 1" Properties=species:S:1:pos:R:3:force:R:3 Energy="-256.87371816"
C     1.217136542400000e+00   9.005544440981088e-01   3.406773600000000e+00  4.74284420e-01  -3.69317200e-01  -4.66866730e-01
C     2.465705630900000e+00   1.593356214849599e+00   3.283779000000000e+00  5.64870260e-01  -5.62319250e-01   5.44690770e-01
C     3.700538654800000e+00   8.539063421864976e-01   3.419994000000000e+00  1.90966670e-01   2.09495300e-01  -6.64301690e-01
C     4.953101092600000e+00   1.548619228873517e+00   3.342540900000000e+00 -1.32346240e+00   1.73846711e+00   5.26338180e-01
C     6.184983166399999e+00   8.842608166408016e-01   3.465477300000000e+00 -3.08408020e-01  -5.82800180e-01  -7.35308400e-01
C     7.422221980999999e+00   1.584287871109944e+00   3.484289700000000e+00 -5.19108000e-01  -1.23647110e-01   2.71568360e-01
C     8.626347858999999e+00   8.895290445465424e-01   3.477848100000000e+00  1.23570121e+00  -1.66512334e+00  -6.19384920e-01
C     9.847337048500000e+00   1.613607502884177e+00   3.390507900000000e+00  6.18781860e-01  -2.09074780e-01  -4.99298500e-02
C     2.516242420000000e+00   3.005878389160046e+00   3.125326500000000e+00 -2.68599049e+00  -1.38694880e-01   1.39282500e-02
C     3.705878387099999e+00   3.709531022088892e+00   3.135706200000000e+00  1.34522684e+00   5.55986020e-01   1.47639130e-01
C     4.912741992700000e+00   2.998928744700688e+00   3.276827700000000e+00  2.27954442e+00  -6.50663420e-01   6.04408010e-01
C     6.199423382900000e+00   3.695775700886870e+00   3.467331000000000e+00 -1.40507471e+00  -8.06000700e-02  -6.82119080e-01
C     7.449811690700000e+00   2.998400521512396e+00   3.518442000000000e+00 -2.38404645e+00  -3.35838510e-01  -1.28088470e-01
C     8.610052680700001e+00   3.721450285257505e+00   3.442247700000000e+00  2.97449511e+00   1.29398819e+00  -8.35123160e-01
C     9.883246872699999e+00   3.028242313777481e+00   3.272468400000000e+00 -7.74121620e-01   2.45670710e-01   5.31305730e-01
C     1.111577738940000e+01   3.731268866457933e+00   3.108568800000000e+00 -3.05651340e-01   1.42460030e-01   3.35442010e-01
C     3.716234542300000e+00   5.137080915552986e+00   3.151105500000000e+00 -9.84548470e-01   3.35693910e-01  -4.52042800e-02
C     4.908147232700000e+00   5.840765911331551e+00   3.345604500000000e+00  2.61511221e+00  -4.13372000e-01   2.90103640e-01
C     6.178952050900000e+00   5.102904209227625e+00   3.465013200000000e+00 -3.05447600e-02   1.99658835e+00   3.55827210e-01
C     7.429884581400000e+00   5.896682340608259e+00   3.579681900000000e+00 -1.62062583e+00  -1.99521901e+00  -1.05344913e+00
C     8.633038214099999e+00   5.162581816450459e+00   3.397217400000000e+00  1.29046150e-01  -2.24098710e-01   9.26560300e-01
C     9.887969763399999e+00   5.859202403468815e+00   3.302785200000000e+00 -1.80366206e+00   6.27247200e-02  -1.83081970e-01
C     1.106838855320000e+01   5.179617910869002e+00   3.120120000000000e+00  2.74603089e+00  -1.79238299e+00  -2.42299430e-01
C     1.234168583150000e+01   5.867787951555930e+00   3.093567300000000e+00 -6.98686020e-01   9.92276700e-02   1.05837333e+00
C     4.971220617400000e+00   7.272897069308271e+00   3.433182000000000e+00 -1.16512290e+00  -7.91378930e-01  -6.23205770e-01
C     6.161912639800000e+00   8.006292356590528e+00   3.462844500000000e+00  9.06845680e-01   4.82803070e-01   6.03487650e-01
C     7.398109646799999e+00   7.307525147727604e+00   3.558887100000000e+00 -1.88537440e-01  -5.41384900e-01  -1.97436450e-01
C     8.631533134400000e+00   7.966845031436491e+00   3.512876100000000e+00  5.13188990e-01   1.07331003e+00  -5.12269940e-01
C     9.872565978400001e+00   7.264251150417061e+00   3.362485500000000e+00 -5.75891750e-01   1.00224434e+00   4.76287080e-01
C     1.107175105970000e+01   8.009464001253114e+00   3.346451100000000e+00  2.11360769e+00  -8.25168340e-01   5.80700590e-01
C     1.234107495520000e+01   7.277512575252921e+00   3.328426800000000e+00  7.52899400e-02   1.81584760e-01  -1.03309683e+00
C     1.361194622980000e+01   7.960120731463700e+00   3.370844700000000e+00 -2.00951008e+00   1.88083941e+00   8.04505870e-01
