32
Lattice="10.148 0 0 5.074 8.78842579760448 0 0 0 30 " PBC="1 1 1" Properties=species:S:1:pos:R:3:force:R:3 Energy="-256.29232289"
C     3.902517160913864e-03  -1.109979781709420e-02   3.001706162498059e+00 -6.80056500e-02   7.45612690e-01   3.64208400e-02
C     1.267607484161073e+00   7.310518490166101e-01   3.009271587489100e+00  7.47918500e-02   1.24536360e-01  -1.67676520e-01
C     2.545102083166229e+00  -5.508584907740099e-04   2.995665251035022e+00 -6.63729320e-01  -3.21680480e-01   1.36192890e-01
C     3.796956421549195e+00   7.198922936017123e-01   3.008579623072273e+00  6.59380810e-01   3.56567750e-01  -1.69797400e-01
C     5.079999015732126e+00  -8.388881062433034e-03   3.000694110223988e+00 -2.85402330e-01   3.82910690e-01  -2.66479500e-02
C     6.344938994445215e+00   7.459655702030561e-01   2.997076854143300e+00 -1.73151540e-01  -4.92841170e-01   1.60516440e-01
C     7.605023993577595e+00   3.015718992015175e-03   3.012698277401571e+00  1.07355400e-01   7.45541400e-02  -2.39867530e-01
C     8.873832042216993e+00   7.373781087432832e-01   3.004170953112171e+00  3.45610300e-01  -3.25600020e-01   6.64165700e-02
C     1.262248718782151e+00   2.207413428947063e+00   2.997315992815154e+00  4.99119960e-01  -7.47113270e-01   9.45398800e-02
C     2.540914019408375e+00   2.926882489956447e+00   2.999546755607151e+00 -2.11749750e-01   1.02587300e-01  -7.64122500e-02
C     3.797268294713269e+00   2.189792993544361e+00   2.997681062379925e+00  5.07665870e-01   5.60509300e-02   6.26978500e-02
C     5.075714846320396e+00   2.932789715346775e+00   2.994765163341470e+00 -3.84679380e-01   1.24669760e-01   2.32431400e-02
C     6.349415741065896e+00   2.210879915238323e+00   3.002696421220699e+00 -3.70406120e-01  -3.48341240e-01  -8.02516100e-02
C     7.608680807632391e+00   2.927356133916288e+00   2.999332433101699e+00  4.76572840e-01   5.40813290e-01   6.71899000e-02
C     8.886436730782691e+00   2.201268579246600e+00   3.007785291270761e+00 -3.46128700e-01  -3.13981220e-01  -1.18250430e-01
C     1.015632653299672e+01   2.921915704466284e+00   2.996628883106720e+00 -4.68788970e-01   5.57864730e-01   8.65198900e-02
C     2.539844413689453e+00   4.388887905491162e+00   2.992363419583669e+00  1.02390420e-01   2.45943480e-01   1.20763730e-01
C     3.809016614146004e+00   5.136640040036330e+00   2.988749388197301e+00 -1.82558560e-01  -1.85432720e-01   1.03002300e-02
C     5.067104480342336e+00   4.405823798566477e+00   2.990356547313332e+00  4.34050360e-01  -6.14418120e-01  -1.20306700e-02
C     6.352516169949407e+00   5.119036097659544e+00   2.990254573329838e+00 -7.03744520e-01   3.19090200e-01   1.10777650e-01
C     7.609868831856765e+00   4.403573061382718e+00   2.997488636974110e+00  2.84067600e-01  -5.51300430e-01  -3.33074300e-02
C     8.879851917580408e+00   5.133805044189998e+00   2.998780227847243e+00  1.93084700e-02  -5.07154920e-01  -2.66188300e-02
C     1.014716404908727e+01   4.389382463433422e+00   3.002280213208423e+00  9.20803200e-02   1.13192970e-01   2.20450100e-02
C     1.141883666370257e+01   5.117196227832866e+00   3.012175543950841e+00 -1.32436910e-01   1.22416850e-01  -2.19910060e-01
C     3.815253080073084e+00   6.596343378584040e+00   2.990736204465513e+00 -4.42752120e-01   1.14253710e-01   1.78942600e-02
C     5.087233387727505e+00   7.327277943932689e+00   2.996901181950215e+00 -5.73959520e-01  -4.30265980e-01   4.74040000e-02
C     6.332821904117184e+00   6.578390798911938e+00   3.005821627053433e+00  8.02446570e-01   4.54539340e-01  -1.98417690e-01
C     7.608525691399585e+00   7.317837095628652e+00   2.992955815122653e+00 -1.33770840e-01  -3.17161400e-02   6.54998500e-02
C     8.873895769392245e+00   6.584686547556124e+00   2.989856233868464e+00  7.10854300e-02   3.59740670e-01   7.47531500e-02
C     1.014191047403688e+01   7.318358445833114e+00   2.994069268602145e+00  2.85871390e-01   2.71494300e-02   3.82900700e-02
C     1.141123864527896e+01   6.585655493492962e+00   2.999987489646050e+00  1.61839350e-01  -1.54868900e-02  -6.49656000e-03
C     1.267929108012131e+01   7.321959769950563e+00   2.992690699485627e+00  2.17627280e-01   6.28383200e-02   1.34219560e-01
