26
Lattice="8.88768389401873 1.33226762955019e-15 0 4.44384194700937 7.69696003302603 0 0 0 30 " PBC="1 1 1" Properties=species:S:1:pos:R:3:force:R:3 Energy="-207.96685994"
C     1.086538020618157e+00   1.430845781116126e+00   3.859398300000000e+00  1.27612611e+00  -3.29094001e+00   9.90062130e-01
C     3.482898008818838e+00   8.265688406616699e-01   3.921395700000000e+00  1.65405528e+00  -1.01492977e+00  -2.22808110e-01
C     4.869569069828227e+00   1.213863782724807e+00   3.702387900000000e+00  9.09888330e-01  -9.23819810e-01   3.00995550e-01
C     5.966876739843681e+00   2.487853754176765e-01   3.537611400000000e+00 -2.18774555e+00   2.70474090e-01  -2.44460900e-02
C     7.328958468054249e+00   6.784818696812799e-01   3.524859000000000e+00 -1.02743177e+00  -8.18391610e-01   5.08248240e-01
C     1.274004150034114e+01   7.360399523005007e+00   3.610832700000000e+00  7.31967120e-01  -1.66161744e+00   3.77475940e-01
C     7.600859247548843e-01   5.895871382980000e-04   3.907248900000000e+00  7.54444900e-02   2.13707418e+00  -1.18143058e+00
C     6.268007738737560e+00   6.774512852180630e+00   3.909833700000000e+00 -4.48518310e-01  -2.59102832e+00  -3.82507380e-01
C     7.647332329092070e+00   7.118329052487104e+00   3.923814000000000e+00 -5.56233770e-01   1.80213458e+00  -3.84725930e-01
C     8.692594966551045e+00   6.195765265723279e+00   3.702030600000000e+00 -2.85106601e+00  -1.65545766e+00  -2.41337300e-02
C     9.988343999270095e+00   6.564598972184861e+00   3.486834300000000e+00  3.32586230e+00  -1.67732770e-01   5.61757020e-01
C     1.099608910107901e+01   5.513310533152914e+00   3.497837100000000e+00  1.43894999e+00   1.34457391e+00   2.54771940e-01
C     3.499690091020727e+00   5.951294036402417e+00   3.548229000000000e+00 -1.03014781e+00   1.62542270e-01   1.85051720e-01
C     4.510318890791789e+00   4.972655971580036e+00   3.670593000000000e+00  1.58666459e+00  -1.21771092e+00   2.73630410e-01
C     5.927200700254296e+00   5.367259946887661e+00   3.728265900000000e+00 -8.84700680e-01   1.59401560e-01   1.18804118e+00
C     6.977876159352777e+00   4.380650602379811e+00   3.799056000000000e+00 -2.08670897e+00   2.08352090e-01  -1.76181348e+00
C     8.301788884760086e+00   4.798517099986105e+00   3.659091600000000e+00  1.81722218e+00  -3.92868500e-01   5.06740670e-01
C     9.306622381344066e+00   3.774054413929115e+00   3.613138500000000e+00  1.14268130e+00   4.16368440e-01   7.87678800e-01
C     1.069795081088181e+01   4.127326098723642e+00   3.661047900000000e+00 -1.58332887e+00   1.34847113e+00  -1.06668455e+00
C     2.791423005467215e+00   3.137124121152189e+00   3.733447500000000e+00  1.97303366e+00   9.10930300e-02   1.37105304e+00
C     4.186134976293816e+00   3.539553672691916e+00   3.781165800000000e+00  1.79316100e-01   1.05975016e+00  -1.04420310e+00
C     5.253019304453277e+00   2.560662454854147e+00   3.722500200000000e+00 -1.87859070e-01   1.76541305e+00  -2.52669780e-01
C     6.646615026639784e+00   2.990910282364700e+00   3.612659100000000e+00 -9.07293790e-01   5.22265970e-01   1.44681194e+00
C     7.697419757129793e+00   2.049480322932142e+00   3.641068200000000e+00 -3.21029673e+00  -1.61292194e+00  -7.15780250e-01
C     9.012716628403311e+00   2.381809041302640e+00   3.713474700000000e+00 -1.33214900e-01   2.81879191e+00  -2.94465380e-01
C     2.438591286214653e+00   1.770688810655112e+00   3.974900100000000e+00  9.83334780e-01   1.24071237e+00  -1.39665021e+00
