32
Lattice="9.86 0 0 4.93 8.53901048131456 0 0 0 30 " PBC="1 1 1" Properties=species:S:1:pos:R:3:force:R:3 Energy="-257.25262477"
C     4.968699119599999e+00   7.590971794084078e+00  -1.074438000000022e-01  5.87147070e-01  -5.55342720e-01  -6.63871430e-01
C     6.214126072600000e+00   8.276807696256299e+00  -1.518386999999990e-01 -1.21379580e-01   6.51908220e-01  -2.88103190e-01
C     7.454988979499999e+00   7.580387775984223e+00  -2.380524000000008e-01 -4.82791360e-01   7.75808440e-01   2.81933680e-01
C     8.684716939099999e+00   8.323072140427044e+00  -2.645021999999990e-01 -2.96625300e-01  -1.77413229e+00   7.91953190e-01
C     9.898796634999998e+00   7.575834007085343e+00  -1.675706999999989e-01  1.14054899e+00   1.02966209e+00  -6.13272350e-01
C     1.115157323200000e+01   8.305332943885578e+00  -1.685468999999991e-01 -1.19656571e+00  -2.30950410e-01  -4.15688740e-01
C     1.238670885930000e+01   7.629159017461582e+00  -2.495565000000006e-01 -6.84697860e-01  -1.42152859e+00   8.72333170e-01
C     1.360839234070000e+01   8.307801486425241e+00  -1.095012000000004e-01  5.24447900e-02  -1.83990530e-01  -4.26844170e-01
C     1.253631015300000e+00   1.164391679837786e+00  -2.072147999999991e-01  1.83810201e+00  -1.27180120e-01  -4.73161590e-01
C     2.521621444400000e+00   1.904114800836248e+00  -2.937689999999975e-01 -1.53633701e+00  -1.37701731e+00   5.38526980e-01
C     3.741782788300000e+00   1.181414709570295e+00  -2.353616999999986e-01  5.33712220e-01   1.19606188e+00  -4.24301580e-01
C     4.983176606899999e+00   1.908839349944727e+00  -2.194958999999983e-01 -6.20947050e-01  -4.24891030e-01  -7.61037100e-02
C     6.185437811000000e+00   1.173703897716750e+00  -1.865802000000016e-01  1.64277351e+00   9.44502490e-01  -1.47179900e-01
C     7.463880382400000e+00   1.877973986493405e+00  -2.345649000000023e-01 -1.77249598e+00   1.09069993e+00   5.83051100e-01
C     8.672087314399999e+00   1.181986908662560e+00  -1.324182000000000e-01 -3.71027590e-01  -8.53620810e-01  -6.99626660e-01
C     9.886989432900000e+00   1.836754218934034e+00  -2.574836999999981e-01  1.03880336e+00   2.60606490e+00   1.12612399e+00
C     2.498353915000000e+00   3.304621989670602e+00  -3.020445000000009e-01  7.04956080e-01   6.41473260e-01   6.79439000e-03
C     3.744288460800000e+00   4.019116518815799e+00  -3.082233000000016e-01 -4.23175820e-01   1.20421637e+00   2.99586030e-01
C     4.986788571400000e+00   3.336986547191898e+00  -2.625878999999998e-01 -1.63262833e+00  -1.44467420e+00   1.91931760e-01
C     6.179355177000000e+00   4.017745153732711e+00  -2.023022999999995e-01  2.59502327e+00   4.49806380e-01  -6.68986340e-01
C     7.448633174200000e+00   3.323134052050613e+00  -2.413365000000027e-01 -7.23754250e-01  -9.03260460e-01   3.52619610e-01
C     8.670644402000001e+00   4.033011538229274e+00  -1.966850999999998e-01  6.33298240e-01  -5.56138990e-01   1.25703540e-01
C     9.911395792299999e+00   3.289034452989886e+00  -2.034005999999984e-01 -6.45603000e-01   2.36101410e-01  -5.75830680e-01
C     1.112782177380000e+01   4.012813362839881e+00  -2.479677000000002e-01  5.88838260e-01   6.85164620e-01  -2.63556150e-01
C     3.742460909800000e+00   5.469506728292007e+00  -2.553362999999997e-01 -5.60667160e-01  -7.56157880e-01  -6.31125740e-01
C     4.970645828699999e+00   6.169192136951843e+00  -2.489103000000021e-01  3.68323960e-01  -3.88423130e-01   7.20519820e-01
C     6.210939222000000e+00   5.420914806034729e+00  -2.377548000000012e-01 -5.85844960e-01   1.96863216e+00   2.66596950e-01
C     7.429887490099999e+00   6.178046236918556e+00  -2.035361999999985e-01  1.27859076e+00  -1.74222112e+00   1.05957920e-01
C     8.690720446600000e+00   5.445359431335825e+00  -1.434497999999991e-01 -2.40897030e-01   8.92475570e-01  -6.98622940e-01
C     9.945771647000001e+00   6.165009985789054e+00  -1.957019999999972e-01 -1.61179154e+00  -3.30480300e-01   1.82241390e-01
C     1.117818261120000e+01   5.473524503503056e+00  -2.780190000000005e-01 -2.05240761e+00  -1.62702497e+00   4.61342650e-01
C     1.234995112440000e+01   6.190973871834752e+00  -2.882604000000022e-01  2.55707461e+00   3.24457140e-01   1.59059000e-01
