2
Lattice="2.478 0 0 1.239 2.14601095057784 0 0 0 30 " PBC="1 1 1" Properties=species:S:1:pos:R:3:force:R:3 Energy="-16.12699175"
C     0.000000000000000e+00   0.000000000000000e+00   3.000000000000000e+00 -0.00000000e+00   0.00000000e+00   0.00000000e+00
C     1.239000000000000e+00   7.153369835259463e-01   3.000000000000000e+00  0.00000000e+00   0.00000000e+00   0.00000000e+00
