2
Lattice="2.45 0 0 1.225 2.12176223927188 0 0 0 30 " PBC="1 1 1" Properties=species:S:1:pos:R:3:force:R:3 Energy="-16.12513055"
C     0.000000000000000e+00   0.000000000000000e+00   3.000000000000000e+00 -0.00000000e+00  -0.00000000e+00   0.00000000e+00
C     1.225000000000000e+00   7.072540797572915e-01   3.000000000000000e+00  0.00000000e+00   0.00000000e+00  -0.00000000e+00
