26
Lattice="8.88768389401873 1.33226762955019e-15 0 4.44384194700937 7.69696003302603 0 0 0 30 " PBC="1 1 1" Properties=species:S:1:pos:R:3:force:R:3 Energy="-208.10011274"
C     1.235657344631056e+01   6.630387275618880e+00  -9.674340000000115e-02  3.82774760e-01  -1.46789050e+00  -6.74744780e-01
C     8.639340409245104e+00   6.470922350443742e+00  -2.927165999999986e-01  1.04494434e+00  -3.17576750e-01   4.38526510e-01
C     1.003787919404393e+01   6.074858569696828e+00  -2.465288999999977e-01 -3.04697225e+00  -2.40395429e+00  -2.79103330e-01
C     1.031885807558027e+01   4.670125956996082e+00  -2.070539999999994e-01  1.58388204e+00   3.70391450e-01   3.65196170e-01
C     6.253896362474091e+00   5.842347800505785e+00  -2.317409999999995e-01 -1.21430810e+00   6.10821700e-01   4.77064510e-01
C     7.630922641772353e+00   5.507734624398382e+00  -2.574776999999990e-01 -5.08549980e-01  -2.29321569e+00  -1.89224210e-01
C     7.968339338093104e+00   4.101884182192478e+00  -2.205572999999994e-01  5.27248180e-01  -1.32000000e-02  -5.40723000e-02
C     9.354521487078809e+00   3.668843589704641e+00  -2.181951000000026e-01 -2.40120296e+00   1.20564090e+00  -1.31290280e-01
C     9.667412797493014e+00   2.315689922526531e+00  -1.981080000000013e-01 -1.08411598e+00  -3.15071366e+00   1.91598760e-01
C     3.811068051485800e+00   5.252745653135725e+00  -2.490750000000119e-02  1.14167809e+00  -7.44974590e-01  -2.03170910e-01
C     5.225186501768258e+00   4.870001923538327e+00  -4.576589999999925e-02 -8.50483860e-01  -1.43756418e+00  -1.14995100e-01
C     5.561254803111143e+00   3.438757747771049e+00   1.914180000000000e-02  9.79721000e-02   2.35017301e+00  -7.82735610e-01
C     6.970825425579941e+00   3.106587047989966e+00  -1.406540999999990e-01 -2.26987692e+00  -2.55104130e-01   6.39889930e-01
C     7.231689167687730e+00   1.720849916886458e+00  -1.294886999999996e-01  1.68184923e+00  -1.40610829e+00  -3.94121690e-01
C     8.606431223280694e+00   1.280437714869089e+00  -2.015691000000004e-01  3.51084440e-01   1.07192364e+00   7.03677600e-02
C     2.781515016175617e+00   4.228513337092433e+00  -4.317869999999857e-02  2.58361670e-01   2.96971130e+00   1.64250870e-01
C     3.098858567417696e+00   2.908604610584701e+00   9.298140000000001e-02  2.26694207e+00  -3.44854834e+00  -1.23851345e+00
C     4.508672890116515e+00   2.480616456599756e+00   4.255440000000000e-02  1.27011280e-01   8.46588540e-01   8.88377170e-01
C     4.906511438866884e+00   1.114052375961378e+00   1.971060000000000e-02 -4.39978344e+00  -5.39344600e-01  -1.13738035e+00
C     6.188653960313689e+00   7.167488458624308e-01  -1.213008000000002e-01  3.46454501e+00  -2.88386050e-01   4.23626000e-03
C     1.101391415198146e+01   7.005758933869145e+00  -2.151816000000011e-01  5.80888160e-01   2.98065275e+00   8.47939000e-01
C     2.125495869311949e+00   1.849282315582242e+00  -9.683249999999788e-02 -4.35757330e-01   3.65376607e+00   4.63914170e-01
C     2.457632437131704e+00   5.352298980829349e-01  -1.693187999999992e-01 -1.58412900e-02  -3.34644694e+00  -3.91308560e-01
C     3.840245470023750e+00   1.066338381948206e-01  -1.625163000000001e-01 -2.37975200e-02   2.14067180e+00   4.92247150e-01
C     4.503978152156704e+00   7.562771228836980e+00  -1.938521999999985e-01 -1.32991341e+00   2.87770097e+00   1.50766620e-01
C     5.819220141537255e+00   7.210155248067409e+00  -2.601848999999987e-01  4.07142168e+00   3.49858800e-02   3.96285680e-01
