32
Lattice="9.86 0 0 4.93 8.53901048131456 0 0 0 30 " PBC="1 1 1" Properties=species:S:1:pos:R:3:force:R:3 Energy="-245.75534595"
C     1.254481144500000e+00   9.639054482393337e-01   3.332094300000000e+00 -5.18454628e+00   1.38174392e+01  -1.69203947e+00
C     2.302795013400000e+00   2.014068564743435e+00   3.188473800000000e+00 -9.96908960e-01  -3.87225468e+00   1.07326820e-01
C     3.451028495400000e+00   1.219947762872238e+00   3.434729400000000e+00  3.06656281e+00   2.08630582e+00  -2.87752900e-02
C     4.691004544600000e+00   1.939873615023344e+00   3.347165100000000e+00  2.01515635e+00  -1.09269733e+00  -1.21193663e+00
C     6.020102520899999e+00   1.122526619256442e+00   3.259415400000000e+00 -4.10978592e+00   1.00449139e+00   2.27153518e+00
C     7.162437011400000e+00   1.859673691573298e+00   3.457712700000000e+00  1.62092830e+00   1.21619249e+00  -8.59569580e-01
C     8.455439499699999e+00   1.310438304022047e+00   3.626287200000000e+00 -4.68138570e-01  -3.86981445e+00  -1.52594870e-01
C     9.724877820500000e+00   1.794313629046338e+00   3.301485900000000e+00  1.00537589e+00   3.59604723e+00   1.06171460e+00
C     2.176859741000000e+00   3.411890405562039e+00   2.867526300000000e+00  4.54939763e+00  -1.22037235e+00   1.34810417e+00
C     3.542149143100000e+00   4.127085218956700e+00   3.008782200000000e+00 -3.62207152e+00  -9.36907120e-01   3.32904100e-02
C     4.643830607100000e+00   3.403627461290857e+00   3.175005000000000e+00  5.27744469e+00  -2.16604542e+00   1.45726844e+00
C     5.945394385500000e+00   4.220101343236178e+00   3.397669800000000e+00 -1.87170697e+00  -8.10587884e+00  -1.79292306e+00
C     7.157897664600000e+00   3.235220157313144e+00   3.341597700000000e+00 -1.13722662e+00   6.41814550e+00   1.08285421e+00
C     8.335857468999999e+00   4.010683221285541e+00   3.371692800000000e+00  4.90445302e+00  -1.56064305e+00   4.08505350e-01
C     9.724755605799999e+00   3.357015650173786e+00   3.267840900000000e+00 -4.17923136e+00  -3.38834726e+00  -8.79568420e-01
C     1.084069694690000e+01   4.097333427862075e+00   2.919792000000000e+00 -5.45496540e-01  -8.83119220e-01  -4.84883000e-02
C     3.634885992700000e+00   5.510717273720059e+00   3.232785300000000e+00 -3.49293079e+00   7.67070300e-01  -2.36895880e+00
C     4.735699727400000e+00   6.390601078978917e+00   3.288493200000000e+00 -6.82056100e-01  -1.63480419e+00   1.70824148e+00
C     5.880789200500000e+00   5.539115631653604e+00   3.377401500000000e+00  5.75782333e+00   4.95873502e+00   8.18717000e-01
C     7.380696936100000e+00   6.198231603792228e+00   3.575022600000000e+00 -6.83104244e+00   1.57008270e+00   1.11592040e+00
C     8.498154055000001e+00   5.427388400659826e+00   3.617101800000000e+00 -5.00854340e-01   2.23688600e-01  -1.98900763e+00
C     9.660972251800001e+00   6.228519047014264e+00   3.393192300000000e+00  2.34998002e+00  -8.29024900e-01  -2.37965100e-01
C     1.086671837430000e+01   5.482288346128994e+00   2.861452500000000e+00 -3.72259740e-01   2.20481601e+00   2.95378101e+00
C     1.218343628250000e+01   6.035748238335015e+00   3.060494400000000e+00 -9.27394330e-01   6.34704316e+00   7.47439550e-01
C     4.582134269999999e+00   7.847540197152656e+00   3.611412900000000e+00  1.11769798e+01  -9.16309290e+00  -4.61762470e-01
C     6.015197861100001e+00   8.318986394692574e+00   3.723928800000000e+00 -1.58012001e+00  -4.60317183e+00   4.22261820e-01
C     7.263424856899999e+00   7.657280540675365e+00   3.757517100000000e+00 -1.17714887e+00  -6.19724233e+00  -2.07909850e-01
C     8.421706418399999e+00   8.319514190930342e+00   3.704652900000000e+00  1.36164893e+00   4.64245702e+00  -4.71994060e-01
C     9.670925133000001e+00   7.711086297341628e+00   3.636034500000000e+00 -2.24882230e+00  -6.52058231e+00  -1.28568364e+00
C     1.087070344120000e+01   8.222687106273639e+00   3.409656000000000e+00  4.12104288e+00   3.76745927e+00  -1.17477423e+00
C     1.213402979450000e+01   7.526767572015691e+00   3.279206400000000e+00 -1.80871680e-01  -7.36035950e-01   1.98376025e+00
C     1.330805353620000e+01   8.334481880840316e+00   3.787871400000000e+00 -7.09818030e+00   4.16006038e+00  -2.65676931e+00
