32
Lattice="9.86 0 0 4.93 8.53901048131456 0 0 0 30 " PBC="1 1 1" Properties=species:S:1:pos:R:3:force:R:3 Energy="-256.39791507"
C     4.896091213500000e+00   8.364110966354344e+00   1.851930000000000e-01  1.92121800e-02  -9.34219010e-01  -3.61049940e-01
C     1.187019024500000e+00   5.276846329018264e-01   1.494966000000000e-01  8.79905770e-01   4.73865750e-01   9.96213700e-02
C     7.340881960300001e+00   8.357322965363371e+00   2.530305000000000e-01  1.80813312e+00   1.18341841e+00  -7.82395050e-01
C     3.673280783400000e+00   5.823516341651008e-01   1.231359000000000e-01 -2.67907330e-01  -1.53700738e+00   3.49726010e-01
C     9.867802168699999e+00   8.418101421817287e+00   1.209666000000000e-01 -1.42103667e+00  -1.98362897e+00  -4.00081330e-01
C     6.167358810800000e+00   5.539022129488848e-01   1.103484000000000e-01 -4.42496760e-01   1.27086000e-03  -3.15652000e-02
C     1.229631109750000e+01   8.401654092171340e+00   9.140130000000000e-02  1.46846905e+00  -1.63882907e+00  -4.03291750e-01
C     8.615253732099999e+00   5.430898617087945e-01   1.506588000000000e-01 -4.04746140e-01   3.57070640e-01   3.11881280e-01
C     1.245098960100000e+00   1.954739092977871e+00  -4.729319999999859e-02 -1.16818989e+00  -1.60210980e-01   5.67871650e-01
C     2.451795044300000e+00   2.675084210543545e+00  -1.574807999999983e-01  1.22033399e+00   8.82609250e-01  -2.71637260e-01
C     3.680891569500000e+00   1.985156243769098e+00  -3.006630000000143e-02  1.52619407e+00  -8.42208990e-01   1.90136400e-02
C     5.005691867600000e+00   2.625827867880818e+00  -1.277909999999949e-02 -3.42662783e+00   1.23157457e+00  -2.28250180e-01
C     6.219714769899999e+00   1.950374292380914e+00   1.014042000000000e-01 -1.03227546e+00   4.05082950e-01   4.72401990e-01
C     7.413583437800000e+00   2.672775347499857e+00   2.094171000000000e-01  1.01595620e-01   6.63283680e-01  -1.97052670e-01
C     8.619903067199999e+00   1.970555475139451e+00   2.040438000000000e-01  1.65929724e+00  -3.90788000e-01  -6.85180700e-01
C     9.872055230399999e+00   2.668179139718893e+00   2.038170000000000e-02 -1.04465742e+00  -5.13013200e-02   2.36758260e-01
C     2.488091134000000e+00   4.118612727368339e+00  -3.372353999999973e-01 -2.31685559e+00  -1.83545172e+00   4.39964270e-01
C     3.693963415200000e+00   4.811566919456897e+00  -2.877932999999970e-01  1.48387803e+00  -5.10824500e-02   1.20584092e+00
C     4.904242820599999e+00   4.037512792213700e+00  -4.634940000000043e-02  1.50066858e+00   2.00273918e+00   8.15182200e-02
C     6.136847583100000e+00   4.791348335832458e+00   1.939041000000000e-01 -5.79735600e-01  -3.44307190e-01  -6.10127840e-01
C     7.385378661299999e+00   4.099180074268479e+00   2.234514000000000e-01 -6.83476940e-01   1.44021000e-03  -2.71850750e-01
C     8.572620719000000e+00   4.830266498507049e+00   8.979360000000000e-02  2.52907197e+00  -4.42881460e-01   1.90023750e-01
C     9.826630900600000e+00   4.087527996737785e+00  -5.939249999999774e-02 -6.98313100e-02   1.70222030e-01  -2.51648300e-01
C     1.106210817690000e+01   4.754483890568411e+00  -2.834325000000000e-01  9.34580120e-01   2.48704343e+00   2.58149010e-01
C     3.746131639900000e+00   6.249705442086507e+00  -1.163117999999983e-01 -3.87365945e+00  -1.26776247e+00  -5.78802510e-01
C     4.904425477100000e+00   6.895883105545835e+00   1.238199000000000e-01  2.27502973e+00   2.89607819e+00   4.52806010e-01
C     6.140590734900000e+00   6.213689432903752e+00   2.342046000000000e-01  1.07305605e+00  -6.06198400e-02  -6.89282000e-02
C     7.400672803099999e+00   6.955495816289019e+00   2.855169000000000e-01 -7.73175740e-01  -8.54952200e-01  -2.83020190e-01
C     8.660420765200000e+00   6.259797783962924e+00   1.364853000000000e-01 -2.80789838e+00  -1.08344051e+00   2.28265180e-01
C     9.851227212900000e+00   6.930144689635367e+00   1.999560000000000e-02  2.43814400e+00   2.04149368e+00  -2.70688860e-01
C     1.110507110560000e+01   6.213750657608894e+00  -2.206878000000003e-01 -8.34102740e-01   7.36739640e-01   8.72535770e-01
C     1.232759357440000e+01   6.994756734844279e+00  -1.162448999999981e-01  2.29103730e-01  -2.05524093e+00  -9.08066300e-02
