32
Lattice="9.86 0 0 4.93 8.53901048131456 0 0 0 30 " PBC="1 1 1" Properties=species:S:1:pos:R:3:force:R:3 Energy="-255.84512771"
C     1.198927981800000e+00   7.656134861639264e-01   3.657775800000000e+00  1.46779514e+00  -2.15643365e+00  -2.10247830e-01
C     2.468731615600000e+00   1.401073496009387e+00   3.468156600000000e+00  1.42110170e-01   1.39496968e+00   3.41323830e-01
C     3.708506372900000e+00   6.658622173683481e-01   3.596974200000000e+00 -5.40516980e-01   1.88247029e+00  -2.31293850e-01
C     4.949815001099999e+00   1.391164059737452e+00   3.622250100000000e+00 -1.17320714e+00   3.13876140e-01  -3.76756180e-01
C     6.186991106100000e+00   7.607543622502825e-01   3.686294100000000e+00  6.84902730e-01  -2.88388869e+00  -5.15089150e-01
C     7.446846443599998e+00   1.399193035121481e+00   3.727852500000000e+00 -8.56985670e-01   1.07497392e+00   3.35694290e-01
C     8.681134505299999e+00   7.078147174170072e-01   3.754165800000000e+00 -2.63985005e+00  -1.44620904e+00  -3.58516840e-01
C     9.806241455900000e+00   1.443905599527591e+00   3.719514300000000e+00  4.53750806e+00   2.03105956e+00  -1.20747802e+00
C     2.512698390900000e+00   2.855309419635473e+00   3.270090000000000e+00 -1.24979276e+00  -1.57744398e+00   8.37499650e-01
C     3.735487572700000e+00   3.555011137805327e+00   3.337758300000000e+00 -2.92972120e-01  -1.13603518e+00  -3.02728080e-01
C     4.945612718400000e+00   2.775232884886862e+00   3.511944300000000e+00  6.05517420e-01   2.72499020e+00   5.38147500e-01
C     6.205349735900000e+00   3.485992023897583e+00   3.681257400000000e+00 -1.11058462e+00   1.45458960e+00  -5.07679740e-01
C     7.424313040500000e+00   2.822049119914825e+00   3.757752299999999e+00  1.95242524e+00  -4.77375700e-02  -1.33815270e-01
C     8.687092903300000e+00   3.575201457305077e+00   3.690914700000000e+00 -2.06408738e+00   1.05488813e+00  -6.41151830e-01
C     9.887108689599998e+00   2.893730953460547e+00   3.502853400000000e+00 -1.99822100e-01  -1.45931763e+00   1.11668206e+00
C     1.112351689780000e+01   3.576237666226826e+00   3.311839200000000e+00  8.06267690e-01  -6.34997470e-01  -1.34878900e-02
C     3.659019525899999e+00   4.953095126245666e+00   3.306441600000000e+00  3.01071259e+00   2.01174328e+00   8.32008030e-01
C     4.962022568500000e+00   5.651455536649323e+00   3.613448700000000e+00 -1.02859520e+00  -3.63679030e-01  -8.35485640e-01
C     6.209613150599999e+00   4.937866569565529e+00   3.682581600000000e+00 -8.55471090e-01   9.34433560e-01   6.58566100e-01
C     7.409228472999999e+00   5.769989212896709e+00   3.815928600000000e+00  6.76992200e-01  -5.56925061e+00  -1.31187965e+00
C     8.660330496899999e+00   5.022275798231692e+00   3.621975000000000e+00 -7.82639510e-01  -1.03652234e+00   1.08333130e+00
C     9.893493483299999e+00   5.679419942070274e+00   3.490521000000000e+00 -1.01151700e-02   7.10338560e-01  -6.08920080e-01
C     1.115279429440000e+01   4.996583708889572e+00   3.297039600000000e+00 -3.19792675e+00  -6.02750040e-01  -4.02425200e-02
C     1.230324785400000e+01   5.715548239240841e+00   3.198401700000000e+00  3.09176316e+00   1.46157617e+00   1.25356605e+00
C     4.980615422600000e+00   7.082821257726614e+00   3.717245700000000e+00 -3.16209400e-02   2.22156230e-01  -7.40033320e-01
C     6.209465940799999e+00   7.832684709840390e+00   3.729157800000000e+00 -1.92471669e+00   9.49273420e-01   5.29789760e-01
C     7.421410946700000e+00   7.114152168029307e+00   3.770784900000000e+00 -8.85141270e-01   2.70514068e+00  -4.53169800e-02
C     8.623044857600000e+00   7.828971094182639e+00   3.691983000000000e+00  1.63106139e+00  -1.61132080e+00  -7.17362110e-01
C     9.840838125299999e+00   7.088632822869197e+00   3.486857700000000e+00  2.03768228e+00   2.04197175e+00   1.04753135e+00
C     1.111664216070000e+01   7.864552894682483e+00   3.510759000000000e+00 -8.72143500e-01  -4.24016830e-01   9.44959000e-02
C     1.236165021160000e+01   7.188096839352229e+00   3.420112800000000e+00 -4.37438710e-01  -2.17852654e+00  -2.58526920e-01
C     1.362100382300000e+01   7.819654862968749e+00   3.614558400000000e+00 -4.91110410e-01   1.59678220e-01   3.87376080e-01
