32
Lattice="9.86 0 0 4.93 8.53901048131456 0 0 0 30 " PBC="1 1 1" Properties=species:S:1:pos:R:3:force:R:3 Energy="-249.21602939"
C     9.822533429700000e+00   3.430657613575192e-01   4.228779600000000e+00 -4.19239959e+00   9.48285400e-02   9.57256490e-01
C     1.140155923500000e+00   9.652470975659512e-01   4.082761799999999e+00  3.34955520e+00   1.93203184e+00  -6.87230400e-02
C     2.364683867000000e+00   3.022746521242448e-01   4.547884500000000e+00  2.79019341e+00   1.55329803e+00  -4.93077300e-01
C     3.639848136300000e+00   1.134412921844602e+00   4.493868000000000e+00 -1.14563268e+00  -4.04561186e+00   1.19457853e+00
C     4.843640401199999e+00   2.633712619377840e-01   4.730319300000000e+00 -1.82001921e+00   8.44911820e-01  -2.34817150e-01
C     6.030938907399999e+00   9.369641016639905e-01   4.640314200000000e+00  3.28511848e+00   1.68878597e+00  -2.03701548e+00
C     7.330694312499999e+00   3.404941529613624e-01   4.333299599999999e+00 -1.52242262e+00  -2.00513801e+00   1.89341884e+00
C     8.503025585200000e+00   1.090165391949234e+00   4.036480200000000e+00 -5.46032140e-01  -1.07937008e+00   1.69942196e+00
C     1.099632491910000e+01   2.390968618106068e+00   3.641137800000000e+00  1.88301392e+00   8.28677780e-01   2.11044851e+00
C     2.454058111500000e+00   3.212111630981854e+00   3.727979100000000e+00  2.01951340e-01  -2.41889178e+00   2.37780419e+00
C     3.658528251400000e+00   2.556643780290600e+00   4.374020400000000e+00 -2.35941733e+00  -2.59225037e+00  -1.80335765e+00
C     4.883920966200000e+00   3.137771603473707e+00   4.694879400000000e+00 -1.84536823e+00   7.10638860e-01  -1.12990471e+00
C     6.019686921900000e+00   2.331289986201976e+00   4.553160300000000e+00  2.19342604e+00   3.85454553e+00   1.80064380e-01
C     7.235881784999999e+00   3.231981481418289e+00   4.282972200000000e+00 -2.13268190e+00  -2.12141940e+00   2.37126909e+00
C     8.404642258699999e+00   2.575201697156889e+00   4.072469700000000e+00  4.57629622e+00  -4.78752347e+00  -1.60893419e+00
C     9.764699550400000e+00   3.095932672264432e+00   3.885516000000000e+00 -2.06104303e+00   2.55843670e+00   1.92360880e-01
C     1.238042912390000e+01   4.620029827011799e+00   3.807030600000000e+00 -2.91260786e+00  -4.98958100e-02   1.85211271e+00
C     3.692823155500000e+00   5.284101157712176e+00   4.402837200000000e+00 -2.59375469e+00   2.35177418e+00  -1.00903183e+00
C     4.814839390500000e+00   4.559693178960119e+00   4.764475500000001e+00  9.13264800e-01  -5.53292840e-01  -1.20573632e+00
C     5.995120830499999e+00   5.252772552942314e+00   4.835942400000000e+00  2.47922823e+00   4.45666690e+00   2.28636024e+00
C     7.251248003399999e+00   4.586413023603611e+00   4.727549100000000e+00 -8.13013480e-01  -1.49373690e-01  -1.21412773e+00
C     8.487184558499999e+00   5.230208217748914e+00   4.694433600000000e+00  3.47264470e+00   1.45796286e+00  -9.20313110e-01
C     9.699426991299999e+00   4.532683776471250e+00   4.147346400000000e+00  2.45854333e+00  -1.22995810e-01  -3.58858340e-01
C     1.101353638720000e+01   5.191681824875146e+00   3.966853800000000e+00 -4.90395220e-01   4.28496761e+00   1.82429588e+00
C     1.349438830920000e+01   6.785510844735023e+00   4.485735600000000e+00  2.55617920e-01  -2.52669576e+00   1.69367425e+00
C     4.864981927500000e+00   7.560726704354023e+00   4.782584700000000e+00 -6.33853330e-01  -2.07167541e+00  -1.83055659e+00
C     6.050757063699999e+00   6.782306239491983e+00   5.029737300000000e+00  2.38417936e+00  -1.23485656e+00  -1.41869843e+00
C     7.480567446400000e+00   7.463377288426259e+00   4.989704700000000e+00 -5.36780334e+00  -1.28256100e-02  -1.20487014e+00
C     8.689736911599999e+00   6.690757031822864e+00   4.921875600000000e+00 -5.12977627e+00  -2.84641631e+00  -2.31451500e-01
C     9.830733597300000e+00   7.346144786595815e+00   4.728257699999999e+00  6.19934540e-01   2.94322265e+00  -6.43461480e-01
C     1.099525047490000e+01   6.705317667103255e+00   4.360776000000000e+00  1.21718929e+00  -4.18793877e+00  -6.41524200e-02
C     1.219308182750000e+01   7.367947271274190e+00   4.571809800000000e+00  3.48606411e+00   3.24542226e+00  -3.15597854e+00
