32
Lattice="9.86 0 0 4.93 8.53901048131456 0 0 0 30 " PBC="1 1 1" Properties=species:S:1:pos:R:3:force:R:3 Energy="-253.86592262"
C     4.990642796100000e+00   8.499316462833196e+00   3.715505700000000e+00 -2.70652492e+00   5.59658970e+00   4.91985710e-01
C     1.209016832400000e+00   8.376806852526112e-01   3.684417000000000e+00  9.69597810e-01  -2.24819458e+00   1.03123960e+00
C     2.471423790000000e+00   1.271012924124944e-01   4.054758300000000e+00 -1.73782274e+00   4.33702970e-01  -1.03364143e+00
C     3.660947944699999e+00   8.760685753763945e-01   3.993247200000000e+00  6.35411420e-01  -2.02995059e+00   1.93285590e-01
C     4.902039702199999e+00   9.742020432464320e-02   4.045400400000000e+00 -1.06959255e+00  -1.64376920e-01  -1.39766470e-01
C     6.118570889899999e+00   7.993786975742567e-01   4.038854100000000e+00 -1.45021699e+00   7.58202430e-01  -3.48068010e-01
C     7.327767519399999e+00   2.376983853692448e-01   4.014035100000000e+00  3.79402762e+00  -6.23989856e+00  -7.78497650e-01
C     8.619054219800001e+00   7.649097009201649e-01   3.765171300000000e+00  2.83648950e-01   1.91146371e+00   3.92708450e-01
C     1.101173910640000e+01   2.260505602657702e+00   3.522037200000000e+00  1.83669023e+00  -1.62489490e-01   6.47106490e-01
C     2.449498058700000e+00   2.974197037867255e+00   3.649899300000000e+00 -2.47413289e+00   2.26928710e-01  -3.74162620e-01
C     3.598624117200000e+00   2.284954668244248e+00   3.835735200000000e+00  4.37781644e+00  -1.25469869e+00   2.21907930e-01
C     4.922512759700000e+00   2.944280956210994e+00   3.896986200000000e+00 -1.10637069e+00   7.44963440e-01  -2.54247650e-01
C     6.165059113700000e+00   2.148974939685174e+00   3.945663900000000e+00 -2.27725115e+00   6.48876554e+00   8.03214760e-01
C     7.356647508699999e+00   2.980781810408802e+00   4.023617400000000e+00  1.12355687e+00  -2.94839994e+00  -1.59102266e+00
C     8.581258325499999e+00   2.242483935649557e+00   3.756113700000000e+00  4.47977300e-01  -1.08893404e+00   2.12258400e-01
C     9.779514791999999e+00   2.958505496038893e+00   3.559922400000000e+00 -1.76740520e-01   8.25484580e-01   1.24880600e-02
C     1.235434400090000e+01   4.397122374035591e+00   3.686460600000000e+00 -3.02990731e+00  -1.42316429e+00  -4.11125630e-01
C     3.589859316700000e+00   5.167051988436738e+00   3.905649900000000e+00  4.53358993e+00  -2.65610570e-01   7.67940100e-02
C     4.907885597600000e+00   4.404668212206663e+00   3.915909600000000e+00  1.89596130e-01  -1.17879400e-01   1.43220244e+00
C     6.183372239600000e+00   5.083802186613550e+00   4.214379000000000e+00 -1.95318686e+00   1.85294260e-01  -1.47501549e+00
C     7.414122631900000e+00   4.381161255646376e+00   4.075185300000000e+00 -7.70802990e-01   1.00087738e+00   1.21610059e+00
C     8.641971620600000e+00   5.156030943780517e+00   4.081359900000000e+00 -9.76047350e-01  -3.36760478e+00  -1.62969068e+00
C     9.784147513000001e+00   4.407232477053806e+00   3.620014800000000e+00  9.46985680e-01  -8.15790470e-01   1.41306115e+00
C     1.107685084890000e+01   4.997497980741666e+00   3.642349200000000e+00 -5.56053760e-01   3.67115177e+00   9.39085380e-01
C     1.348017023850000e+01   6.618181847000724e+00   4.008987000000000e+00  9.33056120e-01  -3.15666491e+00  -3.20482700e-01
C     4.934085293800000e+00   7.162048758663198e+00   4.020163500000000e+00 -1.16658151e+00   1.32198283e+00  -2.29357290e-01
C     6.131128832400000e+00   6.523624004379082e+00   4.220804100000000e+00  2.32157450e+00  -2.26290609e+00   3.13407760e-01
C     7.388383249800000e+00   7.221705701480671e+00   4.267530000000000e+00 -2.25759742e+00   2.30503290e+00  -6.93896830e-01
C     8.579265718100000e+00   6.536783729600124e+00   4.196769000000000e+00  1.77928890e+00  -4.63874380e-01  -5.49588410e-01
C     9.810165686600000e+00   7.189026054472663e+00   3.991480500000000e+00  1.44098885e+00   1.00924236e+00   8.17586070e-01
C     1.106681400980000e+01   6.425287051889306e+00   3.903404100000000e+00 -1.51499100e-01   2.74986172e+00  -4.88086820e-01
C     1.228216194820000e+01   7.310221596456979e+00   3.975271200000000e+00 -1.75347799e+00  -1.21910661e+00   1.02217990e-01
