32
Lattice="9.86 0 0 4.93 8.53901048131456 0 0 0 30 " PBC="1 1 1" Properties=species:S:1:pos:R:3:force:R:3 Energy="-254.03646285"
C     1.047131852100000e+00   6.477241636473609e-01   3.127539600000000e+00  4.22932690e-01  -4.89584745e+00  -4.59271530e-01
C     2.190247550400000e+00   1.295661119435883e+00   3.464052900000000e+00  3.49968330e+00  -6.22855320e-01  -9.21057060e-01
C     3.440913417200000e+00   5.675157865769392e-01   3.404567100000000e+00  2.70231473e+00   4.54943360e-01   1.56767420e-01
C     4.790377667200000e+00   1.280214732598402e+00   3.356657700000000e+00 -2.55764083e+00  -7.12499420e-01   1.05021000e-03
C     6.022214089199999e+00   5.969231139888016e-01   3.156567000000000e+00 -1.19338310e-01  -8.59335370e-01   2.29468674e+00
C     7.285836488999999e+00   1.309862689325590e+00   3.135891900000000e+00 -2.43792941e+00   9.34226470e-01   3.74864490e-01
C     8.465128034299999e+00   6.152646523295272e-01   3.054082800000000e+00  2.38174775e+00  -2.06300348e+00  -2.07500020e-01
C     9.755973992700000e+00   1.315592792308194e+00   2.978834700000000e+00 -3.56019428e+00   2.07723425e+00   9.64042030e-01
C     2.231217625200000e+00   2.670486038790170e+00   3.572092200000000e+00  1.23381435e+00   3.04138616e+00   3.70721740e-01
C     3.486002457700000e+00   3.354510389889058e+00   3.660016200000000e+00  1.48502503e+00   2.19447250e+00   6.28211800e-01
C     4.737682376200000e+00   2.675993700549769e+00   3.522030900000000e+00  1.04346691e+00   4.66738720e-01  -4.86950770e-01
C     5.996464058300000e+00   3.389270822970833e+00   3.437385000000000e+00  1.39928760e-01   1.39442432e+00   5.37836690e-01
C     7.261154937000000e+00   2.735537074527858e+00   3.317236800000000e+00 -1.51873300e-02  -8.96309700e-02  -1.65460995e+00
C     8.516598811900000e+00   3.476986612665166e+00   3.156986100000000e+00 -2.71909670e-01  -2.82489867e+00   1.52397844e+00
C     9.774351849500000e+00   2.757076643073553e+00   3.172023000000000e+00 -1.51984268e+00   3.36535900e-01  -3.02480740e-01
C     1.094508230190000e+01   3.496203314189986e+00   3.471087600000000e+00 -5.73405150e-01   8.05759190e-01   1.14721226e+00
C     3.594520730300000e+00   4.829756292630870e+00   3.777670500000000e+00 -1.10204502e+00   1.22126890e+00  -1.64261621e+00
C     4.841950988799999e+00   5.591082256242683e+00   3.395646600000000e+00 -2.80081390e+00  -1.93323224e+00   7.25283650e-01
C     6.022038877000000e+00   4.864006519836463e+00   3.431837100000000e+00  5.48773370e-01  -2.29756516e+00  -1.08665174e+00
C     7.237958744699999e+00   5.534981555119817e+00   3.245307900000000e+00  1.02233320e+00  -7.72676100e-02   1.17216578e+00
C     8.523323775599998e+00   4.817786393130110e+00   3.367922400000000e+00 -1.57119307e+00   3.88901780e+00  -1.04527116e+00
C     9.696713667199999e+00   5.638491867108901e+00   3.488363400000000e+00  1.08088595e+00  -1.79825413e+00   1.82479541e+00
C     1.092593245640000e+01   5.008698856958597e+00   3.804028800000000e+00  8.91639360e-01  -4.30095404e+00  -2.39833856e+00
C     1.221331538560000e+01   5.653232419340106e+00   3.830100000000000e+00 -1.10419200e-01  -2.69219983e+00  -4.51331930e-01
C     4.817383024000000e+00   6.952705523834471e+00   3.024511200000000e+00 -3.36362057e+00   1.25837903e+00   2.02916149e+00
C     5.992426979899999e+00   7.693081366794023e+00   3.003830100000000e+00  1.03892706e+00   1.08468026e+00   7.64215020e-01
C     7.182904251500000e+00   6.952037004703991e+00   3.221198700000000e+00  2.34869377e+00   1.12594191e+00  -3.62989980e-01
C     8.445023790099999e+00   7.697076086676776e+00   3.364097400000000e+00 -6.09403900e-01  -1.19239780e-01   4.32520380e-01
C     9.726265073200000e+00   7.019753151002592e+00   3.592322400000000e+00 -3.05966894e+00   1.43199090e+00  -1.54672747e+00
C     1.093393256460000e+01   7.713654660913802e+00   3.517217400000000e+00  5.66571380e-01   1.62535299e+00  -1.40071356e+00
C     1.215137560510000e+01   7.008211568267510e+00   3.524133300000000e+00  2.47667217e+00   1.50800960e+00   2.37039500e-01
C     1.339051853360000e+01   7.698875683135436e+00   3.225582000000000e+00  7.89202480e-01   4.36421180e-01  -1.21804235e+00
