32
Lattice="9.86 0 0 4.93 8.53901048131456 0 0 0 30 " PBC="1 1 1" Properties=species:S:1:pos:R:3:force:R:3 Energy="-253.93335703"
C     4.919084388400000e+00   8.204120735786976e+00  -7.805990999999999e-01  4.89041477e+00   1.48989108e+00  -2.89234990e-01
C     1.360965792100000e+00   4.250194267799480e-01  -8.181612000000023e-01 -3.70618099e+00   3.80147310e-01  -2.65123640e-01
C     7.454438643600000e+00   8.227516770601127e+00  -7.253360999999998e-01 -9.32510200e-02   2.04726100e-01  -9.03577610e-01
C     3.714877757000000e+00   4.197997858438384e-01  -9.678807000000020e-01  2.03570118e+00  -1.43358010e+00   1.74780194e+00
C     9.912049510299999e+00   8.317333583824064e+00  -9.433830000000007e-01  8.40395380e-01  -3.47667568e+00  -1.29131672e+00
C     6.223312881100000e+00   4.521123407913112e-01  -1.075800300000001e+00  9.08815000e-03   2.50506030e-01   8.33252680e-01
C     1.238151732280000e+01   8.231792082368255e+00  -1.096784400000001e+00 -8.12456200e-02  -4.26866550e-01   8.81058070e-01
C     8.674483984600000e+00   3.399135856388272e-01  -8.686928999999992e-01 -7.34050250e-01   3.88901051e+00   4.73916500e-02
C     1.382523301700000e+00   1.839017739832073e+00  -1.129446899999998e+00 -2.65698454e+00  -8.47110480e-01   1.51673321e+00
C     2.603996567900000e+00   2.532289241550068e+00  -1.162723499999998e+00 -2.07324401e+00   2.00015578e+00  -2.83891860e-01
C     3.785854474000000e+00   1.797412179779216e+00  -9.557439000000016e-01  3.59325760e-01   2.85011016e+00  -1.22120722e+00
C     5.023839197599999e+00   2.560135210895663e+00  -9.305543999999983e-01 -1.06559772e+00   1.24465811e+00  -8.34526090e-01
C     6.245496993699999e+00   1.896217326213610e+00  -9.679845000000000e-01  1.40513671e+00  -1.42803673e+00   1.16295537e+00
C     7.518721801000000e+00   2.578884657767018e+00  -7.746725999999988e-01 -1.51509561e+00  -4.77085520e-01  -1.44043216e+00
C     8.750314385199999e+00   1.863744067088904e+00  -7.570946999999997e-01 -2.19499674e+00  -2.42636661e+00  -1.34746180e+00
C     9.892191667499999e+00   2.559627395942417e+00  -1.034670599999998e+00  4.86471406e+00   2.84056700e-02   1.04237328e+00
C     2.497566101000000e+00   4.024269982420688e+00  -1.348733700000000e+00  3.83178860e-01  -3.39082593e+00   1.20564680e+00
C     3.714024324700000e+00   4.654058808455857e+00  -1.314963899999999e+00  2.78432973e+00   3.36590902e+00   9.61278110e-01
C     4.959111304900000e+00   4.037322457670101e+00  -1.038655200000001e+00  4.00056000e-01  -2.75392098e+00   2.18145990e-01
C     6.195674364400000e+00   4.741766486090234e+00  -8.529024000000014e-01  1.17821357e+00  -4.64860048e+00  -1.77386978e+00
C     7.473535047900000e+00   3.969025744048965e+00  -9.584091000000008e-01  2.75347880e-01   1.44393744e+00   1.72999084e+00
C     8.739744760999999e+00   4.686102555353419e+00  -9.851537999999991e-01 -2.04183860e+00   2.32320540e-01   5.66088730e-01
C     9.988426894399998e+00   3.993539279164635e+00  -9.222794999999984e-01 -2.96381066e+00  -7.76920150e-01  -1.81585414e+00
C     1.113231615900000e+01   4.716030762404562e+00  -1.174077900000000e+00  2.35095676e+00  -2.05676450e-01  -1.23076641e+00
C     3.815038595000000e+00   6.133861895700739e+00  -1.219536300000001e+00 -5.50920650e-01  -1.91528620e+00   8.14404910e-01
C     5.011995513500000e+00   6.834060669670635e+00  -9.017708999999989e-01 -3.35352330e-01  -2.21615071e+00  -6.39075390e-01
C     6.257509234500000e+00   6.073069349879532e+00  -8.481482999999983e-01 -2.32875996e+00   4.10767615e+00   8.56356460e-01
C     7.412252140600000e+00   6.811439379277333e+00  -6.857034000000013e-01  3.46391429e+00  -4.60777690e-01  -1.77451472e+00
C     8.656881173100000e+00   6.110253666476160e+00  -9.911418000000012e-01  2.35804540e+00   5.39482040e-01   1.49122024e+00
C     9.980445175100000e+00   6.792447509898450e+00  -1.021594499999999e+00 -2.48107917e+00   2.96898856e+00  -6.76889730e-01
C     1.120330130630000e+01   6.133423588292801e+00  -1.311474600000000e+00 -1.76436350e+00  -1.01332889e+00   2.23178243e+00
C     1.244551271610000e+01   6.777861855317353e+00  -1.153756200000000e+00 -1.01204711e+00   2.90128466e+00  -1.51873842e+00
