32
Lattice="9.86 0 0 4.93 8.53901048131456 0 0 0 30 " PBC="1 1 1" Properties=species:S:1:pos:R:3:force:R:3 Energy="-257.17236898"
C     4.898498532500000e+00   8.433054083068816e+00  -1.079628000000028e-01  4.61069840e-01   1.38783194e+00  -3.03267460e-01
C     1.208609811600000e+00   6.327528019628816e-01  -1.729962000000000e-01  1.24314740e-01  -3.31979170e-01   9.40748160e-01
C     7.380170461399999e+00   8.456671705204922e+00  -1.382423999999993e-01 -2.01597400e+00  -1.23690809e+00  -7.44409650e-01
C     3.623759475700000e+00   6.134084422313848e-01  -1.338258000000003e-01  3.41279160e+00   1.79168511e+00   3.02400120e-01
C     9.845650248999998e+00   8.472286822889490e+00  -1.856919000000019e-01 -2.21925281e+00  -1.11405053e+00   1.92438040e-01
C     6.104861743099999e+00   6.380870364196328e-01  -1.909718999999974e-01  2.11300537e+00  -7.04565190e-01   6.48730100e-02
C     1.229058756470000e+01   8.445701723831371e+00  -1.403981999999999e-01  2.97900000e-05   7.14956580e-01   7.03820600e-02
C     8.602490257900000e+00   6.187068982342249e-01  -1.095927000000003e-01 -4.35987400e-02   5.28048200e-01   4.97328200e-02
C     1.250202644000000e+00   2.058374928421011e+00  -8.997869999999963e-02 -2.14816818e+00  -2.84894200e-01  -2.48785700e-02
C     2.435777474300000e+00   2.789892060348193e+00  -3.366929999999968e-02  1.25071283e+00  -1.12147191e+00   3.28979840e-01
C     3.674346698700000e+00   2.060030898723398e+00  -1.781880000000058e-02 -1.37459930e-01  -4.14670690e-01  -8.27127070e-01
C     4.929735357600000e+00   2.749731471648762e+00  -7.495499999999922e-02 -1.02630814e+00   1.00578508e+00  -2.31293120e-01
C     6.148442104999999e+00   2.041024342246490e+00  -2.109734999999979e-01 -1.67779220e-01   1.16435581e+00   9.68830020e-01
C     7.368653537699999e+00   2.779909273976235e+00  -1.388027999999970e-01  1.42955562e+00   9.54552300e-02  -3.19753120e-01
C     8.640660437799999e+00   2.072600749100482e+00  -8.102879999999857e-02 -1.87840039e+00  -1.17821105e+00  -4.86141660e-01
C     9.847720208099998e+00   2.764393379593446e+00  -6.528300000000087e-02  5.97714520e-01   1.16414689e+00   2.28710510e-01
C     2.424142378500000e+00   4.187837204478127e+00   8.174700000000000e-03  1.54575600e-02   4.88750870e-01  -1.68994860e-01
C     3.637541882300000e+00   4.883552570995498e+00  -5.159460000000138e-02  1.61598534e+00   7.87171100e-01  -1.70153100e-02
C     4.902878985399999e+00   4.211148959258842e+00  -7.177320000000265e-02 -6.65016360e-01  -2.01312390e+00  -6.67007000e-02
C     6.116256402799999e+00   4.895700081914241e+00  -1.509123000000017e-01  1.33939393e+00   1.00836606e+00  -5.01159120e-01
C     7.390324585200000e+00   4.217002450942881e+00  -1.869867000000021e-01 -7.41247840e-01  -3.53082490e-01   2.74246750e-01
C     8.633948686499998e+00   4.966239395857740e+00  -1.875098999999985e-01 -1.53233068e+00  -2.64019518e+00   3.85113050e-01
C     9.816727713800001e+00   4.219598993249640e+00  -2.860259999999926e-02  1.42472631e+00  -7.91061540e-01  -6.17693210e-01
C     1.107548795040000e+01   4.912656336584798e+00  -4.413899999999416e-03 -1.40095158e+00  -3.67926170e-01  -2.18600090e-01
C     3.670885838700000e+00   6.306587206497978e+00  -1.181045999999988e-01 -1.17025780e-01   3.59423390e-01   7.91605960e-01
C     4.920993284400000e+00   7.026236138539217e+00  -1.022657999999979e-01 -1.31985299e+00  -2.24588330e-01  -6.31142220e-01
C     6.124122316399999e+00   6.331747315487194e+00  -2.106417000000000e-01  1.47592995e+00  -8.64191390e-01   5.17668160e-01
C     7.388754183000000e+00   7.017237387734975e+00  -2.284064999999984e-01 -1.72263999e+00   1.39099912e+00   7.85346500e-02
C     8.607596061699999e+00   6.353840382692202e+00  -2.450541000000008e-01  1.22914220e-01  -4.36696570e-01   4.55572900e-01
C     9.827315825499999e+00   7.020250719143261e+00  -1.663488000000015e-01  6.00944840e-01   2.19656163e+00  -1.90991140e-01
C     1.103347651170000e+01   6.319394868316930e+00  -8.482349999999883e-02  2.05059132e+00   2.57200320e-01   1.21260030e-01
C     1.230570452230000e+01   7.032457576184841e+00  -8.250569999999868e-02 -8.99131140e-01  -2.63120920e-01  -4.21928790e-01
