32
Lattice="10.012 0 0 5.006 8.6706463426898 0 0 0 30 " PBC="1 1 1" Properties=species:S:1:pos:R:3:force:R:3 Energy="-257.59749177"
C     5.813649219163364e-04   1.681741056735645e-04   2.999502463396795e+00 -2.71300800e-02  -1.59475500e-02   6.16941000e-03
C     1.252202299062471e+00   7.225485412083368e-01   2.999046132197083e+00 -5.14817200e-02  -8.00650000e-03   4.38135000e-03
C     2.502721064485526e+00  -2.637090952800264e-04   2.999593326522318e+00  9.11395000e-03   1.11577300e-02   1.43044000e-03
C     3.753455124541371e+00   7.222164518724697e-01   2.999771955171219e+00  8.89578800e-02  -1.84427000e-03   5.30742000e-03
C     5.007084461449303e+00  -5.206433592960512e-04   3.000847619369591e+00 -3.96660300e-02   2.46452100e-02  -1.66367300e-02
C     6.258724512658695e+00   7.223417931957904e-01   3.000493314831363e+00 -4.55783300e-02   4.26623000e-03   2.09697000e-03
C     7.510151203245478e+00  -1.527165206633403e-04   3.000466769957583e+00 -2.88038400e-02   2.67637200e-02  -2.31794000e-03
C     8.759992271089029e+00   7.237501007535826e-01   3.000483884106491e+00  6.96828700e-02  -8.71154900e-02  -1.42084000e-02
C     1.250328062377305e+00   2.166738172789846e+00   2.999410052491091e+00  7.14735600e-02   7.07663600e-02  -1.66580000e-04
C     2.503968445800986e+00   2.891112396082304e+00   3.000376069792432e+00 -7.62979400e-02  -9.13580300e-02  -2.79099000e-03
C     3.755293955260265e+00   2.167782842319498e+00   3.000052516499308e+00 -4.70099100e-02  -2.55767400e-02   7.35039000e-03
C     5.006257663462190e+00   2.889405340721769e+00   3.001175433004457e+00 -2.88255000e-03   8.30943000e-03  -1.93477500e-02
C     6.256666707634931e+00   2.167584637187094e+00   3.000051153263740e+00  9.02463500e-02   1.71026000e-03   1.42582500e-02
C     7.509752113087246e+00   2.891428708158317e+00   3.000545671115012e+00 -6.82998400e-02  -1.04833420e-01  -1.96749200e-02
C     8.760314760122965e+00   2.166576781920640e+00   2.998943988325017e+00 -1.66975100e-02   9.06931600e-02   1.67663100e-02
C     1.001079276510276e+01   2.890061494792493e+00   2.999162947892946e+00  5.62689400e-02  -2.43096900e-02   9.83300000e-04
C     2.502256622512241e+00   4.334085250657241e+00   3.000841963607412e+00  5.23515700e-02   7.91615400e-02  -1.29206900e-02
C     3.754769974546285e+00   5.057853866121092e+00   2.999582063661457e+00 -2.63873600e-02  -4.49021800e-02   1.18207000e-03
C     5.006571583408024e+00   4.334156117633524e+00   2.999447355351582e+00 -5.03521400e-02   4.18926700e-02   1.10916700e-02
C     6.256726273748617e+00   5.056861578796180e+00   2.999649125891245e+00  4.47155500e-02   7.81413000e-03   1.46401000e-03
C     7.508387252640839e+00   4.334164646107940e+00   2.999263786318438e+00  3.10333100e-02   6.95151000e-02   1.06446800e-02
C     8.760139789530927e+00   5.057848985752980e+00   2.999677922899826e+00  9.56644000e-03  -6.80495000e-03   2.55362000e-03
C     1.001240715737860e+01   4.335202173068039e+00   2.999838577544074e+00 -5.85118900e-02  -2.10729000e-03  -5.95284000e-03
C     1.126299342130052e+01   5.057446276840588e+00   2.999674635170905e+00  2.19879300e-02  -1.59709000e-03   1.26057900e-02
C     3.754170220594107e+00   6.502533522550651e+00   2.998774114505103e+00  3.83697300e-02   1.61461600e-02   1.31454600e-02
C     5.006476998614533e+00   7.224719582943035e+00   3.000182743440103e+00 -1.27336100e-02   3.19594300e-02  -8.11684000e-03
C     6.258077273907002e+00   6.502106093930142e+00   3.000757439066923e+00 -3.85428600e-02   1.24524800e-02  -8.55512000e-03
C     7.508217616494993e+00   7.226116973093658e+00   3.000550784081142e+00  5.48460400e-02  -5.48483300e-02  -1.44098000e-03
C     8.760613708766336e+00   6.502735676073613e+00   3.000435463264940e+00 -1.25200900e-02   1.85874400e-02  -1.05625200e-02
C     1.001323218022278e+01   7.225008164299792e+00   2.999117718499794e+00 -6.01038000e-02   6.91611000e-03   2.36022300e-02
C     1.126297345374877e+01   6.502412669981391e+00   3.000411184724193e+00  7.78630200e-02   2.68858700e-02  -1.72854700e-02
C     1.251597194161327e+01   7.226684330373645e+00   2.999567382356968e+00 -5.34776300e-02  -8.03914800e-02   4.94440000e-03
