32
Lattice="9.86 0 0 4.93 8.53901048131456 0 0 0 30 " PBC="1 1 1" Properties=species:S:1:pos:R:3:force:R:3 Energy="-257.22076263"
C     4.935844317800000e+00   8.514904341074331e+00  -3.009926999999983e-01 -2.15781200e-02  -6.99044000e-01   5.53367050e-01
C     1.251534483500000e+00   6.838966075021080e-01  -2.666712000000011e-01 -7.60849670e-01   6.92195180e-01  -5.18573330e-01
C     7.390875414100000e+00   8.511008417542831e+00  -3.285048000000010e-01  1.04561993e+00   6.29527470e-01   7.74636800e-01
C     3.707187154200000e+00   7.032930551975327e-01  -2.048865000000006e-01 -1.15141033e+00  -3.49685470e-01  -1.53577230e-01
C     9.843215420600000e+00   8.503371895080463e+00  -1.352879999999992e-01  5.82584080e-01   9.64419300e-02   9.41136700e-02
C     6.150859481199999e+00   6.441815843695231e-01  -1.523625000000024e-01  4.35986390e-01   1.96931481e+00  -9.52243000e-02
C     1.232418783180000e+01   8.503664270799298e+00  -1.294401000000001e-01  6.88677500e-02  -4.44350070e-01   3.41422000e-03
C     8.631130353400000e+00   6.684923179862928e-01  -2.711411999999989e-01 -9.47208000e-03   9.43151370e-01   1.15640730e-01
C     1.267199262700000e+00   2.122388218215065e+00  -1.506566999999990e-01 -9.27170030e-01  -2.75435960e-01   6.04708390e-01
C     2.477689918600000e+00   2.833655769909765e+00   5.055390000000000e-02 -1.89168770e-01   4.17779230e-01  -7.50663450e-01
C     3.682266152100000e+00   2.131488924804439e+00  -1.029014999999980e-01  1.61178145e+00  -7.84668260e-01   2.72839020e-01
C     4.949409656500000e+00   2.822333810524228e+00  -1.223261999999998e-01 -1.21136591e+00   1.42213950e-01   2.25995610e-01
C     6.160359344700000e+00   2.105000401954850e+00  -2.120303999999997e-01  9.87906060e-01  -5.36886610e-01  -1.98464190e-01
C     7.416298438100000e+00   2.828572582361125e+00  -2.935865999999976e-01 -6.29112050e-01   9.16369800e-02   2.29885180e-01
C     8.649656110199999e+00   2.117526532598277e+00  -3.068297999999992e-01  2.95669000e-03  -2.64430270e-01   5.97876720e-01
C     9.885700928099999e+00   2.836006474104804e+00  -1.399073999999985e-01 -3.11751810e-01  -1.22309210e-01  -4.87919420e-01
C     2.477334613500000e+00   4.267054800162555e+00   1.813011000000000e-01 -1.11375633e+00  -1.18411717e+00  -9.85241400e-02
C     3.685958574200000e+00   4.965921659277779e+00   1.222392000000000e-01  1.26097677e+00   4.07306000e-03  -3.24914910e-01
C     4.908305929400000e+00   4.242825272535450e+00  -6.062610000000035e-02  1.25193232e+00   5.80890070e-01  -5.24206550e-01
C     6.151831973000000e+00   4.969411723641165e+00  -2.738805000000006e-01 -1.16495720e-01  -6.42309320e-01   7.21829520e-01
C     7.405912012700000e+00   4.274724880936110e+00  -2.844252000000012e-01 -2.45964510e-01  -7.37956770e-01   1.01466140e-01
C     8.629190003999998e+00   4.995429405452886e+00  -1.643568000000002e-01  6.15889810e-01  -5.04552980e-01  -1.30816540e-01
C     9.876401074700000e+00   4.273800960002174e+00  -3.197039999999873e-02 -1.56684945e+00  -1.15816499e+00  -6.98249600e-02
C     1.107626122090000e+01   4.942365347236918e+00   1.684989000000000e-01  1.50950279e+00   1.24887837e+00  -2.38215590e-01
C     3.724768125800000e+00   6.388243458185389e+00   5.393040000000000e-02 -1.14282886e+00  -3.71989940e-01  -3.69838130e-01
C     4.925203800199999e+00   7.066110755777673e+00  -1.993847999999971e-01  8.48903400e-01   1.57925646e+00  -1.57011590e-01
C     6.170602800100000e+00   6.383493292045470e+00  -3.064746000000014e-01 -2.58655530e-01  -1.97216840e-01   2.76602920e-01
C     7.403664967999999e+00   7.100068521874328e+00  -3.261243000000000e-01  8.28739300e-02   5.65888600e-02   4.20148300e-02
C     8.655329011899999e+00   6.425345714891304e+00  -1.824437999999979e-01 -1.88413544e+00  -1.93509965e+00  -7.28097400e-02
C     9.852839224299998e+00   7.080691030782169e+00  -4.157430000000062e-02  1.76472474e+00   1.00416544e+00  -1.10378400e-02
C     1.110818878830000e+01   6.370535855982699e+00   1.279041000000000e-01 -1.15454110e+00   2.74282490e-01  -3.07786930e-01
C     1.232831281210000e+01   7.081918769708983e+00   5.898210000000000e-02  6.24599620e-01   4.77821850e-01  -1.04981970e-01
