32
Lattice="9.86 0 0 4.93 8.53901048131456 0 0 0 30 " PBC="1 1 1" Properties=species:S:1:pos:R:3:force:R:3 Energy="-251.95122095"
C     4.988440712999999e+00   8.477197095475908e+00  -1.749201000000014e-01 -1.20983397e+00  -2.70658205e+00   2.08258920e-01
C     1.278602796400000e+00   6.339967650096080e-01  -6.891540000000163e-02 -1.10211310e-01   1.45526933e+00  -2.04201348e+00
C     7.429815068399999e+00   8.481569751962507e+00  -2.712533999999991e-01  5.56581620e-01   2.22297595e+00   2.01116050e+00
C     3.779584943700000e+00   7.240869973481143e-01  -2.579700000000003e-01 -3.00981533e+00  -4.11160024e+00  -2.05828602e+00
C     9.857718889000001e+00   8.453870226646645e+00  -4.474352999999986e-01  1.28012122e+00  -8.00454150e-01   3.14414530e-01
C     6.161476975699999e+00   4.892923878826984e-01  -4.179455999999995e-01  3.22910092e+00   5.29015629e+00   1.28479063e+00
C     1.238744451390000e+01   8.368575844154126e+00  -4.727543999999995e-01 -1.26106290e+00   6.17612253e+00   5.99998760e-01
C     8.701190534099998e+00   6.416254315823352e-01  -2.710392000000006e-01 -1.08688657e+00  -1.15736809e+00  -6.68430580e-01
C     1.265896017200000e+00   2.067204777597960e+00  -3.381495000000001e-01 -9.57790560e-01  -9.33482200e-02  -1.01399330e-01
C     2.477820908700000e+00   2.689469710718991e+00  -6.738248999999996e-01 -7.37807780e-01   4.26445347e+00  -4.16510120e-01
C     3.719733412600000e+00   2.065387505387606e+00  -6.117068999999979e-01  4.89636840e-01  -6.77357250e-01   1.93430427e+00
C     4.959922536400000e+00   2.707895102142630e+00  -4.430037000000020e-01  1.70807146e+00   6.65005050e-01  -1.03279450e-01
C     6.186472618000000e+00   2.008358869995878e+00  -1.596305999999998e-01 -3.21286910e-01  -1.43226065e+00  -1.78680460e+00
C     7.390923333699999e+00   2.799821734074966e+00  -9.598320000000271e-02  1.04661801e+00  -4.52921406e+00  -1.54494949e+00
C     8.687518263699999e+00   2.057711874257239e+00  -3.434318999999988e-01 -2.83572245e+00   8.03269770e-01   2.70001544e+00
C     9.845459458000001e+00   2.838103398908378e+00  -3.416294999999998e-01  2.60863388e+00  -4.31699332e+00  -1.19935972e+00
C     2.471384004900000e+00   4.244950205293398e+00  -9.103665000000021e-01  2.66044639e+00  -4.51897304e+00   1.20680298e+00
C     3.749814990800000e+00   4.894836617174504e+00  -7.041563999999987e-01 -8.06035900e-01  -6.84527010e-01  -1.00801462e+00
C     5.049257439500000e+00   4.091253310839895e+00  -5.502564000000021e-01 -2.07718268e+00   4.29759303e+00  -4.80665830e-01
C     6.271870965400000e+00   4.896768141345079e+00  -4.860959999999999e-01 -2.98357235e+00  -9.64266520e-01   2.80368920e+00
C     7.408357539199999e+00   4.158993537148049e+00  -1.596432000000014e-01  2.20895570e+00   2.43485320e+00  -1.02807300e+00
C     8.677528555399999e+00   4.877667228802368e+00  -2.843115000000012e-01 -1.07135384e+00   2.64423889e+00  -1.15163794e+00
C     9.833539802599999e+00   4.158680838584272e+00  -6.633348000000012e-01  1.26089188e+00   3.09379613e+00   1.28511379e+00
C     1.111329528230000e+01   4.877235752602814e+00  -9.242691000000001e-01 -2.65454924e+00  -1.25861243e+00   8.34490800e-01
C     1.349785681070000e+01   6.337591158089391e+00  -6.570399000000009e-01  3.76816926e+00  -1.39681797e+00   6.47945720e-01
C     4.903241438999999e+00   6.941009811960224e+00  -2.676783000000000e-01 -2.12414300e-02   3.65676190e+00  -4.88382380e-01
C     6.155820293700000e+00   6.301475413264231e+00  -1.821111000000002e-01  3.94176800e-01   3.73246300e-02  -1.71481692e+00
C     7.365380214900000e+00   7.105801698900705e+00  -1.901961000000014e-01  2.05001636e+00  -2.43466834e+00  -1.63644330e-01
C     8.645622186999999e+00   6.419860510729266e+00  -3.177854999999994e-01 -4.67555910e-01  -4.04307240e+00  -2.54630910e-01
C     9.918340239599999e+00   7.023974837783904e+00  -5.428751999999974e-01 -3.86727624e+00  -2.62763680e-01   2.34459530e-01
C     1.102838027210000e+01   6.225277040905323e+00  -8.249322000000028e-01  3.03437639e+00   5.76696071e+00  -2.83587300e-02
C     1.232566392310000e+01   7.107171526961906e+00  -8.086269000000001e-01 -8.16611340e-01  -7.41990146e+00   1.73812380e-01
