32
Lattice="9.628 0 0 4.814 8.33809258763658 0 0 0 30 " PBC="1 1 1" Properties=species:S:1:pos:R:3:force:R:3 Energy="-256.77709717"
C     8.846223359399192e-04   2.496110022193621e-05   2.997740052965141e+00 -4.05118700e-02  -2.49117400e-02  -2.39934200e-02
C     1.206100231793372e+00   6.966568711913161e-01   2.996948399251364e+00 -1.86927070e-01  -7.46095100e-02   2.00196900e-02
C     2.408953036221595e+00   2.083510275043214e-03   3.001673855807784e+00 -1.01198140e-01  -1.64051150e-01   2.24592000e-03
C     3.610251749161219e+00   6.931167886898491e-01   3.003091834907948e+00  8.79149300e-02   1.51235650e-01  -5.11558900e-02
C     4.813785376663774e+00  -1.077633517937736e-03   2.997534691516543e+00  1.66252860e-01   9.44024100e-02   6.51357400e-02
C     6.021175685361404e+00   6.951134772651943e-01   3.000276351002210e+00 -2.67027430e-01  -3.46934300e-02  -2.31493300e-02
C     7.222617234316766e+00   1.344056674283865e-03   3.000904877094646e+00 -1.41147490e-01  -8.92462000e-02  -2.86509800e-02
C     8.421119183134859e+00   6.953270087557527e-01   2.998951340905865e+00  3.52875810e-01  -8.89353200e-02   1.51765400e-02
C     1.202948516131918e+00   2.086196751263363e+00   2.997505013300006e+00 -1.59824580e-01  -6.48820600e-02  -1.10727300e-02
C     2.403791052880414e+00   2.775878993829513e+00   2.998007013730566e+00  1.39827900e-01   3.49801920e-01   2.48747700e-02
C     3.606885980009894e+00   2.084739349413316e+00   2.998858898203584e+00  8.93753500e-02  -1.78419950e-01   1.18896800e-02
C     4.811701145233465e+00   2.776454375689318e+00   2.998166251296949e+00 -1.05497000e-03   1.91312800e-02  -4.84650000e-03
C     6.016148254330648e+00   2.083167561530273e+00   2.998980703307383e+00  1.40011640e-01   1.31540880e-01   2.77728700e-02
C     7.221840627443363e+00   2.782974432136198e+00   3.003527548674699e+00 -1.85098640e-01  -3.28069640e-01  -2.67144700e-02
C     8.422179951244580e+00   2.082207536864744e+00   3.001196467731360e+00  5.91300700e-02   2.55096020e-01  -1.27179000e-03
C     9.625381053184295e+00   2.781884770036981e+00   2.998625040878637e+00  5.57211700e-02  -2.88234340e-01   2.64826000e-02
C     2.408831412381386e+00   4.171243412484586e+00   3.002264661320051e+00 -2.44572470e-01  -3.53328930e-01  -3.95484500e-02
C     3.606109241125034e+00   4.861612883010397e+00   3.002322112334288e+00  3.37534900e-01   1.51041020e-01  -1.16032100e-02
C     4.810796192906113e+00   4.164518656571143e+00   2.998359826970511e+00  1.06864220e-01   2.07245260e-01   8.05442000e-03
C     6.017106432260782e+00   4.861842644893934e+00   2.997996344147975e+00 -2.11681490e-01   7.81177900e-02   3.69832200e-02
C     7.218426343915713e+00   4.168534251256404e+00   3.001853970083389e+00  1.41902020e-01   1.35951060e-01  -1.97747500e-02
C     8.421523279424353e+00   4.866106169754748e+00   2.999569710627055e+00  1.85742390e-01  -2.00651890e-01   3.80504800e-02
C     9.628518825654112e+00   4.166439414598368e+00   3.001995203617960e+00 -1.01602090e-01   3.50302260e-01  -5.14384900e-02
C     1.083463471987925e+01   4.863521586113609e+00   2.997459870833333e+00 -2.17895740e-01   8.61705000e-03   4.34755500e-02
C     3.609382782834711e+00   6.252896955447258e+00   3.000854170548679e+00 -8.64091200e-02   4.10439000e-03  -3.75709700e-02
C     4.814755669961368e+00   6.944815630726359e+00   2.996404602950658e+00 -9.80461900e-02   2.57614870e-01   5.43555300e-02
C     6.017856444152268e+00   6.254516119386285e+00   3.002203484812564e+00  5.37218100e-02  -1.98203130e-01  -4.73772300e-02
C     7.221858961876203e+00   6.948820975329395e+00   3.003027443257348e+00 -6.95079200e-02   6.24393200e-02  -2.48860000e-03
C     8.423278916711803e+00   6.253230728468293e+00   3.001434557315675e+00  1.41304220e-01   9.99122800e-02   8.15042000e-03
C     9.630706662980767e+00   6.948931101785790e+00   3.001585803227603e+00 -2.61895050e-01  -6.83077100e-02  -4.63473400e-02
C     1.083065026004831e+01   6.254024457510590e+00   2.997024333852403e+00  8.63088300e-02  -5.34479700e-02   1.21437100e-02
C     1.203195061179742e+01   6.950904110952599e+00   2.996926663654728e+00  2.29912140e-01  -1.46560500e-01   3.21930100e-02
