32
Lattice="9.86 0 0 4.93 8.53901048131456 0 0 0 30 " PBC="1 1 1" Properties=species:S:1:pos:R:3:force:R:3 Energy="-248.46012794"
C     9.746854577299999e+00   2.930350158343608e-01   4.465411800000000e+00  5.86730914e+00  -3.59136553e+00  -9.90423810e-01
C     1.171411088200000e+00   1.037163241559245e+00   4.640941500000000e+00 -8.35756880e-01  -4.66458727e+00  -2.32803331e+00
C     2.398013230600000e+00   3.884797200844560e-01   4.166086500000000e+00 -2.09163064e+00  -5.01887303e+00  -6.70750710e-01
C     3.702377396900000e+00   8.137194533347880e-01   4.332609300000000e+00 -7.22294690e-01   2.73564764e+00  -5.08418890e-01
C     4.888830013700000e+00   1.341253970432376e-01   4.034101500000000e+00  2.40071048e+00   1.06120861e+00   9.08725890e-01
C     6.114494519399999e+00   9.848314034919360e-01   4.181174400000000e+00  2.89442720e-01  -1.15495286e+00  -5.11319360e-01
C     7.399378973900000e+00   2.619723158508456e-01   4.217109300000000e+00 -2.48414392e+00  -1.35933000e-02   2.69111001e+00
C     8.642917884800001e+00   9.782015449750544e-01   4.721886600000000e+00 -5.57010152e+00   8.31747600e-02  -2.87184500e+00
C     1.100216056010000e+01   2.339178324083401e+00   4.959245999999999e+00  1.40832950e+00   5.27529173e+00   5.85174360e-01
C     2.517722899000000e+00   2.953777787496536e+00   4.941646500000000e+00 -2.07894732e+00   2.79688549e+00  -1.33675245e+00
C     3.722024482200000e+00   2.245902016154597e+00   4.581329700000000e+00 -1.09182047e+00   2.90398807e+00  -9.09466580e-01
C     4.771923543300000e+00   3.141673675092753e+00   4.052172900000000e+00  2.58941123e+00  -4.26508426e+00   2.52176055e+00
C     6.080564731100000e+00   2.502235511044869e+00   4.171326900000000e+00 -2.71765914e+00  -5.91999454e+00  -1.45151813e+00
C     7.308236486299999e+00   3.030176570431411e+00   4.155093000000000e+00  3.11509200e+00   4.49981867e+00   2.60758493e+00
C     8.537772471700000e+00   2.397262039610038e+00   4.698813600000000e+00  7.62072030e-01   2.19202159e+00  -7.58205140e-01
C     9.763304360399999e+00   3.229312699082870e+00   4.894305000000000e+00 -4.90090410e-01  -3.62504503e+00   5.14037040e-01
C     1.233775203660000e+01   4.493699521855544e+00   4.760567100000000e+00  6.44758600e-02  -6.18246050e-01  -2.83861590e-01
C     3.713455106900000e+00   5.205345864055137e+00   4.453088999999999e+00 -2.26014721e+00   6.51346890e-01  -1.73220601e+00
C     4.884542392700000e+00   4.496750424909943e+00   3.999357300000000e+00 -4.81603847e+00   3.61345700e-02   1.41196357e+00
C     6.056284629000000e+00   5.098417044610490e+00   3.730027200000000e+00  3.11736919e+00   5.18775486e+00   1.75496610e-01
C     7.278158704199999e+00   4.547382572941208e+00   4.062599400000000e+00  3.95821308e+00  -3.26868375e+00  -1.98889020e-01
C     8.600084171399999e+00   5.265498837991392e+00   4.236171900000000e+00 -4.06647955e+00   9.22308890e-01  -1.71824034e+00
C     9.750463090799999e+00   4.658646221056027e+00   4.824938400000000e+00  1.10994743e+00  -9.61553400e-01  -2.55295632e+00
C     1.104291070760000e+01   5.305300019739720e+00   4.600834500000000e+00  1.12861521e+00  -6.06932289e+00   1.87839468e+00
C     1.347025551550000e+01   6.649485176299566e+00   4.242623400000000e+00  4.64662820e-01  -1.68665709e+00   7.88830520e-01
C     4.827759342899999e+00   7.319884084545833e+00   3.999771900000000e+00  7.64069250e-01   2.46007041e+00   1.55225766e+00
C     6.077301219000001e+00   6.584981405743541e+00   3.696832800000000e+00 -2.12828182e+00   1.81192860e+00   4.00895210e-01
C     7.214300562100000e+00   7.417593419765328e+00   3.581785800000000e+00  3.10233561e+00   2.63080540e-01   2.79753176e+00
C     8.544831196400001e+00   6.661049643582735e+00   3.699460500000000e+00 -2.39314500e-02  -1.37384615e+00   2.82958415e+00
C     9.819201587799999e+00   7.232766623315833e+00   3.997602600000000e+00 -1.37900114e+00   3.43196246e+00  -1.73876933e+00
C     1.104551399410000e+01   6.568674542819990e+00   4.185185100000000e+00 -5.21256300e-01   2.81556542e+00   5.05506990e-01
C     1.220878284220000e+01   7.316514847180739e+00   4.331964299999999e+00  3.13552539e+00   3.10361598e+00  -1.60719794e+00
