32
Lattice="9.86 0 0 4.93 8.53901048131456 0 0 0 30 " PBC="1 1 1" Properties=species:S:1:pos:R:3:force:R:3 Energy="-257.52213642"
C     5.014408699200000e+00   7.137034922923505e+00  -2.848290000000020e-02 -1.90263357e+00   7.89114200e-02   1.58503550e-01
C     6.214699825999999e+00   7.845103675902292e+00  -2.008409999999827e-02  1.31158362e+00   4.47641700e-02  -5.89075570e-01
C     7.454459793300000e+00   7.100282082526433e+00  -1.019319000000003e-01 -3.71774340e-01   9.15109880e-01   1.69700200e-01
C     8.686855129400000e+00   7.800451994640905e+00  -1.081125000000007e-01  9.71593200e-02   1.21928021e+00   5.80476030e-01
C     9.918883180500000e+00   7.101162283726711e+00  -1.089509999999905e-02 -1.67655160e-01   7.27806050e-01  -6.78187340e-01
C     1.114628521540000e+01   7.830911498924113e+00  -4.323180000000093e-02  1.01749990e-01  -7.57774540e-01   7.25815710e-01
C     1.237741610510000e+01   7.110665690050322e+00   5.541150000000000e-02  5.39113540e-01   1.59234590e-01  -4.74189180e-01
C     1.360794592920000e+01   7.845446090222540e+00   4.877040000000000e-02  5.17099230e-01  -1.83009430e-01  -9.21986800e-02
C     1.296196093000000e+00   7.427244977920768e-01  -1.318350000000024e-02 -2.44658900e-02  -1.04138872e+00   9.18243230e-01
C     2.525693772300000e+00   1.430913324302062e+00   2.281170000000000e-02  4.74626940e-01  -5.71451660e-01  -7.25981680e-01
C     3.763934412199999e+00   7.132061632439745e-01  -6.690240000000003e-02 -5.17418780e-01  -3.85541640e-01   5.19483900e-02
C     4.977818633600000e+00   1.445068185804443e+00  -8.820749999999933e-02  4.39967980e-01  -9.46723940e-01  -7.22081000e-02
C     6.216245430300000e+00   7.061115263866664e-01  -7.420439999999928e-02 -8.58017380e-01   4.78947740e-01   9.58770000e-04
C     7.419175635399999e+00   1.414571622215752e+00  -3.876149999999967e-02  2.09745834e+00   1.68683781e+00   3.60626700e-02
C     8.678088997799998e+00   7.376383215897696e-01   5.990100000000000e-02  7.14431900e-02  -6.00772820e-01  -2.12179600e-01
C     9.940611613200000e+00   1.447701275076056e+00   8.528160000000000e-02 -1.57158981e+00   3.12586800e-02  -3.13934590e-01
C     2.521593392700000e+00   2.836363746303287e+00   7.187100000000000e-03  2.85707790e-01   7.40244600e-01   8.51046300e-02
C     3.745820458300000e+00   3.544081716731556e+00  -1.039379999999994e-01  6.36699310e-01   8.45399890e-01   6.75518700e-01
C     4.983107093899999e+00   2.862540766050566e+00  -1.153265999999995e-01  3.31005640e-01  -6.26825490e-01  -4.52043690e-01
C     6.226502492500000e+00   3.559281496946375e+00  -1.911998999999973e-01 -5.67704500e-02   7.61660630e-01   6.26087420e-01
C     7.478404211699999e+00   2.882040621162903e+00  -1.166336999999977e-01 -1.76766557e+00  -1.81929796e+00   2.57991800e-02
C     8.684961565699998e+00   3.587791032796370e+00  -6.239940000000033e-02  7.42120620e-01  -9.08919720e-01   4.70500960e-01
C     9.911161222899999e+00   2.867204773574742e+00   9.791700000000000e-02  9.48209510e-01   1.69487760e-01  -6.40598320e-01
C     1.117271050840000e+01   3.565279212517422e+00   7.151610000000000e-02 -1.53996617e+00   3.48059540e-01  -1.05091600e-01
C     3.775791062200000e+00   4.971486873968014e+00  -3.666360000000068e-02 -7.14957480e-01   3.24707240e-01  -4.24700370e-01
C     4.989303512299999e+00   5.722423594309021e+00  -1.233332999999988e-01  4.33436070e-01  -1.01474340e+00   6.18587460e-01
C     6.217977783000000e+00   4.989057937393130e+00  -1.446299999999994e-01  7.73024100e-02  -6.17499300e-02  -4.21750730e-01
C     7.461436581399999e+00   5.686396911363167e+00  -1.248470999999967e-01 -6.76178620e-01   1.95859370e-01  -8.25871300e-02
C     8.687482373300000e+00   4.988490007806105e+00  -9.164850000000158e-02 -5.84305400e-02   2.70620930e-01   2.76674290e-01
C     9.906093971699999e+00   5.693799806498804e+00   8.625000000000001e-03  4.98533310e-01   6.32117600e-02  -1.77428490e-01
C     1.113745415570000e+01   5.003916584139272e+00   4.143240000000000e-02  1.14948502e+00  -1.38563727e+00   1.65565190e-01
C     1.239756683920000e+01   5.669113783371439e+00   4.431420000000000e-02 -5.25178100e-01   1.24243425e+00  -1.23391330e-01
