32
Lattice="9.86 0 0 4.93 8.53901048131456 0 0 0 30 " PBC="1 1 1" Properties=species:S:1:pos:R:3:force:R:3 Energy="-255.26110458"
C     1.106752314100000e+00   8.176110219709432e-01   3.442630500000000e+00  4.23960810e-01  -1.55223487e+00   3.71876520e-01
C     2.373119787200000e+00   1.453088195227469e+00   3.662799000000000e+00 -1.97282564e+00   3.27805259e+00  -2.34728570e-01
C     3.590625389400000e+00   8.228091446006432e-01   3.697587300000000e+00  1.23175595e+00  -3.17358693e+00  -2.82971980e-01
C     4.843232788800000e+00   1.479580816802088e+00   3.740561100000000e+00 -1.12315230e+00   1.72419052e+00   4.50128750e-01
C     6.023335319100000e+00   7.176111825802921e-01   3.686680200000000e+00  1.09533839e+00   2.66807386e+00  -9.97627630e-01
C     7.264312799199999e+00   1.485699530151637e+00   3.436926900000000e+00 -9.14450920e-01  -1.00449566e+00   1.51200731e+00
C     8.475685432100001e+00   7.163564603803607e-01   3.418756800000000e+00 -2.33960870e-01   8.82411710e-01  -9.40275570e-01
C     9.687205324100001e+00   1.453868746175446e+00   3.313209600000000e+00  1.75627143e+00   1.18862295e+00   1.55845514e+00
C     2.343291611000000e+00   2.921712607682669e+00   3.816539700000000e+00  2.13160126e+00  -3.20482298e+00  -2.96076670e-01
C     3.560366429800000e+00   3.625755217220136e+00   3.850877700000000e+00  3.71071790e-01   4.36607720e-01   8.06109540e-01
C     4.830005648100000e+00   2.948062542392167e+00   3.831057300000000e+00 -1.93982110e+00  -2.10856062e+00  -4.62026000e-01
C     5.999013459900000e+00   3.669544202252729e+00   3.768414000000000e+00  2.09174670e+00  -3.68489026e+00  -1.10095918e+00
C     7.249494057300001e+00   2.939316546298132e+00   3.523501200000000e+00 -1.23883896e+00  -1.76918132e+00   7.85211630e-01
C     8.445232279799999e+00   3.627001571189797e+00   3.597019200000000e+00  3.14632987e+00  -2.30217573e+00  -1.26950595e+00
C     9.758286261300000e+00   2.860647155086521e+00   3.528118500000000e+00 -2.37251808e+00   1.32947786e+00   5.56710470e-01
C     1.100394319880000e+01   3.565829978693382e+00   3.835749600000000e+00 -2.69225003e+00  -1.07757740e+00  -1.51392440e+00
C     3.528299737800000e+00   5.065387468953011e+00   3.918544200000000e+00  1.56485269e+00  -5.78288200e-02  -9.99668230e-01
C     4.769663039699999e+00   5.725067101173420e+00   3.677977200000000e+00  3.71996900e-01   1.72487397e+00   4.73882120e-01
C     5.983768568799999e+00   5.002943563895077e+00   3.667155600000000e+00  1.03023174e+00   4.07979794e+00   1.42593660e-01
C     7.238560155399999e+00   5.720908005338926e+00   3.625170300000000e+00 -5.53817910e-01   2.17934027e+00  -4.56908090e-01
C     8.441846306500000e+00   5.008355844907615e+00   3.577926300000000e+00  1.37638850e+00   1.72527016e+00   1.77117759e+00
C     9.684905183300000e+00   5.696046590936302e+00   3.818750700000000e+00  1.86777976e+00  -4.37557380e-01  -5.89475280e-01
C     1.098921290110000e+01   4.925023983193714e+00   3.853263600000000e+00 -1.83472922e+00   6.14299762e+00   1.11484470e+00
C     1.219742441800000e+01   5.814312483815035e+00   3.951332100000001e+00 -1.84718206e+00  -3.95324816e+00  -6.10157190e-01
C     4.824069484400001e+00   7.181328136524943e+00   3.515895000000000e+00 -1.49953590e-01  -1.39011422e+00   5.46988660e-01
C     6.055783247999999e+00   7.948131619189362e+00   3.517534500000000e+00  1.25178510e-01  -1.80633680e+00  -4.27573900e-01
C     7.311845690000000e+00   7.213225439392772e+00   3.609097200000000e+00 -1.97140863e+00  -1.77377557e+00  -3.26989850e-01
C     8.541906473899999e+00   7.878827558501900e+00   3.631254000000000e+00 -5.68539310e-01   1.22931544e+00   1.26551741e+00
C     9.727712373299999e+00   7.141572638482682e+00   3.874977600000000e+00 -3.75373140e-01  -8.28244360e-01  -1.50065660e+00
C     1.093044281480000e+01   7.870612945030035e+00   3.758970600000000e+00  1.14364040e+00  -6.24781650e-01   6.09822130e-01
C     1.217181794870000e+01   7.187796863914067e+00   3.771770700000000e+00  6.00951530e-01  -1.87797430e-01  -3.58902910e-01
C     1.342740780090000e+01   7.815254967038719e+00   3.515237400000000e+00 -5.40274440e-01   2.34817756e+00   4.03102360e-01
