32
Lattice="9.86 0 0 4.93 8.53901048131456 0 0 0 30 " PBC="1 1 1" Properties=species:S:1:pos:R:3:force:R:3 Energy="-250.31986893"
C     4.961795492699999e+00   8.352055420578470e+00  -9.135329999999975e-01  3.19806233e+00  -1.64957537e+00   6.47102360e-01
C     1.379198509700000e+00   5.159525448429352e-01  -7.266884999999981e-01 -3.83727169e+00  -3.71243041e+00  -2.32198740e+00
C     7.458250174500000e+00   8.291465847036372e+00  -8.554119000000000e-01  1.78234320e+00  -2.08643798e+00   2.90499160e-01
C     3.791177789400000e+00   4.484170840060912e-01  -8.600373000000019e-01 -3.09547771e+00  -4.25222110e-01   1.77502351e+00
C     9.845906362499999e+00   8.287289758571022e+00  -5.571632999999991e-01  5.09277922e+00  -3.39559458e+00  -1.47499608e+00
C     6.195102928100000e+00   4.148405847273688e-01  -7.142354999999974e-01 -1.31375273e+00   1.03776215e+00   1.03718540e+00
C     1.239145620280000e+01   8.192206083684022e+00  -5.582810999999985e-01 -1.12549456e+00   1.58324801e+00  -6.92810540e-01
C     8.633164717900000e+00   3.766536175201800e-01  -9.654699000000022e-01  6.44997980e-01   2.63066030e+00   2.05694308e+00
C     1.348132114700000e+00   1.833020792771969e+00  -5.442875999999970e-01 -1.39931050e+00   3.56731717e+00   1.11670720e+00
C     2.570020634800000e+00   2.489570023750409e+00  -1.804664999999979e-01 -2.27199614e+00   1.82623374e+00  -1.12672833e+00
C     3.714435190900000e+00   1.798959533868297e+00  -5.331212999999977e-01  3.35640324e+00   4.87254919e+00   1.69851540e-01
C     4.988890871300000e+00   2.758551159403239e+00  -6.033195000000013e-01 -1.96918741e+00  -5.82528936e+00   7.76243070e-01
C     6.078144643400000e+00   1.927286601235195e+00  -8.359839000000022e-01  6.20269869e+00  -1.00776163e+00   2.50913400e-02
C     7.500843451799999e+00   2.608157751934134e+00  -8.842985999999975e-01 -3.39613034e+00  -1.54520490e-01   8.26792490e-01
C     8.728474731699999e+00   1.887852340767193e+00  -8.682714000000011e-01 -3.38484076e+00  -2.17136058e+00  -1.03820999e+00
C     9.901271593600001e+00   2.556092843334430e+00  -6.573579000000009e-01  3.73901723e+00  -5.81687900e-01   1.90723574e+00
C     2.515244883800000e+00   3.951205939248568e+00   6.206100000000001e-02 -4.68042520e-01   8.44253120e-01  -1.47064679e+00
C     3.725476123100000e+00   4.666658289199306e+00  -9.894660000000144e-02  2.49025019e+00   3.92361522e+00   1.04496952e+00
C     5.014098552900000e+00   4.113330068534887e+00  -2.674893000000012e-01 -1.69665222e+00  -2.21558530e+00  -1.77940743e+00
C     6.193691370500000e+00   4.778372455507051e+00  -5.921421000000002e-01  1.93889856e+00  -3.29840161e+00   3.65077820e-01
C     7.440198880899999e+00   4.022140438597081e+00  -7.319447999999973e-01  1.15532672e+00   2.45169060e-01   7.38586000e-02
C     8.716313506300001e+00   4.737686290712575e+00  -6.192644999999999e-01 -5.32762130e-01  -4.27867416e+00   9.55586290e-01
C     9.927643001700000e+00   3.905951318457188e+00  -2.697927000000000e-01 -1.63717766e+00   4.36877174e+00  -2.46281716e+00
C     1.109164538450000e+01   4.750383286955707e+00  -9.555960000000141e-02  2.58740121e+00  -3.79100807e+00   2.36438480e-01
C     3.916802422500000e+00   6.208556975264644e+00  -1.214703000000021e-01 -3.36532203e+00  -1.54888059e+00  -2.11494047e+00
C     5.074705310699999e+00   6.948811649665485e+00  -7.531382999999998e-01 -1.77444774e+00  -3.38449971e+00   2.75486287e+00
C     6.280584986899999e+00   6.093378020064535e+00  -7.541823000000001e-01 -4.19191700e-01   6.23986021e+00  -2.70257350e-01
C     7.501981493000000e+00   6.824046374350004e+00  -8.188965000000010e-01  4.38251260e-01   8.11234050e-01  -2.30967780e-01
C     8.762179169700000e+00   6.099354302719277e+00  -6.649901999999983e-01 -1.87832688e+00   1.10413725e+00  -2.79083000e-02
C     9.960969358000000e+00   6.744836122214590e+00  -4.836591000000006e-01 -9.46059520e-01   6.25827178e+00  -4.81707000e-01
C     1.118796328750000e+01   6.172385043750525e+00  -2.779083000000000e-01 -2.18151080e-01  -3.67314328e+00   2.05166602e+00
C     1.243171167410000e+01   6.789402157200864e+00  -9.873689999999868e-02  2.10316548e+00   3.88699014e+00  -2.61774984e+00
