26
Lattice="8.88768389401873 1.33226762955019e-15 0 4.44384194700937 7.69696003302603 0 0 0 30 " PBC="1 1 1" Properties=species:S:1:pos:R:3:force:R:3 Energy="-205.90845253"
C     1.245067149403861e+00   1.526884984738452e+00   3.503943000000000e+00  1.76026130e+00   6.64726868e+00   1.13008406e+00
C     3.649528483691885e+00   9.680361951074591e-01   3.444379800000000e+00 -3.96782760e-01   1.23686441e+00   2.49667378e+00
C     5.018357208232862e+00   1.370261161449588e+00   3.695586300000000e+00 -1.00328106e+00  -1.13081883e+00   2.05587320e-01
C     6.027643301142734e+00   3.646704207813550e-01   3.878887800000000e+00  9.32153400e-02   8.42431780e-01  -2.90562330e-01
C     7.398714210626952e+00   8.461332815443252e-01   3.874912800000000e+00 -2.23313140e-01  -2.82272433e+00   4.48722600e-01
C     1.288813120015960e+01   7.597345357534937e+00   3.892358700000000e+00  5.42123700e-01  -2.36420737e+00  -6.21638240e-01
C     9.489472967579691e-01   2.971088916956243e-01   3.648414000000000e+00 -2.25821115e+00  -9.61467368e+00  -2.09726330e-01
C     6.397527067382699e+00   6.904679991727976e+00   3.492907200000000e+00 -1.11354330e-01   1.11047157e+00   1.00411107e+00
C     7.782100812734331e+00   7.271357240897951e+00   3.577459500000000e+00 -1.42295266e+00   5.89720710e-01  -1.88763980e-01
C     8.707431177292865e+00   6.233082898854329e+00   3.876186300000000e+00  3.11565603e+00   4.49951427e+00  -1.50234829e+00
C     1.011982568405961e+01   6.663807014251538e+00   3.932001600000000e+00 -1.10535176e+00   1.00261848e+00   1.63877390e-01
C     1.113578887172661e+01   5.723889892312878e+00   3.968356800000000e+00  1.70475317e+00  -1.12985540e+00  -5.31090800e-02
C     3.650971669189300e+00   6.182505712679598e+00   3.956925000000000e+00  3.73328840e-01  -1.65110776e+00  -1.74555478e+00
C     4.669988842716671e+00   5.122661640756704e+00   3.646350600000000e+00  4.43073210e-01   1.56721103e+00   1.26196808e+00
C     6.087923176159649e+00   5.541582544917508e+00   3.545479200000000e+00 -1.87740384e+00  -2.27129247e+00   1.02667993e+00
C     7.135903356192737e+00   4.479680767700195e+00   3.719118600000000e+00 -4.99059562e+00   1.68291913e+00  -6.32005350e-01
C     8.389086249010152e+00   4.941032857357580e+00   3.745607400000000e+00  4.03799583e+00  -5.00017900e+00   7.79320860e-01
C     9.441856268489927e+00   3.829636394424154e+00   3.752052300000000e+00  7.29418180e-01   4.21223685e+00   4.24470630e-01
C     1.081489064508561e+01   4.290301453429262e+00   3.850825800000000e+00 -1.75299344e+00   2.24401885e+00  -3.43060720e-01
C     2.926468251636309e+00   3.367887295568421e+00   3.703827600000000e+00  1.59685203e+00  -1.48887155e+00   1.88303690e-01
C     4.323741430738024e+00   3.724310346708031e+00   3.682391100000000e+00  5.89427800e-02   9.56991380e-01   5.48476970e-01
C     5.328672114163142e+00   2.727248299570639e+00   3.825580800000000e+00  2.76839577e+00   1.30006758e+00  -8.93150510e-01
C     6.806707187981081e+00   3.130481721615899e+00   3.884454000000000e+00 -2.88930138e+00   2.05279000e-03  -9.42697250e-01
C     7.831445985823672e+00   2.158929170318735e+00   3.815710500000000e+00 -4.65508424e+00   1.52811610e-01   3.28494530e-01
C     9.122887869145828e+00   2.481395158045992e+00   3.675372900000000e+00  1.64084174e+00   2.11742819e+00  -2.76904370e-01
C     2.550234149748619e+00   2.013347405888909e+00   3.629891400000000e+00  3.82176744e+00  -2.69089693e+00  -2.30724969e+00
