32
Lattice="9.86 0 0 4.93 8.53901048131456 0 0 0 30 " PBC="1 1 1" Properties=species:S:1:pos:R:3:force:R:3 Energy="-246.26132116"
C     5.007930482000000e+00   7.756151608270666e+00  -7.532421000000014e-01  3.04689281e+00  -7.90225700e-02   4.61058540e-01
C     6.258241339500000e+00   8.494072656497428e+00  -6.684288000000009e-01  9.95465990e-01   8.81669130e-01  -2.26875569e+00
C     7.429106085099999e+00   7.819152342202001e+00  -8.236094999999999e-01  5.70137100e+00  -3.72961685e+00   2.34150456e+00
C     8.839604178799998e+00   8.480752568659572e+00  -9.191523000000004e-01 -3.99008949e+00   2.71115340e-01   7.44412800e-02
C     1.004903779340000e+01   7.817534285106145e+00  -7.460999999999984e-01  5.80216800e-02  -9.69763450e-01  -1.72874062e+00
C     1.129108232270000e+01   8.441822451370308e+00  -8.549478000000015e-01  1.18195554e+00   3.91338609e+00   2.17864205e+00
C     1.254823636530000e+01   7.886487904803508e+00  -8.030964000000012e-01 -2.20177240e-01  -5.81185773e+00  -2.32367665e+00
C     1.376096233250000e+01   8.427727448331391e+00  -4.192442999999990e-01 -2.24470543e+00   5.41865455e+00  -1.96035934e+00
C     1.490932818500000e+00   1.369247493879065e+00  -1.027983299999999e+00 -3.49694234e+00   2.76064991e+00   1.53515600e-02
C     2.608126034500000e+00   2.181833564352842e+00  -1.258986300000000e+00  4.95214757e+00  -1.26180684e+00  -8.49067700e-01
C     4.000430850600000e+00   1.301483016781147e+00  -1.179102300000000e+00 -4.40231171e+00   1.58516054e+00   9.95570220e-01
C     5.211779622300000e+00   1.907847116926951e+00  -9.357791999999989e-01 -1.58432543e+00   6.75264457e+00  -2.02258753e+00
C     6.429297007199999e+00   1.333092213435382e+00  -7.422480000000000e-01  7.68506080e-01   1.45560177e+00   8.10954810e-01
C     7.651180055000000e+00   2.257653231596963e+00  -5.866010999999993e-01 -2.70329340e-01  -9.42996595e+00  -4.92657600e-01
C     8.876664221299999e+00   1.417509468771396e+00  -5.554524000000001e-01  5.31097140e-01   1.49068663e+00  -9.98281060e-01
C     1.006138162600000e+01   2.135284258792485e+00  -1.086288300000000e+00 -4.14861380e-01  -1.18339840e+00   2.99936440e+00
C     2.704090555100000e+00   3.705891354261897e+00  -1.575135600000003e+00 -1.87476466e+00  -3.48491416e+00   1.16022931e+00
C     3.965522999600000e+00   4.437323096084278e+00  -1.707773700000001e+00 -7.68473550e-01  -7.66937067e+00   3.03995605e+00
C     5.123699256300000e+00   3.475567770683809e+00  -1.140963599999999e+00  1.61855535e+00   1.86089412e+00  -2.10650007e+00
C     6.395496335600000e+00   4.257280963377042e+00  -1.102947600000000e+00 -2.99920665e+00  -1.57183278e+00   2.34241026e+00
C     7.659139687899999e+00   3.504118293784108e+00  -9.742587000000000e-01 -2.64384611e+00   5.16892670e+00  -5.67742800e-02
C     8.838758782399999e+00   4.237304631479920e+00  -1.062719099999999e+00 -1.55861186e+00   2.33884791e+00   5.72274770e-01
C     1.000471009280000e+01   3.616920756977528e+00  -1.119506399999999e+00  5.88313821e+00  -4.27476468e+00  -1.66863699e+00
C     1.127739417770000e+01   4.293720080529079e+00  -1.382108100000000e+00 -1.13185080e-01   3.27472130e+00  -4.95463800e-01
C     3.880771911900000e+00   5.786129735896109e+00  -1.486370400000002e+00 -2.17457239e+00  -2.34297057e+00  -2.05829836e+00
C     4.969614916400000e+00   6.386876362607541e+00  -1.152611099999998e+00  8.31834497e+00   2.85416704e+00   4.77795116e+00
C     6.185081864999999e+00   5.650524869897107e+00  -6.764309999999973e-01  3.32184884e+00  -7.46027600e-01  -3.75926688e+00
C     7.543285575300001e+00   6.299304113679377e+00  -5.108811000000024e-01 -1.12695002e+00   2.46573742e+00  -3.41355031e+00
C     8.835739108099999e+00   5.627532474108344e+00  -9.283658999999993e-01 -1.28041829e+00   3.24945909e+00   1.80350460e+00
C     1.009260055520000e+01   6.450919795108589e+00  -9.591831000000006e-01 -2.54252169e+00  -2.73057398e+00  -2.11922520e-01
C     1.127403448130000e+01   5.839594871434324e+00  -1.365404399999999e+00  1.48353040e+00  -3.71796258e+00  -1.14979250e-01
C     1.257094197330000e+01   6.477473812168559e+00  -1.459658100000002e+00 -4.15458289e+00   3.26152670e+00   2.95630507e+00
