32
Lattice="9.86 0 0 4.93 8.53901048131456 0 0 0 30 " PBC="1 1 1" Properties=species:S:1:pos:R:3:force:R:3 Energy="-256.93282954"
C     9.814400655200000e+00   7.091940237798416e-01   3.526754400000000e+00  1.05092093e+00  -6.28001060e-01  -4.11308760e-01
C     1.214279755300000e+00   1.380384583687710e+00   3.514821900000000e+00 -1.72428878e+00   7.91982260e-01  -1.51879180e-01
C     2.416191964700000e+00   7.068038693563847e-01   3.359682300000000e+00  6.36739300e-01  -2.59430570e-01   5.27427720e-01
C     3.613793727200000e+00   1.461233557324341e+00   3.428805300000000e+00  1.26141918e+00  -1.34534697e+00  -4.17392840e-01
C     4.828634368600000e+00   6.991458285876063e-01   3.427153200000000e+00  1.40426196e+00   1.27744565e+00   2.47116980e-01
C     6.075544117700000e+00   1.408226198137959e+00   3.432196500000000e+00  1.98318842e+00   1.46886410e-01   2.54134920e-01
C     7.388943297799999e+00   6.833244084098432e-01   3.451933800000000e+00 -2.82503808e+00   1.56151022e+00   5.46989120e-01
C     8.598429071800000e+00   1.436967909682906e+00   3.539862900000000e+00 -8.31872470e-01  -2.16537388e+00  -6.77116820e-01
C     1.105320952690000e+01   2.792332680323586e+00   3.606575100000000e+00  1.32366270e-01   1.74179306e+00  -3.85146200e-02
C     2.411601986800000e+00   3.575668114227810e+00   3.637978800000000e+00  3.55745170e-01  -5.74423570e-01  -7.10568290e-01
C     3.677475473900000e+00   2.868997282654703e+00   3.472021200000000e+00 -1.75501891e+00   4.10839790e-01   5.88723890e-01
C     4.902199286300000e+00   3.569550510949623e+00   3.432662700000000e+00 -1.32991800e-01  -3.84592000e-01   5.16955550e-01
C     6.124076516700000e+00   2.854782221128437e+00   3.467126700000000e+00  8.67065200e-02  -6.60599860e-01  -8.01810470e-01
C     7.369163349000000e+00   3.572571356687133e+00   3.430865400000000e+00 -1.22875269e+00  -1.32344260e-01   4.75688970e-01
C     8.564636929099999e+00   2.819296484496492e+00   3.473448300000000e+00  8.69494940e-01   1.91361531e+00   4.38315030e-01
C     9.804857752800000e+00   3.517328399166982e+00   3.560255700000000e+00  9.89119370e-01  -8.91205000e-02   5.65512450e-01
C     1.226139052710000e+01   5.013688627732585e+00   3.649937100000000e+00  7.58345950e-01  -1.25461002e+00  -3.68608380e-01
C     3.679277438200000e+00   5.682360008768643e+00   3.537017100000000e+00 -2.17564171e+00   1.43739784e+00   2.05278000e-03
C     4.884502706199999e+00   4.981864674964777e+00   3.449844900000000e+00 -4.14660480e-01  -5.38801310e-01  -7.57044900e-02
C     6.078600224699999e+00   5.679172652326773e+00   3.364990800000000e+00  2.36649801e+00   9.60743810e-01   3.49109760e-01
C     7.339786366399999e+00   5.019510781248163e+00   3.442317900000000e+00  6.60858370e-01  -2.05616855e+00  -6.83257880e-01
C     8.610436333299999e+00   5.660350453086128e+00   3.447801300000000e+00 -6.75549670e-01   1.37715196e+00   2.24901640e-01
C     9.832383027400001e+00   4.944539635475440e+00   3.631717500000000e+00 -1.19716254e+00  -7.20991800e-02  -1.03897435e+00
C     1.101653875720000e+01   5.694161433592631e+00   3.620888400000000e+00  1.53686124e+00   8.77390710e-01   1.51663750e-01
C     1.349564851580000e+01   7.129291919000451e+00   3.493964100000000e+00  1.38575544e+00  -1.46133931e+00   2.92771900e-02
C     4.903008644400000e+00   7.816635981203649e+00   3.423684900000000e+00 -1.09919438e+00   4.74346700e-01   3.43473730e-01
C     6.134383618399999e+00   7.089996075892330e+00   3.346752000000000e+00 -2.84772850e-01   1.31736824e+00  -1.42631980e-01
C     7.379391127000000e+00   7.831074594024281e+00   3.289082700000000e+00  4.06920800e-02  -1.50851256e+00   3.57752850e-01
C     8.636740151100000e+00   7.100663947075098e+00   3.344635500000000e+00 -1.60448893e+00  -3.66132490e-01   7.53051240e-01
C     9.827517117399999e+00   7.826298554682608e+00   3.506837400000000e+00 -6.34437380e-01   3.85102470e-01  -1.10466660e+00
C     1.105424536920000e+01   7.145439870938969e+00   3.534863400000000e+00 -1.66609834e+00  -2.18047577e+00   5.12491680e-01
C     1.224807094890000e+01   7.813168374437827e+00   3.518853300000000e+00  2.73099586e+00   1.00379744e+00  -2.62204590e-01
