32
Lattice="9.86 0 0 4.93 8.53901048131456 0 0 0 30 " PBC="1 1 1" Properties=species:S:1:pos:R:3:force:R:3 Energy="-256.95600061"
C     4.962124964600000e+00   8.391483362178716e+00   1.203855000000000e-01 -1.25312200e+00  -1.68694882e+00  -3.83777000e-03
C     1.243495083200000e+00   5.454499588153616e-01   1.549983000000000e-01  5.62596610e-01   5.38774810e-01  -4.92756640e-01
C     7.410960875000000e+00   8.364506920270301e+00   1.032480000000000e-01  3.65414380e-01   1.00271398e+00   5.19870940e-01
C     3.734032384599999e+00   5.517725837351728e-01   9.508890000000000e-02 -1.22030676e+00  -9.28882030e-01  -7.01405470e-01
C     9.872097973500001e+00   8.350199039700117e+00   3.285840000000000e-02  4.37640030e-01   4.46325070e-01  -1.10637990e-01
C     6.188884965600000e+00   5.155736689479377e-01   3.862410000000000e-02 -6.86182900e-01   6.36350590e-01   4.62837820e-01
C     1.234202595220000e+01   8.357994900098042e+00   1.931310000000000e-02  1.53404540e-01   4.58412500e-02  -3.81931900e-01
C     8.641427249999998e+00   5.506842014593920e-01   9.168119999999999e-02  1.63040430e-01  -1.46178169e+00  -1.02719460e-01
C     1.230459423700000e+00   1.983037202928382e+00   6.309960000000001e-02 -2.21179790e-01  -5.18162820e-01  -3.68989950e-01
C     2.457130043800000e+00   2.656081582011458e+00  -1.203834000000015e-01  2.90285500e-01   9.24749750e-01   2.35049550e-01
C     3.711123808500000e+00   1.965565021244625e+00  -5.723010000000173e-02 -1.42327577e+00  -8.40914670e-01   4.48131200e-01
C     4.898076228700000e+00   2.653962285000427e+00  -3.693990000000014e-02  2.95856596e+00   1.06067524e+00   6.61703360e-01
C     6.175743212500000e+00   1.946943830310679e+00   1.461096000000000e-01 -2.28588969e+00  -6.09349320e-01  -1.30998338e+00
C     7.367887612900000e+00   2.642263157521988e+00   1.277661000000000e-01  1.19402699e+00   9.65495320e-01   1.35439430e-01
C     8.593967027400000e+00   1.927118553508949e+00   8.227950000000001e-02  1.73531649e+00   2.74567876e+00   6.00590690e-01
C     9.862595694299999e+00   2.718588248796420e+00   5.926800000000000e-02 -6.81717330e-01  -2.87208140e+00  -4.69066120e-01
C     2.451230066300000e+00   4.084583318973758e+00  -2.351609999999980e-01  1.85371126e+00   7.88938800e-02   2.97612070e-01
C     3.736493933600000e+00   4.810479903422794e+00  -1.373196000000014e-01 -1.97116369e+00  -9.18324620e-01  -3.61009510e-01
C     4.940182323400000e+00   4.086647453977088e+00  -6.179999999999808e-02  1.25850799e+00   5.78917480e-01  -2.79262300e-02
C     6.218628395100000e+00   4.839802950801219e+00   1.138470000000000e-02 -1.97290146e+00  -1.95288709e+00   1.13887773e+00
C     7.412272797300000e+00   4.078280675338469e+00   1.511277000000000e-01 -2.30505650e-01   4.94386700e-02  -7.18424400e-01
C     8.642391163599999e+00   4.774301311480501e+00   9.710430000000000e-02 -3.14505350e-01   1.42579812e+00  -5.34924880e-01
C     9.876830625600000e+00   4.096787358141879e+00  -9.785160000000204e-02 -5.34987750e-01   5.24022760e-01   6.93814420e-01
C     1.110105463460000e+01   4.801626998917548e+00  -2.565831000000003e-01 -4.90732830e-01  -2.22563040e-01   6.34747350e-01
C     3.698274059300000e+00   6.217453257943127e+00  -6.800129999999882e-02  1.92283610e-01   1.00788113e+00  -3.45495560e-01
C     4.930877145599999e+00   6.924511931372235e+00   7.164450000000000e-02 -1.84544520e-01   1.60462381e+00   1.49121160e-01
C     6.163111369299999e+00   6.246834114422501e+00   1.402647000000000e-01  8.22460200e-02  -5.25430120e-01  -8.10803250e-01
C     7.387474157800000e+00   6.952242538686245e+00   1.292337000000000e-01  2.46246470e-01   2.95295800e-02   2.84985690e-01
C     8.589279238300000e+00   6.219350967632202e+00   9.045120000000001e-02  1.88339623e+00  -2.28088120e-01  -6.12874580e-01
C     9.852767788599998e+00   6.938013643963002e+00  -5.810430000000011e-02 -9.72640280e-01  -9.42706150e-01   5.21242730e-01
C     1.106273744210000e+01   6.204578137941383e+00  -1.838307000000015e-01  1.57379061e+00   1.90538199e+00  -1.76671290e-01
C     1.232793320210000e+01   6.962040113920892e+00  -1.578324000000002e-01 -5.06817330e-01  -1.86297229e+00   7.45434260e-01
