32
Lattice="9.86 0 0 4.93 8.53901048131456 0 0 0 30 " PBC="1 1 1" Properties=species:S:1:pos:R:3:force:R:3 Energy="-245.98536498"
C     1.101021041200000e+00   1.059095519196915e+00   3.803466300000000e+00  2.17885120e-01   7.85677400e-02  -1.96191610e-01
C     2.389813210900000e+00   1.767777116957852e+00   4.037991900000000e+00 -2.90076043e+00   1.36647319e+00  -1.03618080e-01
C     3.515553913000000e+00   1.122917791326531e+00   3.512889600000000e+00  1.21090221e+00   2.19861055e+00   1.06250013e+00
C     4.712755211599999e+00   1.965079236938418e+00   3.579927900000000e+00  2.84596856e+00  -6.95401737e+00  -2.28959206e+00
C     6.074227709100000e+00   1.204658408437484e+00   3.290893200000000e+00 -1.52285470e+00  -2.29818289e+00   1.85194631e+00
C     7.325708209099999e+00   1.778171825195366e+00   3.480951000000000e+00 -1.70450918e+00   5.92000853e+00  -5.82764000e-03
C     8.612251312800000e+00   1.281365620430896e+00   3.505248000000000e+00 -2.16600540e+00  -4.73548107e+00   1.81044894e+00
C     9.755871793799999e+00   1.846826237965509e+00   4.078435199999999e+00  2.33414741e+00   1.17262436e+00  -3.14066965e+00
C     2.441126475000000e+00   3.262678028632422e+00   4.496937900000001e+00 -2.55056996e+00  -7.64472530e-01  -3.04686427e+00
C     3.687599081000000e+00   3.954116546360781e+00   4.276483499999999e+00 -2.95988957e+00   2.10511999e+00  -8.21491270e-01
C     4.750472768199999e+00   3.280412357937915e+00   3.717642000000000e+00  2.29596525e+00   1.44012176e+00  -1.71168820e-01
C     5.989996687100000e+00   3.930168122958678e+00   3.282475200000000e+00  3.52180830e-01   4.08438020e-01   3.10925702e+00
C     7.257701324100000e+00   3.256678092918651e+00   3.567397800000000e+00  1.44600151e+00  -6.14965690e-01  -1.72063800e+00
C     8.545707257400000e+00   3.935095388175952e+00   3.632602500000000e+00 -2.24228165e+00   4.06139812e+00   3.44145810e-01
C     9.806067032500000e+00   3.355878339367954e+00   4.037128500000000e+00 -3.17118478e+00  -2.66718039e+00  -4.95233090e-01
C     1.092215819630000e+01   4.101279304604883e+00   4.188909900000000e+00  4.77921565e+00   1.33279810e+00   2.20735499e+00
C     3.619418512099999e+00   5.387255819914769e+00   4.054344900000000e+00  2.97810067e+00   8.82402540e-01  -1.58235410e-01
C     4.814677883700000e+00   6.208012698736649e+00   3.544454100000000e+00 -1.91128602e+00  -9.61871274e+00   7.89376910e-01
C     5.954095786200000e+00   5.311555528037159e+00   3.295730100000000e+00  1.82483144e+00   4.00861151e+00  -5.57413960e-01
C     7.265265028700000e+00   6.119260102389834e+00   3.123451500000000e+00 -3.27204206e+00  -8.10589669e+00   5.89983650e-01
C     8.426038557300000e+00   5.515478284403287e+00   3.418438800000000e+00  6.72254416e+00  -4.99780166e+00   3.22021870e-01
C     9.768735938599999e+00   6.241965426817120e+00   3.405528300000000e+00 -1.10308207e+00  -2.16735832e+00   2.20733635e+00
C     1.099033659600000e+01   5.632413799449236e+00   4.102867800000000e+00 -2.22323847e+00  -5.12912168e+00  -1.90640380e+00
C     1.232415204000000e+01   6.122974657338739e+00   4.124500200000000e+00 -3.59809742e+00   1.55942821e+00  -1.74028807e+00
C     4.734125282599999e+00   7.486669830433393e+00   3.262404600000000e+00 -2.42616845e+00   5.77556304e+00   1.22552126e+00
C     5.916880300799999e+00   8.143721923739001e+00   3.164877300000000e+00  4.93155816e+00   3.47950222e+00   1.94162403e+00
C     7.190114968100000e+00   7.376720592201761e+00   3.081436200000000e+00 -2.32049400e-02   1.32802167e+01  -5.97708610e-01
C     8.435261995699999e+00   8.346770114651768e+00   3.074984700000000e+00  5.03686600e-01  -4.85570120e+00   4.89589810e-01
C     9.736776326199999e+00   7.607060826850285e+00   3.129480300000000e+00 -2.32194340e-01   1.96499651e+00   1.55747258e+00
C     1.100066391070000e+01   8.278147210830296e+00   3.443066400000000e+00 -1.57204260e+00  -4.72054300e-01  -1.81224251e+00
C     1.219245916850000e+01   7.436409129358009e+00   3.630172200000000e+00  2.19097346e+00   7.38466521e+00   1.03212360e-01
C     1.340594790530000e+01   8.378273598356262e+00   3.513584400000000e+00  9.45451010e-01  -5.03859980e+00  -8.48205180e-01
