32
Lattice="9.86 0 0 4.93 8.53901048131456 0 0 0 30 " PBC="1 1 1" Properties=species:S:1:pos:R:3:force:R:3 Energy="-257.12377537"
C     9.818382616199999e+00   6.046582620222144e-01   3.445784700000000e+00  5.66143000e-02   2.14283640e+00   6.66582260e-01
C     1.188201337100000e+00   1.360788066976738e+00   3.487515300000000e+00 -3.52649890e-01  -1.22658409e+00  -7.05066470e-01
C     2.407993177500000e+00   6.266285382565209e-01   3.486313800000000e+00  3.14040370e-01   1.18809030e-01   6.38792010e-01
C     3.638938009000000e+00   1.330631099834837e+00   3.467451900000000e+00  6.05785130e-01   4.37156160e-01  -7.76052690e-01
C     4.878588234500000e+00   5.977904212832552e-01   3.400641600000000e+00 -2.17075990e-01   1.86567712e+00   5.36430400e-01
C     6.128040483200000e+00   1.307187417342206e+00   3.434562600000000e+00 -1.94055870e-01   3.63832480e-01  -1.77466560e-01
C     7.346145967799999e+00   6.192732907993632e-01   3.424962300000000e+00  1.66298638e+00   6.51264390e-01   3.68424440e-01
C     8.616051258199999e+00   1.376127289232696e+00   3.503535900000000e+00 -1.72146447e+00  -1.96282454e+00  -4.49282130e-01
C     1.104353711340000e+01   2.771478794319435e+00   3.350978400000000e+00  5.54273020e-01  -5.30902200e-02   1.82109130e-01
C     2.433244588200000e+00   3.463330600155025e+00   3.255864900000000e+00 -4.71953920e-01   9.79973270e-01   3.24329420e-01
C     3.659632867200000e+00   2.782895622111405e+00   3.348054300000000e+00 -2.41503560e-01  -2.14949607e+00   1.55415220e-01
C     4.900723885200000e+00   3.445730504094279e+00   3.374929500000000e+00  5.32670340e-01   3.54018300e-02   2.00616480e-01
C     6.164594904900000e+00   2.729547727187081e+00   3.460423200000000e+00 -2.20298753e+00   9.18110650e-01  -1.34986380e-01
C     7.323422118800000e+00   3.513286202385960e+00   3.507606600000000e+00  2.06534738e+00  -1.25673883e+00   3.41707040e-01
C     8.589829475600000e+00   2.780148110099360e+00   3.541583100000000e+00 -2.79873170e-01   8.60782840e-01  -7.47239360e-01
C     9.820136266500000e+00   3.483955469898103e+00   3.389269200000000e+00 -4.28302720e-01   2.49317620e-01   4.07009200e-01
C     1.230204912450000e+01   4.910382483484078e+00   3.212414100000000e+00 -1.87874571e+00  -1.93485664e+00   1.52892620e-01
C     3.625234581000000e+00   5.574568834655621e+00   3.287834400000000e+00  2.81001033e+00   1.81817627e+00   3.54591430e-01
C     4.872438897599999e+00   4.852978046241125e+00   3.391681200000000e+00  6.89097350e-01   1.10586232e+00  -1.83389060e-01
C     6.114682500300000e+00   5.587154909152616e+00   3.495034500000000e+00 -1.53560772e+00   2.13287789e+00   3.54479520e-01
C     7.336304159499999e+00   4.941475411564692e+00   3.533726100000000e+00  1.08794316e+00  -1.39742407e+00  -4.81496330e-01
C     8.603433120399998e+00   5.623933366581130e+00   3.450009600000000e+00 -1.09885132e+00   5.53551850e-01   4.42462700e-01
C     9.803803275100000e+00   4.906053205170718e+00   3.356595300000000e+00  1.40680190e+00   1.41999270e-01  -2.90158700e-01
C     1.107293928830000e+01   5.618392146510343e+00   3.249499500000000e+00 -1.24809918e+00  -6.56040830e-01  -7.44293300e-02
C     1.351986196430000e+01   7.027567968003783e+00   3.351903600000000e+00 -3.82125390e-01  -9.54291370e-01   1.21028000e-02
C     4.872639795100000e+00   7.737532039748711e+00   3.445882500000000e+00  4.87858710e-01   5.91362100e-02   2.88437130e-01
C     6.103806230100000e+00   7.062100751066160e+00   3.574150800000000e+00  3.12544600e-02  -2.53368422e+00  -7.36605390e-01
C     7.339358146600000e+00   7.728459597284025e+00   3.586754100000000e+00  1.13169300e-01   1.41893869e+00  -5.24405400e-01
C     8.589397508999999e+00   7.062299966180659e+00   3.489683400000000e+00 -9.51103230e-01  -1.77160135e+00  -2.89160200e-02
C     9.785461357999999e+00   7.750673149926907e+00   3.388053900000000e+00  2.47091408e+00  -1.01358298e+00  -4.08275210e-01
C     1.106802974780000e+01   7.012977104626293e+00   3.254740200000000e+00 -9.67953410e-01   1.59912205e+00   9.12667750e-01
C     1.230297211910000e+01   7.745722317040708e+00   3.358275600000000e+00 -7.16413150e-01  -5.42611080e-01  -6.21280550e-01
