32
Lattice="9.86 0 0 4.93 8.53901048131456 0 0 0 30 " PBC="1 1 1" Properties=species:S:1:pos:R:3:force:R:3 Energy="-256.90941104"
C     9.771878616400000e+00   1.776903867529190e+00   3.653019900000000e+00 -1.96528400e-01  -4.41113300e-02  -2.35599450e-01
C     1.100660840610000e+01   2.460376427770862e+00   3.736587300000000e+00 -3.94083830e-01   4.57771520e-01  -4.95240220e-01
C     2.355406198600000e+00   1.756110693889552e+00   3.717781800000000e+00  1.79244407e+00  -1.32811350e-01   7.68949000e-03
C     3.578848161700000e+00   2.509203685156969e+00   3.598336200000000e+00  1.31399963e+00  -1.88344067e+00  -2.34222700e-01
C     4.831931404699999e+00   1.789461250950974e+00   3.450344100000000e+00 -3.01444620e-01  -6.44297810e-01   1.73987204e+00
C     6.090328103099999e+00   2.466107811605037e+00   3.476546100000000e+00  3.92169070e-01  -1.28588524e+00  -4.25828610e-01
C     7.315889522499999e+00   1.714897757538566e+00   3.448578000000000e+00  7.76191930e-01   1.95059510e+00   4.38206920e-01
C     8.583479389099999e+00   2.511317261030978e+00   3.499864800000000e+00 -2.38733752e+00  -2.20980570e+00  -1.86945710e-01
C     1.100863961540000e+01   3.891129901796738e+00   3.616980600000000e+00 -7.61136000e-03  -7.89538800e-02   2.81387140e-01
C     1.222363377700000e+01   4.604456294308270e+00   3.626301900000000e+00  1.82871979e+00   6.77025830e-01  -5.61236390e-01
C     3.669700518800000e+00   3.902443066001480e+00   3.611840700000000e+00 -3.27384904e+00  -9.82377000e-03   2.24152580e-01
C     4.888525734100000e+00   4.550316149991612e+00   3.593757600000000e+00  6.17172630e-01   2.21157742e+00  -2.52713350e-01
C     6.138550996699999e+00   3.857936974868777e+00   3.510127200000000e+00 -1.09630333e+00   1.59702499e+00  -5.72960920e-01
C     7.329027233000000e+00   4.623686316689440e+00   3.348180600000000e+00 -4.78139180e-01  -6.35444220e-01   7.93827220e-01
C     8.548145635399999e+00   3.906542644932928e+00   3.394046100000000e+00  6.84382110e-01   6.35274630e-01   3.53601650e-01
C     9.783098655500000e+00   4.612221755828887e+00   3.490898400000000e+00 -5.71667600e-02   1.54271900e-01  -4.28896280e-01
C     1.224215751250000e+01   6.038805716427484e+00   3.502815600000000e+00  9.22307500e-02  -1.20962889e+00   6.38624130e-01
C     1.350426378940000e+01   6.705732236062059e+00   3.553235100000000e+00 -1.62727396e+00   9.48570990e-01  -3.66195100e-01
C     4.835257922199999e+00   6.013046168902573e+00   3.596248200000000e+00  1.77050736e+00  -1.40280656e+00  -1.12349820e-01
C     6.052377554700000e+00   6.747326866181502e+00   3.574617000000000e+00  3.59287750e-01   4.60308230e-01  -1.56340440e-01
C     7.284217772800000e+00   6.042726403089376e+00   3.408620700000000e+00  1.38363440e-01   6.39003900e-02   3.27760730e-01
C     8.508597323300000e+00   6.746367764524388e+00   3.419637000000000e+00  1.71494698e+00   1.24183000e-01   3.62610070e-01
C     9.768906319399999e+00   6.035028655921866e+00   3.430961700000000e+00  1.09471420e-01  -5.02997300e-02   5.90443000e-02
C     1.102191847180000e+01   6.745172046886874e+00   3.473103300000000e+00 -1.24515463e+00  -5.39044700e-02   2.65041090e-01
C     1.349288041940000e+01   8.126520599467669e+00   3.489085500000000e+00 -1.41524540e+00   9.29586780e-01   5.99316620e-01
C     9.734147748800000e+00   3.569596706996320e-01   3.599286900000000e+00  2.05116259e+00  -6.89693350e-01   3.55973160e-01
C     6.075541159700000e+00   8.188730621028558e+00   3.667450800000000e+00  2.68561500e-02  -8.71448080e-01  -2.57450490e-01
C     2.434059813000000e+00   3.109258652019520e-01   3.718664100000000e+00 -2.57165731e+00   1.49360842e+00  -6.65664670e-01
C     8.575779567200000e+00   8.168695455349228e+00   3.565589400000000e+00 -9.67161610e-01  -7.23078140e-01   3.15243980e-01
C     4.849531258200000e+00   3.544515925414464e-01   3.597922800000000e+00  3.02624830e-01   3.29233190e-01  -1.16341486e+00
C     1.099288491300000e+01   8.162262677194226e+00   3.545511300000000e+00  1.96302160e-01   6.24447900e-02  -3.17546070e-01
C     7.286381106099999e+00   3.097472255853976e-01   3.505037100000000e+00  1.85212429e+00  -1.69943970e-01  -3.29746020e-01
