32
Lattice="9.86 0 0 4.93 8.53901048131456 0 0 0 30 " PBC="1 1 1" Properties=species:S:1:pos:R:3:force:R:3 Energy="-257.16249979"
C     1.150697791800000e+00   8.296342048970976e-01   3.601714800000000e+00  2.32663567e+00  -1.40422380e-01  -1.79368920e-01
C     2.440258104800000e+00   1.528019719991565e+00   3.519338100000000e+00 -7.42015440e-01  -3.12216000e-01  -1.67393700e-02
C     3.692727365600000e+00   7.904208486302128e-01   3.587999100000000e+00 -1.95661070e+00   7.59351270e-01   1.24524600e-01
C     4.888320054500000e+00   1.537830445302351e+00   3.599812200000000e+00  2.28953770e-01  -4.65703800e-01  -1.10386320e-01
C     6.115774396699999e+00   8.435388733924153e-01   3.664625400000000e+00  1.31024338e+00  -1.23215357e+00   1.14526060e-01
C     7.397236691700000e+00   1.509368215570415e+00   3.668184600000000e+00 -1.94141575e+00   8.89441610e-01  -5.22936850e-01
C     8.607866127099999e+00   8.447498758586889e-01   3.592642200000000e+00 -6.75832030e-01  -1.98339791e+00   3.15369100e-01
C     9.789382334899999e+00   1.561957248633381e+00   3.527519400000000e+00  2.10785845e+00  -5.01677980e-01   2.82863240e-01
C     2.442971034500000e+00   2.957182717925436e+00   3.379856100000000e+00 -5.39876920e-01  -5.79797830e-01   3.87513050e-01
C     3.677348427800000e+00   3.661383555327098e+00   3.381244800000000e+00 -7.73379590e-01   4.68743620e-01   3.70010050e-01
C     4.870868939099999e+00   2.944129303384869e+00   3.525833100000000e+00  1.99540008e+00   5.36773930e-01   2.54995210e-01
C     6.159104955500000e+00   3.629764197250391e+00   3.653430900000000e+00 -1.06634558e+00   3.38768250e-01  -3.24286460e-01
C     7.404488277999999e+00   2.931649112617826e+00   3.635837400000000e+00 -1.38242994e+00  -1.62688830e-01   2.73995910e-01
C     8.587831100100001e+00   3.661834671250756e+00   3.578406000000000e+00  1.01211359e+00   1.63200793e+00   3.51744750e-01
C     9.838984691799999e+00   2.968899862715987e+00   3.492052800000000e+00 -9.72851200e-01   4.70564880e-01   1.21743400e-02
C     1.105453298540000e+01   3.675113088717470e+00   3.416093700000000e+00  8.99438130e-01  -3.61649410e-01  -1.78164050e-01
C     3.645124222300000e+00   5.089416500614045e+00   3.422953200000000e+00  9.77610440e-01  -2.41832500e-01   3.14952780e-01
C     4.888893068400000e+00   5.786107278298547e+00   3.550446300000000e+00  5.33574320e-01  -2.99970540e-01   2.84275810e-01
C     6.150168591000000e+00   5.047812306802865e+00   3.693521100000000e+00 -1.03718517e+00   1.29884544e+00  -7.76935810e-01
C     7.362017264700000e+00   5.830083438440862e+00   3.702871800000000e+00 -3.84975010e-01  -2.09909121e+00   2.22790130e-01
C     8.576567874200000e+00   5.123958932758265e+00   3.672707700000000e+00  1.43440596e+00  -1.84051563e+00  -9.02133250e-01
C     9.858752216999999e+00   5.782355066313426e+00   3.568670100000000e+00 -2.30596337e+00   8.02867220e-01   5.41944680e-01
C     1.105851415760000e+01   5.098122790309349e+00   3.435542400000000e+00 -1.42321860e-01  -1.25019806e+00   3.90335200e-01
C     1.226713639280000e+01   5.787237160165260e+00   3.486117600000000e+00  1.56888825e+00   6.15117960e-01  -5.54742900e-01
C     4.903564797700000e+00   7.222299418879345e+00   3.585791100000000e+00  5.11141250e-01  -4.50977640e-01   6.19017150e-01
C     6.146481739800000e+00   7.930209602433518e+00   3.706017300000000e+00 -1.49119651e+00   7.96556840e-01  -9.48414160e-01
C     7.362997397999999e+00   7.215754694296949e+00   3.686428200000000e+00 -4.90015720e-01   1.25695742e+00   3.41098270e-01
C     8.576672094399999e+00   7.916049873695163e+00   3.678434100000000e+00  1.60747405e+00  -3.91999200e-02  -1.36573830e-01
C     9.824216827499999e+00   7.195024282384338e+00   3.668239200000000e+00  3.74079020e-01   1.06702602e+00  -3.00522900e-01
C     1.104842481400000e+01   7.941889431748272e+00   3.657370800000000e+00  6.91008660e-01  -4.62079270e-01  -3.29627690e-01
C     1.231363911080000e+01   7.196600327548632e+00   3.558891900000000e+00 -1.07072944e+00   1.96504320e+00   5.95969090e-01
C     1.354744605380000e+01   7.942942974861294e+00   3.605457000000000e+00 -6.05680790e-01  -4.74493120e-01  -5.17266910e-01
