2
Lattice="2.456 0 0 1.228 2.12695839169458 0 0 0 30 " PBC="1 1 1" Properties=species:S:1:pos:R:3:force:R:3 Energy="-16.12852726"
C     0.000000000000000e+00   0.000000000000000e+00   3.000000000000000e+00  0.00000000e+00   0.00000000e+00  -0.00000000e+00
C     1.228000000000000e+00   7.089861305648604e-01   3.000000000000000e+00 -0.00000000e+00   0.00000000e+00   0.00000000e+00
