32
Lattice="9.86 0 0 4.93 8.53901048131456 0 0 0 30 " PBC="1 1 1" Properties=species:S:1:pos:R:3:force:R:3 Energy="-256.99709022"
C     1.263953005600000e+00   6.804901400513216e-01   3.622357800000000e+00  6.84628030e-01  -8.14170330e-01  -4.93161140e-01
C     2.521212895300000e+00   1.354116196528295e+00   3.626236200000000e+00 -1.66272113e+00   4.68204830e-01  -2.43175240e-01
C     3.719713791200000e+00   6.635495971600496e-01   3.516016500000000e+00  1.06993727e+00   3.78227820e-01   3.59161470e-01
C     4.927069558700000e+00   1.420344078690337e+00   3.525882300000000e+00  9.21531410e-01  -1.32851002e+00  -2.96657110e-01
C     6.137740849800000e+00   6.580065838970623e-01   3.513870900000000e+00  1.40306037e+00   1.12990063e+00   2.10472460e-01
C     7.385431067200000e+00   1.364507232991302e+00   3.509867700000000e+00  1.96627702e+00  -5.65669600e-02   1.84052000e-01
C     8.705869547799999e+00   6.463038700342224e-01   3.506003400000000e+00 -3.38247054e+00   1.16847834e+00   6.09359880e-01
C     9.896412832099999e+00   1.399078526990945e+00   3.615376200000000e+00 -2.36800450e-01  -1.82310861e+00  -6.18459710e-01
C     2.505035593300000e+00   2.765972071850988e+00   3.644727300000000e+00  4.32846600e-02   1.70308069e+00   2.19502690e-01
C     3.724957585699999e+00   3.549262334389772e+00   3.677534100000000e+00  2.36353730e-01  -8.85891820e-01  -7.62498730e-01
C     4.987728426600000e+00   2.830179197182937e+00   3.529503900000000e+00 -1.82759159e+00   3.57123760e-01   6.01335700e-01
C     6.210961111200000e+00   3.522343701582305e+00   3.495823800000000e+00 -1.73223860e-01  -2.38038500e-02   5.75310220e-01
C     7.426455667799999e+00   2.798954256000302e+00   3.557817600000000e+00  1.07369730e-01  -9.52505100e-02  -6.76876880e-01
C     8.661890743299999e+00   3.531215818861130e+00   3.559037400000000e+00 -1.04365586e+00   1.69393500e-02   2.96028220e-01
C     9.857746398399998e+00   2.786618289120266e+00   3.573028500000000e+00  1.29130133e+00   1.71571100e+00   3.06462790e-01
C     1.111283442590000e+01   3.480941711539292e+00   3.602745000000000e+00  6.56536420e-01  -6.65525800e-02   5.33966510e-01
C     3.709209440200000e+00   4.980604829358559e+00   3.675146400000000e+00  6.52762850e-01  -1.27993651e+00  -4.63099150e-01
C     4.984966443399999e+00   5.648473458019392e+00   3.562682100000000e+00 -2.25817077e+00   1.23277573e+00  -1.18167620e-01
C     6.187486225999999e+00   4.942659003807324e+00   3.514467000000000e+00 -1.55469190e-01  -5.23833280e-01  -1.81480900e-02
C     7.381405820800000e+00   5.654123892034217e+00   3.492930000000000e+00  2.20706654e+00   5.93250010e-01   3.45993020e-01
C     8.634534962100000e+00   4.982733690061327e+00   3.581950200000000e+00  5.89629540e-01  -2.01819264e+00  -9.46650770e-01
C     9.898129605999999e+00   5.624595310673539e+00   3.525326400000000e+00 -5.60492200e-02   1.16674263e+00   4.91204940e-01
C     1.113708307460000e+01   4.907164898945109e+00   3.641898300000000e+00 -1.54468323e+00  -1.51099120e-01  -6.84566900e-01
C     1.231743274580000e+01   5.648905873510099e+00   3.637313700000000e+00  1.76742974e+00   1.31739520e+00   6.15732500e-02
C     4.932506362700000e+00   7.089327385981641e+00   3.489730500000000e+00  1.87659792e+00  -1.34909937e+00   5.21289740e-01
C     6.203826957500000e+00   7.781389593035459e+00   3.502003800000000e+00 -9.12021630e-01   7.96721550e-01   3.02986690e-01
C     7.441248625799999e+00   7.063823667210710e+00   3.491046600000000e+00 -2.24556550e-01   1.13975797e+00  -2.27162640e-01
C     8.698612883599999e+00   7.801103521140530e+00   3.470121600000000e+00 -6.42942190e-01  -1.84876179e+00   9.63442800e-02
C     9.943084796999999e+00   7.064192210903028e+00   3.468732900000000e+00 -1.77701264e+00  -4.71674380e-01   6.94165210e-01
C     1.113663922670000e+01   7.780897746031810e+00   3.584881500000000e+00 -6.55520760e-01   7.69244910e-01  -1.02922993e+00
C     1.235726936430000e+01   7.107345551995489e+00   3.567006900000000e+00 -1.32922719e+00  -2.43137105e+00   4.60209100e-01
C     1.355621100220000e+01   7.770590221091298e+00   3.535220100000000e+00  2.40835022e+00   1.21426838e+00  -2.91564280e-01
