32
Lattice="9.86 0 0 4.93 8.53901048131456 0 0 0 30 " PBC="1 1 1" Properties=species:S:1:pos:R:3:force:R:3 Energy="-255.37927518"
C     9.793287190700001e+00   1.770274350572728e-01   4.116075000000000e+00  3.13316343e+00   1.00208200e-01   3.15545650e-01
C     1.203277129200000e+00   9.236709117091456e-01   4.167017100000000e+00 -2.08469770e+00   1.67142846e+00  -4.91809800e-01
C     2.436288912500000e+00   2.658350226315784e-01   4.094145000000000e+00 -1.53422763e+00  -6.14563970e-01  -3.17239850e-01
C     3.641344391300000e+00   9.951145068624760e-01   4.059698100000000e+00  8.00667430e-01  -9.40446070e-01   5.36955590e-01
C     4.865246076900000e+00   2.808814422181768e-01   4.118091600000001e+00  1.85864429e+00  -1.13248724e+00  -2.04651440e-01
C     6.157090163099999e+00   9.407358679831112e-01   4.114702500000000e+00 -2.01415006e+00   1.41888970e+00   2.72857600e-02
C     7.375302037100000e+00   2.944321687290984e-01   4.029801900000000e+00  1.18103660e-01  -9.61178700e-02   1.63879199e+00
C     8.647328755800000e+00   9.804131486893745e-01   4.222595100000000e+00 -1.62474096e+00  -3.70160011e+00  -2.08879312e+00
C     1.102727718460000e+01   2.414162876102578e+00   4.157754000000000e+00 -1.46235374e+00  -2.13795370e+00  -9.72719300e-02
C     2.388117340200000e+00   3.059668860997549e+00   4.208373000000000e+00  1.66029058e+00   1.79180606e+00  -5.86437510e-01
C     3.655364867600000e+00   2.397176222554713e+00   4.106477400000000e+00 -6.06778920e-01  -8.74610890e-01  -1.39052750e-01
C     4.909863809399999e+00   3.031900682037427e+00   4.030009200000000e+00 -2.06200870e-01   2.19130110e+00   1.21849504e+00
C     6.157864468900000e+00   2.351922284884172e+00   4.166703000000000e+00 -6.00824730e-01   5.33551610e-01  -1.13628292e+00
C     7.382134031100000e+00   3.064583146918894e+00   4.112177100000000e+00  1.51948470e-01   7.85235070e-01  -1.55729250e-01
C     8.625538303699999e+00   2.322847637320610e+00   4.070403300000000e+00 -1.26943708e+00   4.39130640e+00   6.39895250e-01
C     9.758880819300000e+00   3.151289113233862e+00   4.047724500000000e+00  2.77614877e+00  -1.62400884e+00   9.91580160e-01
C     1.225968533870000e+01   4.483091082185716e+00   4.214805000000000e+00  2.42998237e+00   4.15722020e-01   3.63426500e-01
C     3.684284937800000e+00   5.248369241408093e+00   4.213949100000000e+00 -2.52786660e+00  -1.96717510e+00  -1.51739460e+00
C     4.902615674100000e+00   4.476021976969744e+00   4.056376200000000e+00 -5.56595110e-01   5.49822490e-01   9.61841880e-01
C     6.128948983599999e+00   5.188062479893093e+00   4.110620700000000e+00  6.67164480e-01  -1.72146259e+00  -5.17680420e-01
C     7.370288276400000e+00   4.525985691260634e+00   4.077530400000001e+00  1.17997936e+00  -1.33316250e+00   8.80797700e-02
C     8.607031133000000e+00   5.309240773076239e+00   4.074734100000000e+00 -1.91148985e+00  -1.74997527e+00  -2.56988520e-01
C     9.800650885200000e+00   4.567925382793574e+00   4.127752500000001e+00 -2.68240240e-01  -1.16208749e+00  -2.20947150e-01
C     1.106051987880000e+01   5.182261930074029e+00   4.226198100000000e+00 -4.29692700e-01   1.15001122e+00  -2.89558600e-01
C     1.345682841400000e+01   6.670542973873980e+00   4.049018400000000e+00  1.11071816e+00  -8.63166510e-01   8.59708110e-01
C     4.892152439299999e+00   7.243080979464731e+00   4.026341700000001e+00 -8.34952170e-01   3.28213862e+00   7.11385650e-01
C     6.151260487400000e+00   6.554414309928284e+00   4.106085300000000e+00 -2.13220339e+00   3.54131524e+00  -9.45785880e-01
C     7.292592363800001e+00   7.384599281001343e+00   3.997228800000000e+00  2.24564650e+00  -8.05616410e-01   8.76011600e-01
C     8.549377593099999e+00   6.709209577299829e+00   4.013234700000000e+00  7.06715880e-01   4.62661200e-02   9.12079820e-01
C     9.802429136200001e+00   7.384176087641953e+00   4.173257700000000e+00 -3.75790600e-02  -6.73977210e-01  -8.49740450e-01
C     1.104124486060000e+01   6.581247296460637e+00   4.211206500000000e+00 -4.15494350e-01   4.94595184e+00  -4.71391970e-01
C     1.221894332570000e+01   7.463948121276847e+00   4.088865900000000e+00  1.67835178e+00  -5.41654238e+00   1.45673380e-01
