26
Lattice="8.88768389401873 1.33226762955019e-15 0 4.44384194700937 7.69696003302603 0 0 0 30 " PBC="1 1 1" Properties=species:S:1:pos:R:3:force:R:3 Energy="-209.12706161"
C     5.019355476057733e-01   6.250666604042865e-01   3.524343000000000e+00  5.95610100e-02  -1.30916670e+00  -1.05719050e-01
C     7.349136936782093e+00   7.666161414135957e+00   3.600039900000000e+00 -4.92349850e-01   1.79844162e+00   4.34233400e-02
C     4.266651613288367e+00   3.771511184396003e-01   3.595168200000000e+00 -3.03097950e-01   2.25482860e-01  -9.45814500e-02
C     9.696949462650021e+00   7.077448804436566e+00   3.576263100000000e+00  1.50419897e+00   7.45100730e-01  -4.92634780e-01
C     1.108838854388230e+01   7.477066656477334e+00   3.494526600000000e+00 -5.66974870e-01   1.45699480e-01  -3.56161600e-02
C     1.213022324608298e+01   6.523177858753017e+00   3.441529500000000e+00  5.50564990e-01   2.21173440e-01   3.99449230e-01
C     4.614634926596787e+00   6.933693990439462e+00   3.469896300000000e+00 -1.85236920e-01  -2.51550700e-01   1.96939100e-02
C     5.641394072715776e+00   5.922921733248632e+00   3.483505800000000e+00 -7.55149480e-01   1.18723248e+00  -2.39347000e-01
C     6.987849252898962e+00   6.322006108989720e+00   3.567714000000000e+00  1.00139478e+00  -1.51471420e+00  -3.29277490e-01
C     8.024305795343837e+00   5.303673974627026e+00   3.522472500000000e+00 -1.25166668e+00   8.07935840e-01   2.71700090e-01
C     9.356982665831573e+00   5.716153369908323e+00   3.531026400000000e+00  1.31822897e+00  -3.39534830e-01   2.45114950e-01
C     1.041503059204949e+01   4.756361080810596e+00   3.532953900000000e+00  2.64566640e-01  -1.84073740e-01  -9.02695100e-02
C     1.181269682900048e+01   5.157804959648881e+00   3.490704300000000e+00 -1.57090842e+00  -1.13096922e+00  -2.63016330e-01
C     3.926570746385487e+00   4.154799935733125e+00   3.439605900000000e+00  2.41589930e-01  -5.12777770e-01   4.65090600e-01
C     5.298844203896488e+00   4.571678605489169e+00   3.385311000000000e+00  7.65140100e-02  -2.07599963e+00   9.42008760e-01
C     6.323427378354086e+00   3.538429377740334e+00   3.477355500000000e+00 -7.44977420e-01   9.03387470e-01  -7.28194010e-01
C     7.688995656056167e+00   3.934729840008170e+00   3.502155000000000e+00 -7.14040970e-01  -1.64778590e-01  -3.02153320e-01
C     8.696442620550059e+00   2.946651530678595e+00   3.474649200000000e+00 -1.58889380e-01   9.25068860e-01   5.42962230e-01
C     1.004650993324213e+01   3.380079126316740e+00   3.548777400000000e+00  5.04773020e-01  -5.82538170e-01  -1.42866290e-01
C     2.151786305174978e+00   2.372854705882140e+00   3.603718800000000e+00  3.05260725e+00   1.79099610e-01  -1.74984190e-01
C     3.579368708281230e+00   2.758010354874539e+00   3.579378600000000e+00 -7.64185100e-01   3.20897300e-01  -6.50992870e-01
C     4.618542704526781e+00   1.759518289533173e+00   3.534025200000000e+00 -1.48902845e+00   4.70474710e-01   1.10635250e-01
C     5.959168052904709e+00   2.164710895784470e+00   3.438657900000000e+00  9.87352900e-01  -3.82994090e-01   5.29915030e-01
C     6.988093394215930e+00   1.150434982387984e+00   3.451996800000000e+00 -4.30465760e-01   1.10335689e+00   1.86214080e-01
C     8.342329697231024e+00   1.587436969294462e+00   3.489474900000000e+00  5.27949260e-01  -7.56314990e-01  -2.37499240e-01
C     1.878469849612534e+00   9.835327926142593e-01   3.580608900000000e+00 -6.62330460e-01   1.72061340e-01   1.30944210e-01
