32
Lattice="9.86 0 0 4.93 8.53901048131456 0 0 0 30 " PBC="1 1 1" Properties=species:S:1:pos:R:3:force:R:3 Energy="-257.06403215"
C     4.935280868100000e+00   8.355830004771049e+00  -2.055095999999992e-01  1.44807786e+00   1.47965852e+00   1.06694770e-01
C     1.267188219500000e+00   5.599631171974839e-01  -2.078307000000024e-01 -1.14304866e+00   4.47748150e-01   6.95037860e-01
C     7.429090851400000e+00   8.406749405114860e+00  -2.467442999999996e-01 -8.11154580e-01  -1.12397601e+00   3.96294400e-01
C     3.719902363700000e+00   5.588252086609192e-01  -1.138890000000004e-01  1.86042820e-01   2.24973990e-01  -3.94451360e-01
C     9.883359818999999e+00   8.390136077105183e+00  -1.109762999999973e-01  1.90849210e-01  -1.27406171e+00   5.19399460e-01
C     6.203751725699999e+00   5.428692136779912e-01  -9.427200000000013e-02 -9.17681570e-01  -3.70429190e-01  -1.15726900e-01
C     1.237175138720000e+01   8.374642042589223e+00  -7.637700000000081e-02 -1.14488727e+00  -4.00570480e-01   2.49072240e-01
C     8.655814616900001e+00   5.310431965038200e-01  -1.794978000000000e-01  3.24600900e-02   1.33473998e+00  -7.18890600e-02
C     1.225349478700000e+00   1.978527751493893e+00   4.447080000000000e-02  1.01766800e+00  -1.89147640e-01  -1.37091838e+00
C     2.500018726700000e+00   2.702548571510788e+00   1.023696000000000e-01 -1.64628854e+00  -1.20468640e+00   3.79839890e-01
C     3.695735503700000e+00   1.970177965486130e+00  -1.337159999999926e-02  1.66936372e+00   7.65772760e-01   2.84468590e-01
C     4.983377159300000e+00   2.682820724818634e+00  -1.869209999999910e-02 -2.70900594e+00  -1.63161420e-01  -2.88707280e-01
C     6.142870021800000e+00   1.950842827885952e+00  -1.259454000000026e-01  3.09496977e+00   4.62244650e-01  -2.21474060e-01
C     7.409516828699999e+00   2.677421337711920e+00  -1.983003000000032e-01 -5.87733270e-01  -3.58334310e-01  -5.46232500e-02
C     8.654716262199999e+00   1.997026407627451e+00  -2.261129999999980e-01 -1.32690467e+00  -1.92895542e+00   5.69570640e-01
C     9.842935593799998e+00   2.685724415332358e+00  -5.997929999999840e-02  2.03198044e+00   8.94441320e-01   3.03906780e-01
C     2.502146662600000e+00   4.101406279690720e+00   2.794230000000000e-01 -8.00705630e-01   4.70844410e-01  -5.27021170e-01
C     3.720847494000000e+00   4.801666449145966e+00   2.367429000000000e-01  1.43414720e+00   1.09431765e+00  -1.58357863e+00
C     4.979327657300000e+00   4.101324219800007e+00  -3.274919999999781e-02 -1.41342480e+00   2.03927150e-01   1.01407446e+00
C     6.182894769099999e+00   4.813956390759516e+00  -1.750001999999995e-01  2.33537740e-01   2.49825270e-01   1.04601500e-02
C     7.413764516699999e+00   4.087920193489132e+00  -2.013552000000018e-01  1.60692200e-01   7.90953700e-01   2.80970690e-01
C     8.641627260099998e+00   4.827932872332970e+00  -8.992950000000022e-02  8.69956100e-02  -9.15412590e-01  -4.47052960e-01
C     9.891764433699999e+00   4.120231638365242e+00   1.079340000000000e-02 -1.07163525e+00  -9.05203400e-02   2.96064430e-01
C     1.110731060740000e+01   4.823082628990226e+00   2.056896000000000e-01  7.55646670e-01  -2.89099390e-01  -7.78500000e-02
C     3.715808491700000e+00   6.250726024619076e+00   6.983520000000000e-02 -4.47949500e-02  -9.37214420e-01   6.44369320e-01
C     4.945691647699999e+00   6.965918532480908e+00  -1.182333000000000e-01 -6.57522030e-01  -1.44897075e+00  -2.32655900e-01
C     6.163169740500000e+00   6.240592268541831e+00  -2.256956999999993e-01  3.24247380e-01   2.39130380e-01   2.88977750e-01
C     7.381112387200000e+00   6.968571346866730e+00  -2.666153999999992e-01  9.78246750e-01  -1.85987190e-01   2.66805350e-01
C     8.613806875700000e+00   6.235100660121934e+00  -1.292252999999981e-01  3.87318520e-01   8.80778870e-01   4.53107000e-03
C     9.852692211699999e+00   6.941784897941494e+00  -2.057999999999893e-02  8.81996470e-01   6.82196740e-01  -1.20394090e-01
C     1.112454125320000e+01   6.245423555281310e+00   1.536204000000000e-01 -2.11283729e+00  -1.54694810e-01  -2.74093450e-01
C     1.233039997690000e+01   6.948426881853258e+00   1.098903000000000e-01  1.47338399e+00   8.13668540e-01  -5.30101340e-01
