26
Lattice="8.88768389401873 1.33226762955019e-15 0 4.44384194700937 7.69696003302603 0 0 0 30 " PBC="1 1 1" Properties=species:S:1:pos:R:3:force:R:3 Energy="-208.58472718"
C     1.300486848373720e+01   7.282567632272846e+00  -5.350109999999830e-02  1.99272461e+00  -2.82875460e-01   6.53055140e-01
C     9.193724934699183e+00   7.144340236182085e+00  -9.099269999999748e-02  2.32290403e+00  -1.93995450e-01  -4.33259760e-01
C     1.058714739092698e+01   6.710572665819415e+00  -1.772555999999987e-01  1.08299507e+00   1.86937054e+00   7.46072880e-01
C     1.095860462759522e+01   5.357179315305970e+00  -1.277927999999982e-01  1.77574147e+00  -5.48536350e-01  -8.93956200e-02
C     6.831834050117784e+00   6.499703054296719e+00   2.961390000000000e-02  1.56306638e+00   6.46205940e-01  -5.75997480e-01
C     8.212621774993456e+00   6.167372796534215e+00  -1.095693000000004e-01 -1.10176699e+00  -2.09498765e+00   6.85543780e-01
C     8.547213565418168e+00   4.746095722188185e+00  -1.184730000000016e-01  2.34770736e+00   2.16045054e+00  -5.63891510e-01
C     9.966279878214745e+00   4.387545539174685e+00  -1.261820999999976e-01 -2.23544155e+00  -1.10638949e+00   3.89960780e-01
C     1.027366780143126e+01   3.007065893589268e+00  -8.958899999999659e-03 -1.07465710e-01  -1.09004675e+00  -3.49450770e-01
C     4.496709847621485e+00   5.887303511922605e+00  -1.110509999999820e-02 -3.44752940e-01   3.39777660e-01  -2.68764630e-01
C     5.864497646105701e+00   5.489715502180950e+00   1.689600000000000e-03 -9.19394170e-01   1.07529560e+00  -1.38954250e-01
C     6.216167521112478e+00   4.132558953969638e+00  -7.930770000000109e-02 -5.43775810e-01   6.87824050e-01   2.04025200e-01
C     7.568436623666619e+00   3.786412499014083e+00  -1.562960999999987e-01  4.94142000e-02  -2.72915878e+00   7.52592050e-01
C     7.917930304781983e+00   2.348395306298805e+00  -8.922929999999951e-02 -1.02518672e+00   2.61707951e+00  -3.12385220e-01
C     9.248427025903199e+00   1.978397126754285e+00  -2.738009999999846e-02  1.91823653e+00  -5.57198510e-01   4.99588690e-01
C     3.497962369027849e+00   4.899764528582331e+00  -6.444959999999966e-02 -2.44647659e+00   1.76333689e+00  -4.94556160e-01
C     3.802961460580770e+00   3.538321158482311e+00  -9.460409999999797e-02  3.19547100e-02   2.16767760e-01   1.24276160e+00
C     5.181233970908008e+00   3.194348632917629e+00  -1.254149999999754e-02 -6.13212780e-01  -2.15459632e+00  -6.72617670e-01
C     5.499908586075054e+00   1.793131298832185e+00  -1.921830000000213e-02  8.28195500e-02   4.86743410e-01  -2.57119710e-01
C     6.873891011376485e+00   1.430524279095672e+00  -8.439599999999814e-02 -7.04335300e-02  -2.77610218e+00   1.06538270e-01
C     7.242975902973524e+00   1.913695172258900e-03  -1.088345999999980e-01 -3.15423910e+00   4.45577940e-01  -1.95572930e-01
C     2.742047166185444e+00   2.579956501530948e+00   3.232800000000000e-02  3.08823830e-01   9.84971960e-01  -2.87277250e-01
C     3.085053726891454e+00   1.237317266601821e+00   1.101516000000000e-01 -2.24327850e-01  -2.47014016e+00  -8.60661710e-01
C     4.444368229738817e+00   8.270702976076244e-01  -1.414709999999886e-02  3.23612100e-01   4.04465750e-01   4.15182540e-01
C     7.331118045139049e-01   5.627301356653209e-01   6.482580000000000e-02 -2.04754678e+00   1.37563559e+00  -8.54621160e-01
C     2.062434462586674e+00   1.826033724781227e-01   6.117450000000000e-02  1.03402070e+00   9.30523970e-01   6.59204910e-01
