32
Lattice="10.076 0 0 5.038 8.726071968532 0 0 0 30 " PBC="1 1 1" Properties=species:S:1:pos:R:3:force:R:3 Energy="-257.10840848"
C    -8.775390746858055e-04   9.288693621873666e-04   3.001072801199119e+00  5.69661600e-02  -1.29286100e-02  -1.02098600e-02
C     1.259470812794502e+00   7.278414407564884e-01   2.999651930699017e+00 -1.86709300e-02  -3.35838500e-02   1.56594700e-02
C     2.518076042639534e+00   5.464737743825556e-05   3.000556853700516e+00  1.61193600e-02   1.14970800e-02  -1.85192000e-02
C     3.777768959909949e+00   7.267875338291090e-01   2.999598462260677e+00  4.35966200e-02  -7.38390000e-04   1.54094000e-03
C     5.038287468029640e+00  -1.069883947493919e-03   2.998950603484948e+00 -1.83981700e-02   6.13185600e-02   5.62448000e-03
C     6.297927882112558e+00   7.270061831106444e-01   2.999257198355100e+00  1.03672000e-02  -9.93010000e-04   3.38323000e-03
C     7.558032669196471e+00  -6.572540847542735e-04   2.998792363869947e+00 -5.25528000e-02   1.99013500e-02   2.28474000e-02
C     8.816838697852580e+00   7.283404524612368e-01   3.000637924724583e+00 -3.75523500e-02  -7.23538600e-02  -1.22684600e-02
C     1.260343871910628e+00   2.181368430280009e+00   3.000031152229766e+00 -4.78494100e-02   4.07871000e-03   6.68818000e-03
C     2.517791746736612e+00   2.908305876190351e+00   3.001228488563094e+00  1.06974090e-01   8.06957000e-03  -1.54008200e-02
C     3.779351564622844e+00   2.181278707396963e+00   2.999783949175057e+00 -7.37364500e-02  -1.00130200e-02   1.20279800e-02
C     5.037564626165535e+00   2.908591050235649e+00   3.000539513321792e+00  4.37997500e-02   7.93868000e-03   4.52141000e-03
C     6.298240697908403e+00   2.182112423264865e+00   3.001190147475391e+00 -3.23893300e-02  -4.74525100e-02  -2.70162700e-02
C     7.557574784406729e+00   2.907951031537259e+00   2.998774880547949e+00 -3.17725400e-02   4.47618900e-02   2.94666900e-02
C     8.815475130084344e+00   2.180804895159742e+00   2.999686547918842e+00  8.23159200e-02   4.90627300e-02   1.20482000e-03
C     1.007687010739882e+01   2.908180877339611e+00   3.000366201131504e+00 -6.19377800e-02  -6.37225000e-03  -4.66030000e-03
C     2.519719432562081e+00   4.362461656181329e+00   3.000655394480619e+00 -6.50374300e-02   1.91042100e-02  -4.32978000e-03
C     3.778076396838093e+00   5.090220230931905e+00   3.000803328234726e+00  4.59087300e-02  -1.74034000e-02  -4.38759000e-03
C     5.038009876516413e+00   4.362672035944407e+00   3.001028657624700e+00  2.17087000e-03   2.28999300e-02  -4.20945000e-03
C     6.298570007772269e+00   5.090236640349511e+00   3.000435735226922e+00 -6.64233600e-02  -3.27957700e-02   8.61599000e-03
C     7.556901116782331e+00   4.363152509268760e+00   3.000932826507082e+00  2.22857000e-02  -2.29302800e-02  -2.47578800e-02
C     8.815687185258065e+00   5.090125773071143e+00   2.999112292427930e+00  2.55580200e-02   4.70199000e-03   1.76050700e-02
C     1.007526974248381e+01   4.361838064187970e+00   3.000196378700504e+00  3.47344800e-02   4.50044400e-02  -1.45660900e-02
C     1.133543316703873e+01   5.090251456312705e+00   2.998763498264605e+00 -7.46922000e-03  -4.17658700e-02   2.12670600e-02
C     3.778203135324453e+00   6.544295890393229e+00   2.999881017594928e+00 -4.24662000e-03   1.37949700e-02   1.57129900e-02
C     5.037766246485957e+00   7.272451921096784e+00   3.000629911789832e+00 -8.17210000e-03  -3.65321700e-02  -9.02310000e-04
C     6.297424628167554e+00   6.543401301398721e+00   3.000556378468898e+00 -5.10664000e-03   7.85988300e-02  -8.62546000e-03
C     7.556401075543087e+00   7.272286214613596e+00   2.999076649874667e+00  5.20343000e-03  -3.84016400e-02   1.83753800e-02
C     8.816092844412507e+00   6.545056042740547e+00   2.999531349807294e+00  1.43550000e-03  -9.52087000e-03  -8.68549000e-03
C     1.007598490072583e+01   7.272182555624522e+00   2.999288497238600e+00 -9.05618000e-03  -4.60824100e-02  -9.42880000e-04
C     1.133522760651583e+01   6.544015875022718e+00   2.999617523615268e+00 -1.71059200e-02   6.14202000e-03  -7.86470000e-04
C     1.259387611562038e+01   7.270683522851376e+00   3.000887621002347e+00  6.00414000e-02   3.29929400e-02  -2.42727800e-02
