32
Lattice="9.844 0 0 4.922 8.52515407485401 0 0 0 30 " PBC="1 1 1" Properties=species:S:1:pos:R:3:force:R:3 Energy="-257.95823392"
C     1.592976739536980e-03   6.223256491354475e-04   3.007275382436942e+00  1.48031110e-01  -5.09234780e-01  -2.25053120e-01
C     1.238074728355017e+00   6.957151641854568e-01   2.993015454219822e+00 -1.16702040e-01   8.52369060e-01   3.45233400e-02
C     2.475143379536750e+00   5.353923765110552e-04   2.987110305232492e+00 -5.23682640e-01  -9.90705100e-02   1.23732600e-02
C     3.688012469150601e+00   7.109444419306588e-01   2.987200374067646e+00  6.62095880e-01   2.55520630e-01   7.55575200e-02
C     4.928216560451706e+00  -5.663245412967345e-03   2.993336976641171e+00 -1.31358120e-01   5.76348580e-01   2.33846300e-02
C     6.158944472601899e+00   7.211428882928806e-01   3.003329073481831e+00 -5.34618620e-01  -8.41164410e-01  -1.69627250e-01
C     7.372913844807390e+00   8.249063606937963e-06   2.997288103927250e+00  9.58522350e-01   1.13831280e-01  -3.71351100e-02
C     8.624018237460405e+00   6.970058753777303e-01   2.993630050821993e+00 -8.12748040e-01   7.13019950e-01   4.63610300e-02
C     1.231594692556543e+00   2.127637058404186e+00   2.992602374140127e+00 -3.55462000e-03  -1.41785100e-02   1.44857890e-01
C     2.469173956711990e+00   2.853472972560442e+00   3.002610756614325e+00 -8.47250650e-01  -8.17979270e-01  -7.21153300e-02
C     3.681161069134692e+00   2.140007301727709e+00   3.002413058827782e+00  1.01113393e+00  -3.62526130e-01  -7.73737900e-02
C     4.931477396289707e+00   2.842438776696801e+00   3.000942730594407e+00 -9.72102830e-01   1.37696530e-01  -3.99098700e-02
C     6.146858225329827e+00   2.124243904451281e+00   2.986023810764851e+00  5.33957680e-01   9.74060080e-01   2.29794930e-01
C     7.377592550609935e+00   2.853919172232902e+00   3.000119795288194e+00  2.93299170e-01  -8.54036900e-01  -2.52335690e-01
C     8.610514823584891e+00   2.124613243480205e+00   2.985797967457520e+00 -1.73952260e-01   2.06361020e-01   2.37861280e-01
C     9.835973067248775e+00   2.841517586758625e+00   3.008096956938142e+00  4.17385230e-01  -3.39687980e-01  -2.80612060e-01
C     2.456289843072833e+00   4.255719469314862e+00   2.997157311828156e+00  2.24764890e-01   4.81763060e-01   5.34902500e-02
C     3.688885834162644e+00   4.966268439889101e+00   2.995952508980565e+00 -3.04592370e-01   3.92352180e-01   5.77049700e-02
C     4.911724815616459e+00   4.271733637582164e+00   3.003950623928173e+00  1.07648130e+00  -5.59333530e-01  -3.96731300e-02
C     6.165915467159888e+00   4.972567370585847e+00   3.002654108007928e+00 -9.82173680e-01   4.90560820e-01  -6.73543100e-02
C     7.389283438685569e+00   4.269279779678787e+00   2.990091734197295e+00 -2.00516410e-01  -1.28014000e-01   2.06428490e-01
C     8.609530880030302e+00   4.983463669003943e+00   3.005423231455283e+00  6.01830050e-01  -4.59583730e-01  -1.36341110e-01
C     9.844284300330713e+00   4.260330113571769e+00   2.993753605970345e+00 -4.68538580e-01   9.95172900e-02   2.09213170e-01
C     1.107004816138420e+01   4.959630353341413e+00   3.001758172178884e+00  2.68167640e-01   5.58470860e-01  -6.63606900e-02
C     3.690024732074257e+00   6.390062588777174e+00   2.996163244052064e+00 -5.86668500e-02   7.76629000e-03  -1.06986530e-01
C     4.906906238923671e+00   7.101235305194339e+00   2.989948484086383e+00  7.71283690e-01   5.24856200e-02   1.83681780e-01
C     6.147245658045338e+00   6.399810365108049e+00   2.998869888185873e+00  4.37091860e-01  -1.16894670e-01  -4.93923900e-02
C     7.391078082764546e+00   7.113905228797798e+00   2.994028538858856e+00 -2.46455330e-01  -5.88967480e-01   4.45399800e-02
C     8.620660979567658e+00   6.393376146291163e+00   3.004898427647996e+00 -1.89010800e-01   3.97301690e-01  -7.38364600e-02
C     9.855581279224332e+00   7.103332187864341e+00   2.996655723252236e+00 -6.33441300e-02  -1.69731800e-01   5.94538100e-02
C     1.108373198643559e+01   6.387140418540572e+00   3.000916729335874e+00 -3.25063200e-02   8.79473500e-02  -7.83888900e-02
C     1.231555423599161e+01   7.111063069304808e+00   2.988242776069141e+00 -7.42270480e-01  -5.36968600e-01   1.53269400e-01
