32
Lattice="10.004 0 0 5.002 8.66371813945952 0 0 0 30 " PBC="1 1 1" Properties=species:S:1:pos:R:3:force:R:3 Energy="-257.53898584"
C    -1.176511285904815e-02   1.096607735153116e-02   3.007887332247411e+00  5.76252610e-01  -3.93565310e-01  -8.69623600e-02
C     1.251977519835216e+00   7.301466109090227e-01   3.004135106582797e+00 -2.03869020e-01  -3.66658400e-01  -3.38314600e-02
C     2.505449863622371e+00   1.194192430581849e-03   3.011598095204757e+00 -2.73100290e-01   3.60903900e-02  -2.06147820e-01
C     3.750682677122818e+00   7.223987045810863e-01   2.997175534305150e+00  1.52066450e-01   1.45060270e-01   1.27767660e-01
C     5.002173700305494e+00  -8.854231104720500e-03   3.004758066082632e+00  2.48143000e-02   3.20254090e-01  -2.29734590e-01
C     6.257440262244400e+00   7.085064739875072e-01   2.995795166364057e+00 -4.62442200e-01   3.28053820e-01   6.51478200e-02
C     7.498330499070193e+00  -3.824787680800727e-03   2.988386644993386e+00  3.44605990e-01  -1.96491500e-02   1.22524380e-01
C     8.744172806798428e+00   7.310034635324948e-01   3.006564591922682e+00  9.77743600e-02  -6.56329920e-01  -1.27614110e-01
C     1.260371920544616e+00   2.171098888868722e+00   2.988499425383603e+00 -8.63010790e-01  -2.65146100e-02   3.37158540e-01
C     2.486641879070896e+00   2.890232750289583e+00   3.016538214800330e+00  9.78682580e-01  -1.09795130e-01  -2.89305140e-01
C     3.745094600438179e+00   2.170293823392497e+00   2.996370171369978e+00  4.18321020e-01  -2.77989500e-02   9.19643300e-02
C     5.015493235930097e+00   2.887034679846658e+00   2.991865027514795e+00 -7.39659080e-01   1.48587990e-01   1.52227860e-01
C     6.250140722666692e+00   2.158406583620515e+00   3.008021951299780e+00  3.31196710e-01   2.09448800e-02  -2.21854310e-01
C     7.503970650679314e+00   2.888062173982983e+00   2.993948881065125e+00 -3.34783720e-01  -1.70401770e-01   9.98745100e-02
C     8.740919392303953e+00   2.151626296663609e+00   2.998088513941904e+00  8.57481390e-01   1.36581316e+00   7.95928900e-02
C     1.001260992098873e+01   2.902857160880554e+00   3.006852252858496e+00 -5.74408080e-01  -8.40843620e-01  -1.70508540e-01
C     2.495783601996473e+00   4.321861501389109e+00   3.008752282810753e+00  1.00872400e-01   6.57942350e-01  -1.00364200e-02
C     3.749798708193711e+00   5.051108476633868e+00   3.000376770653343e+00  1.58141710e-01  -1.24783160e-01   1.30435360e-01
C     5.014607417989320e+00   4.344030262544567e+00   3.000131045546467e+00 -7.39339640e-01  -7.35045290e-01  -6.07959100e-02
C     6.247331135365846e+00   5.054466068318137e+00   2.998035111204523e+00  4.37622030e-01   3.46956930e-01   1.94254200e-02
C     7.492339078498933e+00   4.331299921073624e+00   2.995732697420320e+00  7.11272660e-01   1.95607810e-01  -2.18395300e-02
C     8.754250750354094e+00   5.067112148969602e+00   2.994982807577289e+00 -2.66404690e-01  -5.82599490e-01   1.26689440e-01
C     1.001037689665287e+01   4.340017587695963e+00   3.004008644146253e+00 -5.04115320e-01  -8.99874000e-03  -3.84796800e-02
C     1.125254146579723e+01   5.055969064025859e+00   3.001265576117921e+00  4.08011490e-01   7.01335400e-02   3.78661200e-02
C     3.761281551288485e+00   6.493558349637468e+00   3.012915276451380e+00 -2.96651780e-01  -5.52393400e-02  -2.57242490e-01
C     5.005019079953331e+00   7.212418141051889e+00   2.995263449222035e+00  4.41664500e-02   7.12165470e-01   2.11052440e-01
C     6.255259920093233e+00   6.501289581637780e+00   3.001392154766505e+00  1.58445620e-01  -2.82943300e-02  -1.01175200e-01
C     7.511676409502021e+00   7.221311845249898e+00   2.993429651843488e+00 -4.25179240e-01   1.29909150e-01   2.50488120e-01
C     8.755735954064210e+00   6.503957076988518e+00   3.009319357148306e+00  4.16760600e-02  -1.99621030e-01  -3.05137620e-01
C     1.000504147221962e+01   7.218336765835434e+00   2.983935473141794e+00  2.48382080e-01   6.17041000e-03   2.91213970e-01
C     1.126163457400274e+01   6.498914777920698e+00   2.994544581323392e+00 -1.32314200e-02   3.71694800e-02  -7.65294100e-02
C     1.251832518918045e+01   7.220618438759734e+00   2.992181631003058e+00 -3.93590640e-01  -1.74721550e-01   9.37657200e-02
