32
Lattice="9.86 0 0 4.93 8.53901048131456 0 0 0 30 " PBC="1 1 1" Properties=species:S:1:pos:R:3:force:R:3 Energy="-255.17511169"
C     5.056224022499999e+00   7.985000077788333e+00  -1.061731500000000e+00  8.62733030e-01  -1.25880770e-01   2.12951890e-01
C     1.395973820700000e+00   1.017968741461672e-01  -1.028360100000000e+00 -1.31396220e-01   1.08433067e+00  -8.42445670e-01
C     7.604106393700000e+00   7.897580420977448e+00  -1.029056400000002e+00 -2.24797290e+00   2.76515024e+00  -2.75902170e-01
C     3.891284298800000e+00   1.164391423667472e-01  -1.045057800000002e+00 -1.37719412e+00   7.69091270e-01  -1.39675530e-01
C     1.000143854480000e+01   7.975382675674815e+00  -1.038819300000000e+00  3.82783369e+00  -1.93622463e+00  -9.26864080e-01
C     6.382061395400000e+00   1.616304890904704e-01  -1.026732600000003e+00 -5.04581092e+00  -9.46568430e-01  -1.27189780e-01
C     1.246683176160000e+01   7.945788002373021e+00  -1.010574900000002e+00 -7.63812000e-03   1.23097176e+00  -1.26810850e-01
C     8.690628304900001e+00   1.912155133104216e-01  -9.478194000000002e-01  4.73593388e+00  -4.01032581e+00  -8.59164800e-01
C     1.339589016300000e+00   1.549999047576980e+00  -1.206158100000000e+00  2.31927519e+00  -1.76139415e+00   1.61005598e+00
C     2.618189051900000e+00   2.219665991844901e+00  -1.167704099999998e+00 -9.47952020e-01   1.46935582e+00  -1.33268871e+00
C     3.878295523599999e+00   1.566869997532840e+00  -1.137587700000001e+00 -1.55899007e+00  -6.08680780e-01   4.10980010e-01
C     5.051443154999999e+00   2.340273793737880e+00  -1.154922599999999e+00  1.95351486e+00  -2.29665115e+00   1.13802280e-01
C     6.297523234400000e+00   1.581240469049842e+00  -1.087622700000001e+00 -7.32771860e-01  -1.12183256e+00   1.96047660e-01
C     7.520142577700000e+00   2.183071891652652e+00  -1.093716300000001e+00  2.46350638e+00   4.72859173e+00   6.16371150e-01
C     8.807977094900000e+00   1.552893430569281e+00  -1.009383000000000e+00 -4.21888331e+00  -2.71987630e-01  -2.46086550e-01
C     9.969882847299999e+00   2.232634357841087e+00  -1.153449599999998e+00  3.03956118e+00   2.27585651e+00  -4.47643800e-01
C     2.622058756800000e+00   3.677246645876004e+00  -1.340578199999999e+00 -7.01242780e-01  -2.81486198e+00   6.69995300e-01
C     3.810725683100000e+00   4.318416435859126e+00  -1.305642600000002e+00  2.51037808e+00   6.22024341e+00   7.26092580e-01
C     5.086794459500000e+00   3.741058756583148e+00  -1.198286099999997e+00 -3.65060730e-01  -1.45793544e+00   1.76494570e-01
C     6.331511196700000e+00   4.400618415706314e+00  -1.066125300000003e+00  1.20524623e+00  -2.84705920e-01  -6.09270690e-01
C     7.592474206600000e+00   3.638172817040362e+00  -1.067901000000003e+00 -1.15694476e+00   9.75742550e-01  -4.51014260e-01
C     8.855767824699999e+00   4.394907013156661e+00  -1.164635400000002e+00 -2.87383164e+00  -1.00939346e+00   2.21447360e-01
C     1.004714595520000e+01   3.677467635467226e+00  -1.243052400000000e+00  2.57264340e-01  -4.33606970e-01  -2.23223800e-02
C     1.128376107550000e+01   4.392614971963618e+00  -1.335406799999998e+00 -1.30602246e+00  -2.05382070e-01   2.40473440e-01
C     3.831248089899999e+00   5.875309111986715e+00  -1.177565700000002e+00  2.16988148e+00  -2.90827662e+00  -1.19740937e+00
C     5.173710704599999e+00   6.574611289856209e+00  -1.208843999999999e+00 -5.15968125e+00  -8.17253590e-01   1.47313841e+00
C     6.344448058999999e+00   5.823690879025219e+00  -1.088008500000001e+00 -8.43184560e-01  -7.37767030e-01  -4.68864230e-01
C     7.528440310000000e+00   6.513353624134157e+00  -1.085108999999999e+00  3.36227624e+00  -2.78192480e-01   1.52985360e-01
C     8.778803277600000e+00   5.801723420664371e+00  -1.171610100000002e+00  1.34783390e+00   3.76288870e-01   2.47765000e-03
C     1.004795033400000e+01   6.496706652423187e+00  -1.223842800000000e+00 -2.07277551e+00   2.12072995e+00   1.21011383e+00
C     1.126890595020000e+01   5.810617995540759e+00  -1.248707100000001e+00 -5.56712980e-01  -5.16099870e-01  -3.54257880e-01
C     1.246508230180000e+01   6.534462911941765e+00  -1.164936300000001e+00  1.24882772e+00   5.26668570e-01   3.94183300e-01
