32
Lattice="9.86 0 0 4.93 8.53901048131456 0 0 0 30 " PBC="1 1 1" Properties=species:S:1:pos:R:3:force:R:3 Energy="-257.20390112"
C     1.252938153100000e+00   4.595392305463960e-01   3.316514400000000e+00 -6.81674430e-01  -3.60097190e-01  -4.69705550e-01
C     2.454811957800000e+00   1.193722583105853e+00   3.368019600000000e+00  6.19086020e-01  -7.95992070e-01   5.39097240e-01
C     3.675089846899999e+00   4.848036008535720e-01   3.406836900000000e+00  1.23400269e+00  -9.63179980e-01  -1.28347830e-01
C     4.932120343699999e+00   1.176404701341470e+00   3.411742500000000e+00 -3.85392260e-01   3.94206060e-01   1.39598280e-01
C     6.173220777999999e+00   4.618170115919360e-01   3.406782900000000e+00 -9.29622490e-01   4.55263460e-01  -3.61418570e-01
C     7.370292121799999e+00   1.195051423916750e+00   3.305025900000000e+00  2.12034918e+00  -1.21093516e+00  -5.87547700e-02
C     8.649878798300000e+00   4.933528581461480e-01   3.261495900000000e+00 -6.75700380e-01  -1.59021500e-01   4.89698590e-01
C     9.900562068000001e+00   1.190929814338264e+00   3.322806300000000e+00 -1.54729654e+00  -3.48087790e-01  -5.14655630e-01
C     2.466505375500000e+00   2.589385847465217e+00   3.528125700000000e+00 -1.10981176e+00   8.55364450e-01  -3.09228920e-01
C     3.681998650300000e+00   3.305362578049532e+00   3.580810200000000e+00  1.41946163e+00   3.22048770e-01  -8.16212120e-01
C     4.940366951900000e+00   2.619785920235484e+00   3.425994900000000e+00 -6.19433160e-01  -1.73247381e+00   7.40258400e-02
C     6.186603903900000e+00   3.259380518955361e+00   3.297895500000000e+00 -1.52054660e+00   3.37593862e+00   6.62746670e-01
C     7.398827602700000e+00   2.589621694934674e+00   3.271122300000000e+00  5.97650510e-01   6.17852830e-01  -1.66619430e-01
C     8.637984384499999e+00   3.323164536318027e+00   3.291136800000000e+00 -5.55000250e-01   2.46283420e-01   5.38210710e-01
C     9.837323972000000e+00   2.613064267355942e+00   3.358597500000000e+00  1.73200646e+00  -4.93348520e-01   1.46670430e-01
C     1.107348696200000e+01   3.302474257754672e+00   3.500733300000000e+00  5.74276310e-01   1.12634259e+00   5.58498100e-01
C     3.711750855200000e+00   4.725915350156000e+00   3.546884400000000e+00 -4.96043580e-01   6.39730170e-01   3.76743170e-01
C     4.932499460699999e+00   5.473436637085217e+00   3.434376600000000e+00 -4.12335000e-02  -2.30653530e+00  -1.28302450e-01
C     6.154463459100000e+00   4.734440612829127e+00   3.337691700000000e+00  7.40671140e-01  -6.41961830e-01  -3.47690100e-02
C     7.391672052800000e+00   5.447135716295874e+00   3.333364500000000e+00  8.59629230e-01  -9.24858020e-01  -3.19462600e-02
C     8.671917032200000e+00   4.747808519125671e+00   3.403092300000000e+00 -2.16962805e+00  -2.78548660e-01  -2.12065790e-01
C     9.865210812799999e+00   5.477330340473991e+00   3.565884600000000e+00  4.12835380e-01  -1.31190766e+00  -4.23902610e-01
C     1.108601739510000e+01   4.745228627889350e+00   3.645229500000000e+00  8.34838220e-01  -5.65751170e-01  -6.68009790e-01
C     1.234769594520000e+01   5.445028800850038e+00   3.624837300000000e+00 -9.19736010e-01   5.70504320e-01  -5.50286100e-02
C     4.922132065100000e+00   6.861077586488726e+00   3.366775200000000e+00  1.37991880e-01   1.59081524e+00  -7.83072520e-01
C     6.160656525099999e+00   7.553241749327674e+00   3.224862900000000e+00  3.66700420e-01   1.02300741e+00   1.07655722e+00
C     7.404090279100000e+00   6.851973635075368e+00   3.300833100000000e+00 -4.20348570e-01   6.88144580e-01   2.04787240e-01
C     8.626380692800000e+00   7.578556755966996e+00   3.411782700000000e+00 -9.03659100e-02   5.39300870e-01  -4.15053000e-01
C     9.862040822799999e+00   6.869221326173607e+00   3.484787700000000e+00 -8.78710000e-02   1.38373801e+00   3.23435700e-01
C     1.109989411260000e+01   7.584958622904063e+00   3.470856300000000e+00 -6.28812350e-01   1.84036100e-02   3.98445130e-01
C     1.231272533530000e+01   6.895247632385913e+00   3.549460800000000e+00  1.72271863e+00  -7.26462330e-01  -9.13008760e-01
C     1.356087216930000e+01   7.617598051172710e+00   3.334501800000000e+00 -4.93700880e-01  -1.02778346e+00   9.61587300e-01
