26
Lattice="8.88768389401873 1.33226762955019e-15 0 4.44384194700937 7.69696003302603 0 0 0 30 " PBC="1 1 1" Properties=species:S:1:pos:R:3:force:R:3 Energy="-208.56383562"
C     4.231298320743924e-01   5.176881413265634e-01   3.548810700000000e+00  1.80458466e+00   4.95468100e-02  -2.29939800e-01
C     7.324057581483517e+00   7.633932087341540e+00   3.527934000000000e+00 -4.77225440e-01  -2.65511810e-01  -4.29630800e-01
C     4.240785431351783e+00   3.707457083026343e-01   3.414369600000000e+00  4.69093680e-01  -8.18312730e-01   1.42575240e-01
C     9.723737430704414e+00   7.057928775013284e+00   3.285848700000000e+00 -1.54100115e+00   2.56679936e+00   1.50194570e-01
C     1.104956229686710e+01   7.483276178981536e+00   3.290992800000000e+00  1.20646753e+00  -5.16641460e-01   3.47063210e-01
C     1.206226730401553e+01   6.477307825454231e+00   3.355523400000000e+00  2.42716110e-01  -4.34888120e-01   3.93100580e-01
C     4.536692205190756e+00   6.856535583709925e+00   3.523382700000000e+00 -7.47633480e-01   4.86004900e-02  -2.18178380e-01
C     5.560844371478623e+00   5.916440585024971e+00   3.560408400000000e+00  1.17502449e+00  -3.05001370e+00  -4.46345370e-01
C     6.969522404281875e+00   6.242402455028254e+00   3.484305900000000e+00 -9.81859080e-01   1.70299271e+00   1.58039340e-01
C     7.993047366717719e+00   5.302452467070265e+00   3.342000000000000e+00  4.24328770e-01   1.15066426e+00   1.73946310e-01
C     9.350270420343870e+00   5.741615375505165e+00   3.259235100000000e+00 -3.78037500e-01  -2.92286042e+00   1.48007440e-01
C     1.032631937510428e+01   4.703249208728384e+00   3.297366000000000e+00  2.31536103e+00   5.87633490e-01   3.33476530e-01
C     1.172613141000850e+01   5.094300883042964e+00   3.383557800000000e+00 -2.34641380e-01  -8.14806940e-01   1.05626200e-02
C     3.860649284004341e+00   4.058197391606203e+00   3.525332400000000e+00 -1.15794750e-01   1.28861135e+00  -5.12548510e-01
C     5.251814846774721e+00   4.472921682249850e+00   3.525243900000000e+00 -3.92075350e-01   1.64481281e+00   2.12822180e-01
C     6.354343275661947e+00   3.568689360341476e+00   3.489143100000000e+00 -3.22129488e+00  -1.32586106e+00  -8.39107500e-02
C     7.668036808799211e+00   3.958748203781786e+00   3.385824300000000e+00  9.54454100e-01  -1.31709771e+00   9.26367200e-02
C     8.650703355246083e+00   2.944472752202903e+00   3.406536300000000e+00  1.36239836e+00  -1.39847352e+00   6.38113400e-02
C     1.002996257671222e+01   3.329291967072391e+00   3.402276300000000e+00 -1.10823073e+00  -1.21045570e+00   2.39580600e-02
C     2.129284289288625e+00   2.280533980619906e+00   3.507916500000000e+00 -9.67132000e-02   2.70028600e-02  -8.72335300e-02
C     3.476564290977661e+00   2.683371471041223e+00   3.524787900000000e+00  2.28596126e+00   7.55788700e-02  -7.88637000e-03
C     4.588030041441304e+00   1.735869379840999e+00   3.486212700000000e+00 -1.68602200e-02   1.06025009e+00  -6.96244700e-02
C     6.003362772074344e+00   2.183028429142265e+00   3.460240500000000e+00 -1.86051798e+00  -1.00017066e+00  -8.83386300e-02
C     6.975852609389426e+00   1.155199785494556e+00   3.390263100000000e+00 -5.46522800e-02   1.65653570e-01   6.89614700e-02
C     8.349584757979075e+00   1.510811961895005e+00   3.460671000000000e+00 -1.29719949e+00   2.31284661e+00  -1.72437660e-01
C     1.806534135963901e+00   8.599224624076705e-01   3.557501700000000e+00  2.83346940e-01   2.39410057e+00   2.69186700e-02
