32
Lattice="9.86 0 0 4.93 8.53901048131456 0 0 0 30 " PBC="1 1 1" Properties=species:S:1:pos:R:3:force:R:3 Energy="-252.09842197"
C     5.062657672499999e+00   8.197214127940438e+00  -8.990118000000002e-01 -3.63617974e+00  -1.18788095e+00   1.23725858e+00
C     1.338624856200000e+00   3.631446467705056e-01  -8.755334999999995e-01  1.92992990e-01  -3.58596030e-01   7.52596400e-01
C     7.460454969099999e+00   8.163659915479068e+00  -7.944177000000003e-01  1.67508185e+00  -2.98546417e+00  -8.95162990e-01
C     3.749393771599999e+00   2.785732622953280e-01  -7.092023999999988e-01  2.12973230e-01   3.21331415e+00   3.32219550e-01
C     9.907758191799999e+00   8.159692093479327e+00  -6.776286000000020e-01 -3.16051260e-01  -1.69329076e+00   1.41227943e+00
C     6.132202339900000e+00   3.897876403196776e-01  -6.428829000000000e-01  2.70022512e+00  -2.66578796e+00  -2.53928640e-01
C     1.232772525470000e+01   8.102422572601958e+00  -5.684492999999975e-01  2.30522151e+00   3.64784275e+00  -1.42032122e+00
C     8.662955574000000e+00   3.011022459853408e-01  -9.068106000000000e-01  6.13321490e-01   1.36910735e+00   7.29649810e-01
C     1.371659455100000e+00   1.747257191653574e+00  -5.564765999999999e-01 -2.15913999e+00  -4.20226190e-01  -5.20759990e-01
C     2.534938705500000e+00   2.446980769690257e+00  -2.948726999999991e-01  1.52435783e+00  -2.67649610e-01   5.96577850e-01
C     3.752432919400000e+00   1.716973334815939e+00  -5.163365999999989e-01  1.00109589e+00   1.43477433e+00   7.84034620e-01
C     5.005716566899999e+00   2.517489087025713e+00  -4.689957000000007e-01 -3.53604937e+00  -1.23150154e+00  -1.36693100e-01
C     6.132545566499999e+00   1.796384339087739e+00  -7.541417999999993e-01  3.80682708e+00   5.32866670e-01  -2.48272000e-03
C     7.406510268199999e+00   2.528405272633240e+00  -8.900439000000020e-01  2.28827305e+00  -2.39984321e+00  -2.18755230e-01
C     8.707524252999999e+00   1.801734797664402e+00  -9.871437000000007e-01 -1.24040527e+00  -2.28281159e+00   1.97863728e+00
C     9.979359046799999e+00   2.423181778971554e+00  -5.700476999999999e-01 -2.28269931e+00  -6.31999510e-01  -1.75979425e+00
C     2.495777792800000e+00   3.824872816218854e+00   1.267254000000000e-01  2.20579490e-01   1.85528648e+00  -1.87351971e+00
C     3.712187949000000e+00   4.637855609119533e+00   1.099800000000000e-02  3.10845670e+00  -1.52375183e+00  -2.13274272e+00
C     4.968801811500000e+00   3.924320437801764e+00  -3.210782999999999e-01  6.24862590e-01   3.76445520e-01  -4.26436850e-01
C     6.228431601500000e+00   4.608832622569375e+00  -7.118936999999974e-01 -1.74634143e+00   9.40428600e-02   1.91923400e-01
C     7.501344389100000e+00   3.917258505354594e+00  -8.736843000000007e-01 -2.98020859e+00   8.97966920e-01   9.18812550e-01
C     8.679717327500001e+00   4.648175088674718e+00  -6.702249000000009e-01  3.00770195e+00  -6.56757266e+00   8.87747000e-03
C     9.907067153699998e+00   3.790404673465810e+00  -4.249668000000000e-01  5.01219520e-01   4.48740132e+00   9.41806310e-01
C     1.111791217800000e+01   4.544915823593746e+00  -2.696729999999903e-02 -4.38691560e-01   1.04420137e+00  -7.97644930e-01
C     3.856217899000000e+00   6.020935873025674e+00  -3.720897000000001e-01 -2.62385650e+00   5.86782310e-01   2.39372060e+00
C     5.047848100400000e+00   6.761481044563045e+00  -5.817152999999990e-01 -1.50341120e-01   4.70904860e-01  -2.38508144e+00
C     6.166634199399999e+00   6.004276775919823e+00  -8.937093000000012e-01  5.77156270e+00   3.14337020e-01   1.56501446e+00
C     7.640788847500000e+00   6.708341672274643e+00  -9.028703999999976e-01 -6.18909813e+00   9.85228480e-01   1.67858630e-01
C     8.828491169999999e+00   5.967058303281275e+00  -6.811335000000014e-01 -4.16323896e+00   3.00444624e+00  -3.77710280e-01
C     9.930688262699999e+00   6.693947803868926e+00  -4.182188999999994e-01  3.66750352e+00   3.44364226e+00  -5.90290900e-01
C     1.114844987980000e+01   6.076537981326613e+00  -1.457489999999986e-01  2.22438819e+00  -3.39802347e+00   3.24647230e-01
C     1.249366220200000e+01   6.746056005251764e+00  -2.607399000000008e-01 -3.98434346e+00  -1.44191390e-01  -5.44589180e-01
