26
Lattice="8.88768389401873 1.33226762955019e-15 0 4.44384194700937 7.69696003302603 0 0 0 30 " PBC="1 1 1" Properties=species:S:1:pos:R:3:force:R:3 Energy="-208.01647866"
C     1.292217796160827e+01   7.222548046442111e+00  -1.361849999999976e-02  1.64840337e+00  -2.04837139e+00  -9.54952300e-02
C     9.168574522345912e+00   7.078254522212506e+00   1.064574000000000e-01  8.65526750e-01  -4.37605600e-02   3.05992510e-01
C     1.053661935264351e+01   6.673405508256950e+00   1.424613000000000e-01 -6.36213160e-01  -1.34407347e+00   4.03588540e-01
C     1.083310217660190e+01   5.289963764573588e+00   2.096223000000000e-01  3.12203218e+00  -5.31618480e-01  -6.89449560e-01
C     6.798458397383950e+00   6.419293220741711e+00  -1.936410000000066e-02 -3.95354020e-01   2.81491247e+00   8.11168500e-02
C     8.181221321151030e+00   6.123440242014182e+00   1.345629000000000e-01 -1.64732081e+00  -3.58056567e+00  -7.16470550e-01
C     8.502729374360472e+00   4.691196385078207e+00   1.391997000000000e-01  1.45879823e+00   6.32346770e-01   9.79628370e-01
C     9.891795043520879e+00   4.278830135109351e+00   2.586273000000000e-01 -2.18186918e+00   4.03901340e-01  -9.79886630e-01
C     1.021569526132935e+01   2.910645382567056e+00   1.039731000000000e-01 -3.80878020e-01  -1.50547543e+00  -9.27948700e-01
C     4.396563381043743e+00   5.784466815019385e+00   2.769000000000000e-03  7.40779420e-01   2.82976996e+00  -3.80747530e-01
C     5.795827534203232e+00   5.449942461830728e+00  -3.626639999999881e-02 -6.77453840e-01  -2.54495315e+00   9.70412490e-01
C     6.157397711308857e+00   4.007874666930063e+00   1.048416000000000e-01 -5.67051210e-01   2.25474283e+00  -1.54256525e+00
C     7.544280698673205e+00   3.675663712048023e+00   1.102134000000000e-01 -1.70542002e+00  -4.94783700e-01   3.29331200e-02
C     7.856468460000799e+00   2.276510856581826e+00   6.138300000000000e-02 -5.01389830e-01   5.39967340e-01   3.89978310e-01
C     9.206118273212434e+00   1.894519966644962e+00   7.535999999999999e-03 -2.15877150e-01   4.35977100e-01  -1.71394400e-02
C     3.362645337598304e+00   4.842805946785926e+00   4.699440000000001e-02 -1.32689306e+00   1.18783850e+00   7.73140960e-01
C     3.701086428408338e+00   3.504875481094352e+00  -1.057500000001710e-03  7.75024390e-01  -3.15884602e+00  -1.17639970e+00
C     5.120765147003386e+00   3.054010037660240e+00  -5.794320000000042e-02 -1.38580616e+00   7.92424310e-01   1.53692550e+00
C     5.438503977942476e+00   1.666371526520521e+00   6.854280000000000e-02 -7.37588990e-01   1.05400491e+00  -7.25331540e-01
C     6.806237606024085e+00   1.316048624083087e+00   9.940170000000000e-02  4.47467030e-01  -1.68809290e+00  -1.81450860e-01
C     1.158910741165984e+01   7.575486144988938e+00   9.935670000000001e-02 -4.98313780e-01   3.14727840e+00  -2.55060840e-01
C     2.647364403272662e+00   2.467241987942828e+00  -1.363176000000017e-01  1.76575272e+00   3.60206985e+00   1.56565196e+00
C     3.009402650327476e+00   1.143895414237696e+00  -1.565732999999980e-01 -5.58781800e-01  -2.44570375e+00   7.04710600e-01
C     4.363125111339206e+00   7.199740260542015e-01   2.293710000000000e-02  7.01749810e-01   1.33551310e+00  -4.72593900e-01
C     6.342417871278196e-01   5.081929405247545e-01  -1.251897000000000e-01 -2.12687191e+00   6.73513810e-01   8.08372860e-01
C     1.940441491357475e+00   1.561459960102013e-01  -1.019582999999997e-01  4.01754905e+00  -2.31801616e+00  -3.91912320e-01
