32
Lattice="9.86 0 0 4.93 8.53901048131456 0 0 0 30 " PBC="1 1 1" Properties=species:S:1:pos:R:3:force:R:3 Energy="-257.62044777"
C     4.964065659100000e+00   7.112158138302017e+00   1.095690000000000e-02  1.45017638e+00  -3.89713240e-01  -1.72597930e-01
C     6.226973948400000e+00   7.821473672200988e+00  -2.113079999999812e-02 -1.15210259e+00  -1.14839850e-01  -8.65396800e-02
C     7.433269667299999e+00   7.105011840431304e+00  -5.804009999999948e-02  9.42820130e-01  -2.26288720e-01  -7.53293600e-02
C     8.677089736100001e+00   7.832920984260372e+00  -7.196190000000158e-02  6.80047600e-02  -5.11662520e-01   3.79597640e-01
C     9.919591375000000e+00   7.111810344405166e+00  -5.376600000001730e-03 -2.91775080e-01  -7.93168000e-02  -3.00983560e-01
C     1.114963130500000e+01   7.806635946030521e+00  -1.307159999999996e-02  5.30554210e-01   7.05726170e-01   2.73473460e-01
C     1.238788924920000e+01   7.108124224361160e+00   4.752180000000000e-02 -2.03499980e-01  -1.62659470e-01  -1.29909280e-01
C     1.361431327070000e+01   7.823385983597985e+00   7.976460000000000e-02 -4.07728820e-01  -9.53304000e-03  -2.70477010e-01
C     1.302739435500000e+00   6.967814619757993e-01  -2.685269999999917e-02 -4.04730480e-01   9.66630410e-01   6.53933310e-01
C     2.541674761700000e+00   1.430689943787905e+00  -1.160579999999811e-02 -6.07629600e-01  -2.79277180e-01  -4.15377730e-01
C     3.774299934400000e+00   7.244344496845456e-01  -5.449559999999920e-02 -3.36118310e-01  -1.09284820e+00   1.42384100e-02
C     5.024686122300000e+00   1.387117251890770e+00  -5.697149999999951e-02 -1.04876888e+00   1.56640187e+00  -2.29965820e-01
C     6.237465826499999e+00   6.976835230429064e-01  -5.385900000000277e-02  8.56208720e-01  -4.26289200e-02   2.40441560e-01
C     7.481259519800000e+00   1.450514366688587e+00  -2.878019999999992e-02 -1.28586350e+00  -2.38441502e+00   1.91076880e-01
C     8.682720091900000e+00   7.052931476222631e-01   7.643670000000001e-02  3.66924370e-01   3.96935490e-01  -4.49880720e-01
C     9.901957800300000e+00   1.416674524326662e+00   4.403730000000000e-02  1.20351472e+00  -2.24675180e-01   8.62720500e-02
C     2.511010358900000e+00   2.849401107504151e+00  -1.956210000000169e-02  1.66200300e-01  -2.63989990e-01   1.26701140e-01
C     3.754956980799999e+00   3.555949148106555e+00  -1.047374999999988e-01 -3.60066890e-01  -8.61249890e-01   6.39822660e-01
C     4.986093540000000e+00   2.828909958665190e+00  -8.992289999999770e-02  3.82480660e-01  -3.71531600e-02  -2.25802150e-01
C     6.212609604600001e+00   3.551560438280255e+00  -1.185407999999981e-01  7.96966600e-02  -7.34708490e-01  -3.13591300e-02
C     7.453742429000000e+00   2.828248356133200e+00  -9.102659999999929e-02  3.99859770e-01   2.00835579e+00   8.09940900e-02
C     8.697482779700000e+00   3.564232586002889e+00  -5.515589999999904e-02 -1.14555992e+00  -8.53037800e-02   4.05688040e-01
C     9.905037522000001e+00   2.849115648383805e+00   7.091610000000001e-02 -3.99959600e-01  -8.48399880e-01  -5.89956070e-01
C     1.111723287330000e+01   3.536252981143282e+00   6.179279999999999e-02  2.00614745e+00   5.06587390e-01  -2.83790090e-01
C     3.759068354300000e+00   4.960891925934745e+00  -4.498170000000101e-02  5.72952970e-01   8.56103800e-01  -2.52231460e-01
C     4.996539076099999e+00   5.677825879593867e+00  -8.411070000000009e-02 -1.00329130e+00   5.56781870e-01   4.11220470e-01
C     6.212004595000000e+00   4.967075791934256e+00  -1.199544000000010e-01 -2.64939100e-02  -2.01217730e-01   9.65594000e-02
C     7.427123436300000e+00   5.664714912122666e+00  -7.532070000000246e-02  9.83507450e-01   1.34799699e+00  -1.88290100e-01
C     8.672959184900000e+00   4.990321283993646e+00  -5.986830000000154e-02  1.00592316e+00  -4.86814040e-01   3.09688270e-01
C     9.938680137799999e+00   5.689580254470112e+00   2.194710000000000e-02 -6.75691250e-01  -3.99484240e-01  -2.24270400e-01
C     1.117795104910000e+01   4.949008526610148e+00   4.548210000000000e-02 -1.18433186e+00   1.32951553e+00  -3.64864100e-02
C     1.240411875990000e+01   5.690876903211500e+00   2.182560000000000e-02 -4.81359750e-01  -8.04855970e-01   5.35395100e-02
