32
Lattice="9.86 0 0 4.93 8.53901048131456 0 0 0 30 " PBC="1 1 1" Properties=species:S:1:pos:R:3:force:R:3 Energy="-251.99710088"
C     4.899543692500000e+00   8.077174597194903e+00   6.411720000000000e-02  5.17481865e+00  -2.91776730e-01  -5.17324010e-01
C     1.320163731700000e+00   3.012825044965736e-01  -8.110860000000031e-02 -2.65374399e+00  -1.58811320e+00   6.53632530e-01
C     7.392063691999999e+00   8.050582837708610e+00   1.521540000000000e-02  3.12174578e+00   9.14286350e-01  -3.99199070e-01
C     3.797502486400000e+00   2.492255371766160e-01  -2.370180000000133e-02 -9.34742820e-01   1.16356298e+00  -3.15237424e+00
C     9.989552265499999e+00   8.124965560269157e+00  -3.361362000000021e-01 -1.52238078e+00  -8.48681000e-01   2.37242307e+00
C     6.332014303200000e+00   2.081224978905072e-01  -1.864359000000029e-01 -2.72326154e+00   2.87031128e+00  -1.33569150e-01
C     1.244557932040000e+01   8.053005184201577e+00  -1.471572000000023e-01 -2.52676251e+00  -3.42318750e+00  -2.22085444e+00
C     8.650886835400000e+00   2.034082809847088e-01   1.783200000000000e-03  2.54694061e+00   2.93860421e+00   5.51186530e-01
C     1.343498259800000e+00   1.681385642398862e+00  -3.694524000000001e-01 -7.85716190e-01   1.15689376e+00   2.19520697e+00
C     2.589481514000000e+00   2.394821163464329e+00  -5.982873000000026e-01 -5.81198650e-01   9.38085900e-02  -7.65520520e-01
C     3.824750300600000e+00   1.705060902855710e+00  -4.424504999999996e-01  4.70506800e-01  -2.02151907e+00   2.11904789e+00
C     5.126683089499999e+00   2.416474130069199e+00  -3.356372999999984e-01 -3.27789697e+00  -2.74269791e+00  -5.27597050e-01
C     6.306450429100000e+00   1.669740908417182e+00  -8.576190000000139e-02  7.14352770e-01  -8.50773840e-01  -3.44407160e-01
C     7.559028297799999e+00   2.367022414846690e+00   3.332850000000000e-02 -2.53212845e+00  -2.29955310e+00  -7.30902300e-02
C     8.740488993800000e+00   1.635254321401501e+00   3.880620000000000e-02  1.17179223e+00   1.51257522e+00   6.09608410e-01
C     9.969849668399998e+00   2.439476601890328e+00  -4.467599999998129e-03  1.04037529e+00  -1.75212088e+00  -4.25893327e+00
C     2.545612796400000e+00   3.801092867493522e+00  -9.476240999999987e-01 -8.89796410e-01   2.29507400e-01   1.40702464e+00
C     3.812437773500000e+00   4.476917036048257e+00  -8.530094999999989e-01 -1.15404634e+00   2.17410115e+00   1.09339361e+00
C     4.956778576800000e+00   3.778361850815552e+00  -4.793687999999996e-01  4.45827571e+00   2.01850235e+00   1.83957960e-01
C     6.244480181200000e+00   4.526007892687882e+00  -2.395271999999977e-01 -7.44894510e-01  -3.40642360e+00   1.15570068e+00
C     7.457171441200000e+00   3.712414731318093e+00   3.826500000000000e-02  1.43224585e+00   6.06608859e+00  -2.09871434e+00
C     8.723063859500000e+00   4.511799406199685e+00  -1.956951000000018e-01 -1.04177022e+00   9.48480130e-01   4.13965290e-01
C     9.941682458500001e+00   3.833970192594141e+00  -4.969446000000026e-01 -2.16115693e+00  -1.50641759e+00   2.78261346e+00
C     1.107787870460000e+01   4.545573498180914e+00  -8.285477999999991e-01  4.55995584e+00  -7.59122670e-01  -3.52140370e-01
C     3.858774399800000e+00   5.966414974231713e+00  -6.056804999999983e-01 -1.42278059e+00  -1.46247144e+00   6.39919710e-01
C     4.964242892600000e+00   6.665706649118317e+00  -1.575569999999971e-02  1.15658401e+00  -1.82788212e+00  -2.22459047e+00
C     6.270904340300000e+00   5.899228417363081e+00  -4.952760000000112e-02 -5.70854831e+00  -1.33132020e-01  -2.19868530e-01
C     7.365804145600000e+00   6.605450950885988e+00  -1.094999999999402e-03  7.06433606e+00   3.32352254e+00   2.91076350e-01
C     8.715631736599999e+00   5.981766065712237e+00  -1.590051000000017e-01 -1.44168803e+00  -1.38647184e+00  -3.16817440e-01
C     9.924739823299999e+00   6.718615638903969e+00  -3.524081999999993e-01  1.79152674e+00  -2.06954174e+00  -1.21717559e+00
C     1.121408232890000e+01   5.942003053340754e+00  -7.095425999999989e-01 -2.98687281e+00   1.51813791e+00   7.15588140e-01
C     1.245335264860000e+01   6.629272911542881e+00  -6.335525999999980e-01  3.85929710e-01   1.44150380e+00   1.63783062e+00
