32
Lattice="9.86 0 0 4.93 8.53901048131456 0 0 0 30 " PBC="1 1 1" Properties=species:S:1:pos:R:3:force:R:3 Energy="-256.45170154"
C     1.290788523900000e+00   6.822062249874872e-01   3.626780100000000e+00 -6.31290960e-01   1.99218960e+00   1.61084920e-01
C     2.502186398400000e+00   1.480904875767117e+00   3.507476400000000e+00 -2.57355460e-01  -1.13185653e+00  -5.82708110e-01
C     3.742994040000000e+00   7.617962069189471e-01   3.568183500000000e+00 -7.21669650e-01  -5.68502800e-01   6.46799980e-01
C     4.956566586799999e+00   1.487842821782117e+00   3.609717900000000e+00  7.11334010e-01  -1.69269723e+00  -5.35888870e-01
C     6.204888337200000e+00   7.514628087766800e-01   3.660937500000000e+00 -1.45600939e+00  -1.13526581e+00   4.68725170e-01
C     7.400613692399999e+00   1.461248927543205e+00   3.798272700000000e+00  6.14074010e-01  -1.08459511e+00  -8.94337230e-01
C     8.635896480200000e+00   7.586868116427600e-01   3.719882400000000e+00  4.74863740e-01  -6.15265500e-02  -1.11699300e-02
C     9.897908692699998e+00   1.412504071608230e+00   3.595667400000000e+00  6.52529100e-02   6.50681020e-01   4.41564980e-01
C     2.487906308300000e+00   2.901372940889623e+00   3.214722300000000e+00 -5.23814900e-02  -1.26244612e+00   6.55806750e-01
C     3.738831394500000e+00   3.597437894496045e+00   3.238563900000000e+00 -2.76220750e-01  -1.50506970e-01   5.99830320e-01
C     4.946804397999999e+00   2.885692499774885e+00   3.504656700000000e+00  4.78071500e-02   5.39351670e-01  -1.16143000e-03
C     6.163817000200000e+00   3.575215375892160e+00   3.682578600000000e+00  4.93671600e-01   2.11885747e+00   1.65551730e-01
C     7.385117223399999e+00   2.837157618107613e+00   3.776520300000000e+00  8.13945030e-01   3.17517248e+00  -1.35011360e-01
C     8.650689980499999e+00   3.582903986318457e+00   3.661794600000000e+00 -5.12901820e-01  -8.87421110e-01   2.87844740e-01
C     9.864578244499999e+00   2.849631148446482e+00   3.507676200000000e+00  1.23576086e+00   2.82818080e-01  -8.22864570e-01
C     1.109590041820000e+01   3.577344151204824e+00   3.184324200000000e+00 -5.81888200e-01   1.92289000e-03   8.19096190e-01
C     3.731475390800000e+00   5.011151943889291e+00   3.285265200000000e+00  5.86064060e-01   1.69793750e-01   1.50451730e-01
C     4.935369263000000e+00   5.772464159694231e+00   3.535068300000000e+00  2.88191130e-01  -1.35041926e+00   2.63561070e-01
C     6.175123511499999e+00   5.085665484090391e+00   3.738521100000000e+00 -3.16540910e-01  -3.19768432e+00  -7.45839640e-01
C     7.424508712200000e+00   5.730511488865362e+00   3.815650800000000e+00  7.52078590e-01  -4.84859710e-01   6.56272700e-02
C     8.683909060000000e+00   5.001890533122683e+00   3.700050300000000e+00 -1.08261886e+00   1.28112020e-01  -7.34644810e-01
C     9.885783554900000e+00   5.731596540927057e+00   3.446840400000000e+00  3.06892100e-02  -1.26613163e+00   3.79251420e-01
C     1.111328828170000e+01   5.012118303705313e+00   3.150665700000000e+00 -1.11914049e+00  -4.92582750e-01   1.22536000e+00
C     1.235182452440000e+01   5.672618022492220e+00   3.257009100000000e+00  6.67308900e-02   2.18737270e+00  -3.17165440e-01
C     4.945968615100000e+00   7.167277792510836e+00   3.640896900000000e+00 -9.19399670e-01   4.77843150e-01   4.31016560e-01
C     6.194224747199999e+00   7.804623301260386e+00   3.822991200000000e+00 -2.03664070e-01   1.96837934e+00  -1.06215402e+00
C     7.419480161499999e+00   7.136385872736921e+00   3.836914200000000e+00  1.09910734e+00   3.09070600e-02  -3.76156040e-01
C     8.656670169100000e+00   7.850232632547105e+00   3.703259100000000e+00 -6.75988110e-01   1.03401797e+00   2.16627180e-01
C     9.858749899899999e+00   7.125575485469240e+00   3.620209200000000e+00  1.50894376e+00   8.70776080e-01  -7.35753650e-01
C     1.112199500680000e+01   7.826980138499122e+00   3.572069100000000e+00 -6.53948530e-01   1.00372854e+00  -1.99947530e-01
C     1.233902185670000e+01   7.115186925319272e+00   3.427719300000000e+00  6.59730720e-01   8.13306810e-01   8.40478200e-01
C     1.355998812170000e+01   7.908385855619048e+00   3.621897300000000e+00  1.27733200e-02  -2.67873474e+00  -6.63875560e-01
