32
Lattice="9.86 0 0 4.93 8.53901048131456 0 0 0 30 " PBC="1 1 1" Properties=species:S:1:pos:R:3:force:R:3 Energy="-256.86272853"
C     4.903862125999999e+00   8.430919928179549e+00  -1.545881999999992e-01  3.50325010e-01  -6.06596080e-01  -3.10819430e-01
C     1.207465164200000e+00   5.875587227558048e-01  -1.567508999999987e-01  3.24452500e-02   1.54136919e+00   8.55188650e-01
C     7.375124162699999e+00   8.429421075669994e+00  -2.524791000000022e-01  1.65067830e-01   1.48007638e+00   3.18882720e-01
C     3.683225825900000e+00   6.467201467951224e-01  -1.576680000000010e-01 -9.37159730e-01  -1.99831366e+00  -3.07872380e-01
C     9.820736444700000e+00   8.430811738916768e+00  -1.917368999999987e-01  1.23683863e+00  -9.02924680e-01   6.16772530e-01
C     6.154138473500000e+00   5.782451386351640e-01  -1.462614000000002e-01 -1.51595616e+00   9.66785520e-01   6.25655900e-02
C     1.230872730250000e+01   8.445400638321848e+00  -1.197507000000009e-01  4.82980000e-03  -5.71594930e-01   1.97733600e-02
C     8.616533116400001e+00   6.209607700504208e-01  -1.696455000000014e-01 -3.28447100e-01  -1.27587098e+00   2.88157520e-01
C     1.195433154100000e+00   2.038582441419524e+00   1.180167000000000e-01  5.00949010e-01  -6.90912880e-01  -1.68301263e+00
C     2.442242084700000e+00   2.771882945685453e+00   1.425600000000000e-01 -6.30013750e-01  -8.26249340e-01   4.46864850e-01
C     3.649631819900000e+00   2.038979676187053e+00  -8.528699999999390e-03  1.12221030e+00   6.94238090e-01   2.83916290e-01
C     4.911202008600000e+00   2.731130603559758e+00  -1.416509999999960e-02 -4.77702550e-01  -4.01981070e-01  -9.43424000e-02
C     6.135184842000000e+00   2.003029331994891e+00  -9.871410000000225e-02  2.94041650e-01   4.76716080e-01  -7.17710160e-01
C     7.372658719000000e+00   2.718027662758408e+00  -1.983141000000010e-01 -1.00115628e+00   1.19870132e+00   3.15978040e-01
C     8.591298664900000e+00   2.015282214302958e+00  -1.825395000000007e-01  9.87179110e-01   1.32676750e+00   4.61859850e-01
C     9.826252868199999e+00   2.753584956298176e+00  -7.121699999999009e-03  3.90173000e-03  -9.85901440e-01   8.19223500e-02
C     2.457723763700000e+00   4.191161270477782e+00   2.998653000000000e-01  6.08065790e-01  -9.63951760e-01  -6.27638870e-01
C     3.714683367100000e+00   4.888029403409953e+00   2.378556000000000e-01 -1.11332767e+00   1.68216910e-01  -1.01867049e+00
C     4.895591212899999e+00   4.141419997409895e+00  -1.406999999993275e-04  1.13431509e+00   1.45640874e+00   1.18329840e-01
C     6.124175511099999e+00   4.900963271803799e+00  -2.202062999999974e-01 -4.19417830e-01  -2.01383272e+00   7.18758260e-01
C     7.347267247000000e+00   4.181897212617924e+00  -2.188073999999993e-01  6.13283980e-01  -1.28004055e+00   7.62961300e-02
C     8.572554509100000e+00   4.887681865683417e+00  -1.301006999999998e-01  1.39256971e+00  -7.38854180e-01  -3.23753900e-02
C     9.849789920699999e+00   4.156973634219005e+00   2.196270000000000e-02 -1.32144230e+00   8.73327090e-01   6.38482100e-02
C     1.108790134530000e+01   4.854549138779340e+00   1.857237000000000e-01 -8.47498130e-01   3.59695270e-01   1.03122780e-01
C     3.702581696100000e+00   6.318277624185727e+00   7.105739999999999e-02 -1.95545650e+00  -6.42994930e-01   1.44857990e-01
C     4.912428050299999e+00   6.973830950371886e+00  -1.389275999999988e-01 -4.03122750e-01   2.39917431e+00   7.10521100e-02
C     6.125617141699999e+00   6.290996168822966e+00  -2.440521000000011e-01  1.15907855e+00   9.96087740e-01  -2.41872860e-01
C     7.373371498400000e+00   7.039128165781712e+00  -3.298871999999982e-01 -2.65112470e-01  -1.63096019e+00   7.53696130e-01
C     8.594040829499999e+00   6.303951555523222e+00  -1.756388999999992e-01 -2.59565760e-01  -3.18824750e-01  -4.47533560e-01
C     9.839430708900000e+00   6.957299255302396e+00  -1.067523000000001e-01 -3.24163500e-01   2.06838967e+00   7.28762700e-02
C     1.106560507520000e+01   6.260156763963503e+00   1.063929000000000e-01 -7.57493000e-03   1.84093491e+00  -6.78791000e-01
C     1.226476013280000e+01   7.045666144545829e+00   3.318090000000000e-02  2.20201599e+00  -1.99708459e+00   2.85919690e-01
