32
Lattice="9.86 0 0 4.93 8.53901048131456 0 0 0 30 " PBC="1 1 1" Properties=species:S:1:pos:R:3:force:R:3 Energy="-253.67834451"
C     1.696314893000000e-01   7.307249679249520e-02  -1.204926000000022e-01  1.12503891e+00  -1.61636483e+00  -1.99734430e-01
C     1.401952974000000e+00   7.830106953356688e-01  -1.469717999999993e-01 -4.66246880e-01  -3.11675270e-01   4.11725870e-01
C     2.640800496899999e+00   6.828945546222800e-02   5.261310000000000e-02 -1.80849576e+00   8.07413200e-01  -4.40480170e-01
C     3.852078473799999e+00   8.287895259804160e-01   1.818690000000000e-02  1.14404130e-01  -3.67161840e+00  -7.23422720e-01
C     5.073027828900000e+00   9.721023005694000e-02  -4.645980000000094e-02 -4.87211490e-01  -2.65512767e+00   1.55317425e+00
C     6.319398531800000e+00   7.317863669276160e-01   1.161984000000000e-01  1.49734429e+00   1.15591285e+00  -2.22022885e+00
C     7.635259704599999e+00   5.639094208908160e-02  -9.402359999999987e-02 -3.92636295e+00  -7.84034500e-01   5.30879110e-01
C     8.830151939100000e+00   7.995556258714024e-01  -1.644480000000001e-01 -2.74033240e-01  -1.65346626e+00   8.40850100e-02
C     1.363195138100000e+00   2.197446803455104e+00  -3.473168999999992e-01  1.46509108e+00  -7.77781800e-02   1.23453661e+00
C     2.637306211500000e+00   2.814118940882049e+00  -2.927730000000004e-01 -1.87079224e+00   4.78086059e+00  -1.23773071e+00
C     3.826187987200000e+00   2.173810907836568e+00  -1.854501000000006e-01  1.11580592e+00  -4.67765650e-01   2.03705540e-01
C     5.060026482200000e+00   2.811938846116400e+00  -1.848647999999997e-01  5.83458260e-01   4.22023283e+00   5.92583500e-01
C     6.245600918099999e+00   2.172041368694798e+00  -1.108199999999826e-02  4.88061447e+00  -1.03773864e+00   3.75777010e-01
C     7.620919468499999e+00   2.944555229227612e+00  -7.458090000000084e-02 -2.91006062e+00  -5.54035853e+00   2.53796210e-01
C     8.836955191200000e+00   2.175493946802176e+00  -1.837167000000015e-01 -2.61976050e-01   4.52891399e+00  -2.78503510e-01
C     1.006421139670000e+01   3.014045525733642e+00  -3.133097999999990e-01 -9.49460370e-01  -4.84654737e+00  -7.36545300e-01
C     2.698824378400000e+00   4.284869310776454e+00  -4.120568999999996e-01 -2.60408016e+00  -2.00482210e-01   1.48893819e+00
C     3.927619976400000e+00   4.995495838954421e+00  -3.434255999999998e-01 -1.70491611e+00  -6.03253540e-01   2.79743650e-01
C     5.138107723599999e+00   4.293798212474972e+00  -1.456544999999991e-01 -4.32212590e-01  -1.38860589e+00   1.37177820e-01
C     6.336679808700000e+00   4.976174192990801e+00   1.632591000000000e-01 -6.19205440e-01   9.51754000e-03  -1.67684664e+00
C     7.562675462500000e+00   4.272605156974555e+00   2.180940000000000e-02  1.76100802e+00   3.29763525e+00  -6.63422330e-01
C     8.769763974700000e+00   5.044050616516111e+00  -2.257044000000015e-01  5.99111760e-01  -9.93131280e-01   6.73737860e-01
C     1.011851243800000e+01   4.389857981649941e+00  -4.321581000000023e-01 -7.55342399e+00  -1.34105333e+00   1.52476401e+00
C     1.120950487320000e+01   5.065026610370126e+00  -2.138132999999982e-01  7.07604422e+00   4.42706440e-01  -1.32499690e+00
C     3.794411770800000e+00   6.383244721450397e+00  -3.097925999999980e-01  2.21382420e+00   3.46108655e+00   1.35383906e+00
C     5.084169135900000e+00   7.164192477244202e+00  -6.562380000000090e-02 -1.67445493e+00  -1.56942243e+00  -6.51118470e-01
C     6.308896448600000e+00   6.389905149624797e+00   1.079766000000000e-01 -1.69398149e+00   2.77303309e+00   1.95891200e-02
C     7.462741552399999e+00   7.201076306062038e+00   1.397163000000000e-01  2.63845628e+00  -2.08731817e+00  -6.93267790e-01
C     8.699767489599999e+00   6.421219921197682e+00  -5.620499999999851e-02  1.28022720e-01   2.09128009e+00   4.89578220e-01
C     9.913652943500001e+00   7.154248457979823e+00  -5.742840000000271e-02  1.68096960e+00   1.36559150e+00   1.01292800e-01
C     1.117207754570000e+01   6.454373910237853e+00  -6.333659999999952e-02  1.73289850e-01   1.49416421e+00  -1.21055134e+00
C     1.241389085800000e+01   7.149193107605349e+00  -2.208810000000021e-01  2.18443060e+00   4.17394030e-01   7.47925340e-01
