32
Lattice="9.848 0 0 4.924 8.52861817646915 0 0 0 30 " PBC="1 1 1" Properties=species:S:1:pos:R:3:force:R:3 Energy="-258.07199489"
C     1.859665589113085e-03  -1.628136388065679e-04   2.999592231103252e+00 -6.59561300e-02   9.57557000e-02  -4.03613700e-02
C     1.232483265157975e+00   7.132188368307502e-01   2.997511998079734e+00 -3.40282600e-02  -1.63966990e-01   3.13917100e-02
C     2.464040235555087e+00   1.622482951360442e-03   2.999090941273192e+00 -1.56540710e-01  -1.22770880e-01  -3.50625100e-02
C     3.690133464754886e+00   7.123115898613496e-01   2.999340095242081e+00  2.15278470e-01  -1.16247260e-01   2.24993400e-02
C     4.923255125303925e+00   1.930814495872114e-03   3.002927780240404e+00  4.79660300e-02  -1.43883080e-01  -6.66902400e-02
C     6.158258162861697e+00   7.095798364196648e-01   2.998839467135813e+00 -1.42731430e-01   2.01674500e-02   5.85496500e-02
C     7.387976421085078e+00  -2.935551482538434e-03   3.004018650841113e+00 -7.46741000e-03   2.62113680e-01  -8.57147800e-02
C     8.617471321017861e+00   7.125719091998690e-01   2.999053851292714e+00  5.96897100e-02  -1.21597240e-01   2.98753100e-02
C     1.230695638764390e+00   2.132728068683939e+00   3.000066011509903e+00 -7.50908700e-02  -1.64784200e-02  -5.00847100e-02
C     2.458901194659257e+00   2.841479924723372e+00   2.995497492606451e+00  1.92721070e-01   1.72787990e-01   4.86407900e-02
C     3.692254303693476e+00   2.128491739482157e+00   2.999012664118161e+00 -3.22080500e-02   2.96917440e-01  -1.62122300e-02
C     4.924919562660541e+00   2.841684541901137e+00   2.999544387440639e+00 -8.55507100e-02  -4.09537200e-02  -1.36854300e-02
C     6.156581334903371e+00   2.132448962927122e+00   2.999256218552631e+00 -5.20644200e-02  -5.42769400e-02  -5.38342000e-03
C     7.384032511632403e+00   2.845012949653093e+00   2.998682796317738e+00  1.20075070e-01  -8.73626300e-02   9.42338000e-03
C     8.615407802562940e+00   2.132923408603522e+00   2.998708586747621e+00  3.82682600e-02   5.81230300e-02  -5.41544000e-03
C     9.847746440449642e+00   2.842682703739633e+00   2.998332590185104e+00 -1.67055000e-03   1.08940300e-01   3.90511700e-02
C     2.460212727847743e+00   4.266837663222259e+00   2.997591516407223e+00  8.59964500e-02  -1.96811130e-01   3.38214300e-02
C     3.695746844375050e+00   4.972717931362228e+00   3.003688208311730e+00 -1.91958260e-01   1.24978460e-01  -1.00459520e-01
C     4.923410151782217e+00   4.262873386043881e+00   2.998446685849726e+00  2.23875870e-01   4.15492300e-02   6.20260900e-02
C     6.158716746302328e+00   4.978565595553753e+00   3.003011845219652e+00 -2.66732080e-01  -2.21532400e-01  -2.99516100e-02
C     7.387663669698423e+00   4.264461426572509e+00   3.000661242358867e+00 -6.65659200e-02   1.03639340e-01   3.57323000e-03
C     8.614644515008933e+00   4.977060732328200e+00   3.000840229350255e+00  2.55735220e-01  -9.89572100e-02   2.45029500e-02
C     9.852735378890053e+00   4.266784677705073e+00   3.003036991100831e+00 -4.47746830e-01  -1.00256240e-01  -4.77831200e-02
C     1.107611722068102e+01   4.976936778189033e+00   3.000166818358358e+00  3.19696430e-01  -4.72884100e-02  -1.92078500e-02
C     3.695168557604565e+00   6.396440248626435e+00   2.996339707369894e+00 -1.00743480e-01  -3.78312500e-02   4.51513500e-02
C     4.922626485904425e+00   7.106307926693227e+00   2.996436361791755e+00  4.68545200e-02   1.00561550e-01   4.75941800e-02
C     6.151044787796732e+00   6.396664205324817e+00   3.002827188974122e+00  3.06390830e-01   5.98781800e-02  -5.78500300e-02
C     7.387932223189579e+00   7.106153397197168e+00   2.996596721585047e+00 -2.95166780e-01   1.85749420e-01   7.78064200e-02
C     8.614069327897278e+00   6.398803140571547e+00   3.001829858098220e+00  8.59413900e-02  -1.80036210e-01  -5.14470800e-02
C     9.844131400410172e+00   7.105283862840014e+00   2.997663387228312e+00  3.30443730e-01   1.55868920e-01   4.98845600e-02
C     1.108301024930124e+01   6.393926484220330e+00   2.996699022011012e+00 -3.01076540e-01   3.23898710e-01   2.25841000e-02
C     1.231210504281125e+01   7.110904238298200e+00   2.997370640868089e+00 -5.63464000e-03  -3.60679420e-01   1.89337000e-02
