32
Lattice="9.86 0 0 4.93 8.53901048131456 0 0 0 30 " PBC="1 1 1" Properties=species:S:1:pos:R:3:force:R:3 Energy="-254.64461259"
C     4.993574371299999e+00   8.241380622626352e+00  -5.238884999999982e-01  1.83712618e+00  -8.09429370e-01  -4.14173380e-01
C     1.304376294100000e+00   4.500727127480584e-01  -6.391671000000017e-01 -1.34250321e+00  -1.90211257e+00   3.16656060e-01
C     7.426605391900000e+00   8.294986651837485e+00  -6.512354999999985e-01  2.63537438e+00  -1.59400369e+00   7.11206090e-01
C     3.788030822500000e+00   4.487138146202712e-01  -5.785736999999997e-01 -1.05097533e+00  -6.51334730e-01  -1.40806825e+00
C     9.959573527100000e+00   8.261013003181338e+00  -6.996687000000001e-01 -2.59831660e+00   6.72552340e-01   1.28022872e+00
C     6.234404888099999e+00   3.854047370205032e-01  -6.538800000000009e-01  2.48970218e+00   2.73166210e+00  -2.11201080e-01
C     1.242438983530000e+01   8.334880567239626e+00  -6.870989999999999e-01  4.32646150e-01  -4.56659276e+00   1.74638890e-01
C     8.770812487099999e+00   4.357232471968376e-01  -5.757648000000017e-01 -3.13957215e+00   1.53962177e+00  -8.14276110e-01
C     1.308865354900000e+00   1.833520154104839e+00  -6.342948000000028e-01 -9.55969280e-01   8.60297320e-01   1.04655337e+00
C     2.490344390500000e+00   2.488238365066054e+00  -4.736601000000000e-01  3.80691683e+00   4.74765862e+00  -3.69012850e-01
C     3.763441609400000e+00   1.875106074433592e+00  -5.488092000000009e-01 -4.58834320e-01  -3.12024112e+00   4.57167610e-01
C     5.011573702700000e+00   2.467866847763917e+00  -5.067102000000006e-01  1.96613877e+00   3.40650705e+00   4.12240400e-02
C     6.302904033600000e+00   1.805353630305826e+00  -5.695398000000012e-01 -1.84227956e+00   1.16943664e+00  -6.83616940e-01
C     7.524412401399999e+00   2.594812132454942e+00  -6.761784000000013e-01 -8.73183700e-02  -3.08721081e+00   1.06348315e+00
C     8.787974852400000e+00   1.881750449268289e+00  -6.386399999999988e-01 -1.69403324e+00  -6.70204040e-01   3.58644350e-01
C     9.980357026700000e+00   2.578124942004612e+00  -5.364429000000008e-01 -1.11934603e+00   1.50026210e+00  -1.10453609e+00
C     2.623322759500000e+00   3.989826773578245e+00  -3.836390999999999e-01 -4.26455153e+00  -1.98001760e+00  -2.27005430e-01
C     3.862947299700000e+00   4.661624713301555e+00  -4.327965000000020e-01 -3.84735294e+00   8.53477110e-01   2.93962200e-01
C     5.040515218399999e+00   3.932315769484502e+00  -4.717364999999987e-01  4.53453440e-01  -1.44535848e+00  -6.02699880e-01
C     6.245514643100000e+00   4.616529515835838e+00  -6.209075999999989e-01  9.07932680e-01   1.77324446e+00   1.75176342e+00
C     7.497424250300000e+00   3.970491721368172e+00  -5.686679999999988e-01 -2.02170550e-01   5.25521200e-01  -1.19944196e+00
C     8.705992008999999e+00   4.707459645245157e+00  -5.659956000000008e-01 -1.31911782e+00   1.72266988e+00   6.35507440e-01
C     9.901201143900000e+00   4.050970870460914e+00  -5.357036999999991e-01  2.71276939e+00  -3.46790029e+00   8.67945350e-01
C     1.112411806200000e+01   4.700664813045802e+00  -3.660071999999985e-01  3.04593793e+00   1.57306115e+00  -8.32953100e-02
C     3.651412092200000e+00   6.103075518096357e+00  -4.921998000000016e-01  5.35895648e+00  -5.30603220e-01  -4.65969540e-01
C     4.930857622800000e+00   6.819018604979381e+00  -4.716810000000002e-01  1.73290015e+00  -1.34329158e+00  -2.14378730e-01
C     6.261389292400000e+00   6.035208487482574e+00  -4.705893000000003e-01 -2.66742312e+00   2.65356464e+00  -1.28747256e+00
C     7.449746269600000e+00   6.839950793709634e+00  -5.873550000000023e-01 -3.21005200e-01  -4.40830610e-01   6.56937800e-01
C     8.694167798400001e+00   6.143786958361853e+00  -4.937313000000003e-01 -5.52894850e-01   3.92774830e-01  -7.68277870e-01
C     9.906383757099999e+00   6.890915109248570e+00  -5.151597000000017e-01  1.60547510e-01  -2.34654103e+00   1.95677660e-01
C     1.111332131270000e+01   6.162744159358186e+00  -3.535398000000001e-01  6.20555790e-01  -1.26362929e+00  -2.36506733e+00
C     1.234784202110000e+01   6.794341974763543e+00  -6.972927000000020e-01 -6.97293770e-01   3.09698998e+00   2.36689717e+00
