32
Lattice="9.968 0 0 4.984 8.63254122492328 0 0 0 30 " PBC="1 1 1" Properties=species:S:1:pos:R:3:force:R:3 Energy="-257.83054155"
C    -3.239748624174402e-03  -2.342059000901403e-03   2.997718438654879e+00  2.70744730e-01   1.10646540e-01   6.58394800e-02
C     1.248186683447258e+00   7.211467558772547e-01   2.999658981177483e+00 -1.54019960e-01  -1.47796950e-01  -2.33271400e-02
C     2.491825056006313e+00   7.258213564824809e-04   2.998726731743754e+00  1.28639300e-01   5.49608000e-03   1.62003800e-02
C     3.741592883989725e+00   7.213630848780326e-01   3.000699887564276e+00 -2.65771940e-01  -9.67982400e-02  -1.47280800e-02
C     4.981544996575677e+00  -1.200657989146517e-03   3.000721221075209e+00  2.55283030e-01   2.52658000e-02  -8.08902000e-03
C     6.230587892820825e+00   7.224356025030295e-01   2.999090529647920e+00 -3.22458000e-03  -1.89498290e-01   1.71058200e-02
C     7.480470485643417e+00   1.414795548379184e-03   2.996865612982735e+00 -2.89101520e-01  -3.77724200e-02   4.90217300e-02
C     8.723450328336405e+00   7.192624549507955e-01   3.001408646840641e+00  2.31205000e-03   1.98572100e-02  -7.95176700e-02
C     1.249938985283124e+00   2.158109667231733e+00   2.999188820029969e+00 -9.43335800e-02   1.14566790e-01   8.61793000e-03
C     2.494411831223014e+00   2.880712651341037e+00   2.999083106044111e+00 -1.02585770e-01  -1.22145640e-01   2.24259600e-02
C     3.735581200762648e+00   2.158487273136171e+00   2.999298345413375e+00  2.00793380e-01   6.94283900e-02   1.43362300e-02
C     4.983229239542644e+00   2.877621062795466e+00   3.001704476069693e+00 -2.21311000e-03   9.07613000e-02  -1.24833000e-03
C     6.227560815983425e+00   2.158806869239576e+00   3.003270710867868e+00  1.87138230e-01   3.12752300e-02  -3.68140300e-02
C     7.479525632018933e+00   2.878402326652135e+00   3.000413711586166e+00 -1.99683970e-01  -5.79820100e-02  -7.13571000e-03
C     8.724517010429999e+00   2.158590172962579e+00   2.995566822246446e+00 -1.93317900e-02   1.98695100e-02   7.50397300e-02
C     9.969839797836128e+00   2.879020842842830e+00   3.000263841167054e+00  4.53226000e-03  -1.29945460e-01  -4.71619800e-02
C     2.492871261362994e+00   4.317968032697336e+00   3.003163633796992e+00 -6.38035800e-02  -1.24526000e-02  -1.97105900e-02
C     3.735743966909962e+00   5.037123657491951e+00   3.001786457906456e+00  2.38427120e-01  -7.32572600e-02  -2.51507400e-02
C     4.988336763855576e+00   4.318438037308347e+00   3.000251092998721e+00 -3.19511560e-01  -1.43352560e-01   3.30766800e-02
C     6.231166794001503e+00   5.032615341795143e+00   3.002526045694251e+00 -1.00522710e-01   1.97084770e-01  -4.23973800e-02
C     7.471947939522074e+00   4.316564892237447e+00   3.000974463276122e+00  2.90434510e-01  -8.45296200e-02  -7.18731000e-03
C     8.719485724816368e+00   5.036309421610746e+00   2.998641769978019e+00 -1.44406700e-02  -1.40455960e-01  -3.70648000e-03
C     9.964926169578359e+00   4.314261080579626e+00   2.997735563119251e+00  1.48428820e-01   1.90364010e-01   4.86074300e-02
C     1.121463256801188e+01   5.036275670210610e+00   3.003408588318417e+00 -7.47578900e-02  -7.92024600e-02  -5.89283400e-02
C     3.737065391403030e+00   6.472522940604436e+00   2.997513540378644e+00 -7.54918400e-02   9.17137500e-02   7.35629800e-02
C     4.982809640440718e+00   7.191889691497839e+00   3.003594414322269e+00  1.33278300e-02   3.07009000e-03  -9.70048600e-02
C     6.228128648133048e+00   6.471988970456981e+00   2.997746434882885e+00  1.63545280e-01   1.12958190e-01   6.44020200e-02
C     7.478421806196852e+00   7.194290306560888e+00   2.998863661265927e+00 -2.33662540e-01  -6.09096700e-02  -1.10946600e-02
C     8.720155597393143e+00   6.471352063563866e+00   2.998620142765737e+00  1.72396080e-01   1.54127620e-01   1.20696300e-02
C     9.969575761909208e+00   7.191319748778743e+00   3.000587518902674e+00 -1.10610620e-01   4.82469200e-02  -3.14019400e-02
C     1.121748609491570e+01   6.474303616774265e+00   2.997428676888988e+00 -2.28814780e-01  -3.54943800e-02   6.11679900e-02
C     1.245714976813761e+01   7.192746934495028e+00   2.999764386718241e+00  2.75879790e-01   1.26861310e-01  -4.68697400e-02
