32
Lattice="9.86 0 0 4.93 8.53901048131456 0 0 0 30 " PBC="1 1 1" Properties=species:S:1:pos:R:3:force:R:3 Energy="-252.34527685"
C     4.903170348400000e+00   8.110668438852180e+00  -1.076978700000002e+00  5.89841444e+00   2.04666276e+00  -3.39401330e-01
C     1.328977092700000e+00   2.619938341572552e-01  -9.780584999999995e-01 -8.80239700e-01   2.47360926e+00  -1.89181722e+00
C     7.546960052199999e+00   8.193698531935716e+00  -1.057466400000003e+00 -2.63383951e+00  -3.72839463e+00  -5.71921350e-01
C     3.790427049000000e+00   3.764386906263984e-01  -1.195607400000000e+00  1.33114675e+00  -4.46563863e+00   2.41386634e+00
C     9.952212199000000e+00   8.176059327206971e+00  -9.115505999999982e-01  1.31458072e+00  -1.66722375e+00  -2.97036684e+00
C     6.209901062599999e+00   3.605438349585072e-01  -1.049168999999999e+00  1.60404847e+00  -1.36428831e+00   4.85755330e-01
C     1.240944917450000e+01   8.139347815620622e+00  -1.076597099999997e+00 -2.67219905e+00   3.67803196e+00  -6.76753000e-02
C     8.661970855800000e+00   3.057392702364000e-01  -1.151953200000001e+00  1.16058460e+00   1.32189031e+00   1.12198245e+00
C     1.356052554100000e+00   1.727463082240095e+00  -1.160761800000000e+00 -2.20606464e+00  -3.90389070e-01   6.09367860e-01
C     2.575252695900000e+00   2.450817176318711e+00  -1.104790200000000e+00 -4.31201740e-01   1.19219784e+00  -1.24992641e+00
C     3.801177111200000e+00   1.709066723452088e+00  -1.125315600000000e+00 -7.38007900e-01   4.09026557e+00   3.66930140e-01
C     4.991210880000000e+00   2.435635242635795e+00  -1.044192599999999e+00  1.19305338e+00   2.36217167e+00  -8.09401370e-01
C     6.230254814100000e+00   1.758539786200798e+00  -1.080215100000000e+00  9.08249950e-01   1.29944245e+00   6.22176760e-01
C     7.491651417500000e+00   2.519716231739106e+00  -1.023976800000000e+00 -1.27751176e+00  -4.40336612e+00  -6.13553240e-01
C     8.741640691100001e+00   1.739796828977407e+00  -1.060694999999999e+00 -4.64936116e+00  -2.13662150e-01  -6.69169120e-01
C     9.841760676200000e+00   2.476798225775473e+00  -1.222222800000001e+00  6.91275834e+00  -3.14679336e+00   1.84217655e+00
C     2.579259947800000e+00   3.929796419832484e+00  -1.223173800000001e+00  6.64991870e-01  -1.33061818e+00   1.15363913e+00
C     3.882753032400000e+00   4.700753618754794e+00  -1.121841300000000e+00 -5.64343268e+00  -9.61760300e-01   5.89614190e-01
C     5.009440442400000e+00   3.927835009125227e+00  -1.100292600000003e+00  1.11549273e+00  -1.63637329e+00  -7.46973890e-01
C     6.233679093499999e+00   4.613776880417504e+00  -1.284769500000003e+00  6.01398360e-01  -6.48274490e-01   1.67137256e+00
C     7.420150099200000e+00   3.867732671521118e+00  -1.143499500000001e+00  3.22647202e+00   2.33369927e+00   5.88175400e-02
C     8.731486271500000e+00   4.549828914053624e+00  -1.078402799999999e+00 -9.35507970e-01   7.41103030e-01   2.26159050e-01
C     9.949943067900000e+00   3.797137170888662e+00  -9.306380999999995e-01 -1.20213563e+00   3.97438633e+00  -2.92223303e+00
C     1.114622383690000e+01   4.555267239048126e+00  -1.200479399999999e+00  2.80817872e+00  -1.56629983e+00   8.40111300e-01
C     3.795673604300000e+00   6.143224152181117e+00  -9.295277999999989e-01  3.12775228e+00  -3.91840918e+00  -2.60629807e+00
C     5.057588350700000e+00   6.745389706264008e+00  -1.176252299999998e+00 -5.43991100e-01  -3.39142650e-01   1.83500344e+00
C     6.330806798299999e+00   6.014408055684028e+00  -1.205882700000000e+00 -1.76657403e+00   5.86989180e-01  -2.98559960e-01
C     7.580829595899999e+00   6.655968846957030e+00  -1.140879299999998e+00 -1.00254145e+00   4.00561637e+00   4.90187100e-02
C     8.779460988899999e+00   5.983929253237135e+00  -1.152883800000001e+00  2.91066049e+00  -1.04467612e+00   4.75302180e-01
C     1.015271584130000e+01   6.680739662458462e+00  -1.100467500000001e+00 -8.01788481e+00   2.58051024e+00   4.11287970e-01
C     1.125374072790000e+01   5.938909369843850e+00  -1.231627200000002e+00  1.62326795e+00   2.64402742e+00   1.74882258e+00
C     1.246113169560000e+01   6.804961515146995e+00  -1.016949600000000e+00 -1.80055796e+00  -4.50529359e+00  -7.64106940e-01
