32
Lattice="9.86 0 0 4.93 8.53901048131456 0 0 0 30 " PBC="1 1 1" Properties=species:S:1:pos:R:3:force:R:3 Energy="-254.89993556"
C     9.734757589799999e+00   1.502158814412256e-01   4.041440400000000e+00  3.41796794e+00   9.01241110e-01  -8.10624090e-01
C     1.191974512600000e+00   8.750841128581552e-01   3.896513100000000e+00 -4.55622450e-01  -2.31927175e+00   3.28387970e-01
C     2.483458265100000e+00   8.009856539564879e-02   4.014343500000000e+00 -3.29144455e+00   2.38400618e+00  -1.46059780e-01
C     3.652989051300000e+00   8.690450684763847e-01   4.004897400000000e+00  5.40321510e-01  -2.23094771e+00   2.60011790e-01
C     4.893423984900000e+00   1.747967039594776e-01   4.153153500000000e+00  8.84760490e-01  -1.21949567e+00  -2.91170710e-01
C     6.195417314200000e+00   8.151660471002048e-01   4.077221700000000e+00 -3.36576971e+00   1.19752677e+00  -5.19307980e-01
C     7.380909517699999e+00   1.800886703143528e-01   3.914433600000000e+00 -1.39259474e+00  -4.09381341e+00   6.50060520e-01
C     8.513348660100000e+00   8.953701546653864e-01   3.861176700000000e+00  4.79347569e+00   8.84865500e-02   4.19173310e-01
C     1.106928640480000e+01   2.267925831984613e+00   3.653483700000000e+00 -6.61586800e-02  -2.58102700e-02   4.92621990e-01
C     2.480131698300000e+00   2.958215425852887e+00   3.613905300000000e+00 -3.18107789e+00   1.99982152e+00   5.86814310e-01
C     3.607799734599999e+00   2.239831804384574e+00   3.851949000000000e+00  4.35269671e+00   1.38514794e+00   6.10683440e-01
C     4.937424185600000e+00   2.929009875258667e+00   4.070373900000000e+00 -1.32181386e+00   3.68899200e-02  -4.42164040e-01
C     6.209335394400000e+00   2.231828531422090e+00   4.038765000000001e+00 -3.48780757e+00  -2.95307160e-01   4.23010140e-01
C     7.339007870100000e+00   2.971703305246676e+00   3.948009000000000e+00  2.62009694e+00   3.10247255e+00   9.52872840e-01
C     8.612995348400000e+00   2.311237742501688e+00   3.822686700000000e+00 -1.71787734e+00  -2.65823020e-01  -2.32092600e-02
C     9.824624439899999e+00   2.994520736710703e+00   3.717365100000000e+00  8.86319020e-01   4.40123360e-01  -2.20168000e-02
C     1.226796098460000e+01   4.429594266918621e+00   3.682466400000000e+00  9.34013890e-01  -2.29182897e+00   3.72329330e-01
C     3.646424559100000e+00   5.080148429419263e+00   3.861480900000000e+00  1.40810172e+00   5.53149630e-01   8.04946770e-01
C     4.913146942900000e+00   4.329891328922360e+00   4.162619700000000e+00 -9.18208060e-01   2.08561834e+00  -1.66311222e+00
C     6.140883971299999e+00   5.155119575191986e+00   4.204327500000000e+00 -2.01500437e+00  -2.52055475e+00   3.44875010e-01
C     7.328474777199999e+00   4.449355244971438e+00   4.178488800000000e+00  2.53073411e+00  -2.56061215e+00  -2.05630989e+00
C     8.631765929000000e+00   5.093697533518193e+00   4.012842900000000e+00 -3.12377481e+00   1.01376132e+00   1.13494319e+00
C     9.823044522800000e+00   4.441307056813828e+00   3.801319200000000e+00 -1.13844154e+00  -3.37296118e+00   1.97771780e-01
C     1.100862290270000e+01   5.087394121371962e+00   3.841482900000000e+00  3.67211907e+00   2.57154981e+00  -1.15268722e+00
C     1.354160829290000e+01   6.529837927695483e+00   3.890432400000000e+00  1.11472821e+00  -5.64916230e-01   1.55328718e+00
C     4.919737021800000e+00   7.262994037294195e+00   4.177053600000000e+00 -3.00616551e+00   2.61974590e-01  -1.82221631e+00
C     6.105784047500000e+00   6.537587250486292e+00   4.175056800000000e+00  8.41663530e-01   1.39513623e+00   4.78071660e-01
C     7.337685693399999e+00   7.226252212220642e+00   4.153809900000000e+00  1.42885354e+00  -4.15369740e-01   2.07026680e-01
C     8.582165790600000e+00   6.495436218443973e+00   4.177851600000000e+00  6.61845140e-01   1.73625625e+00  -4.81272770e-01
C     9.791424587400000e+00   7.276319504708654e+00   4.168379100000000e+00  2.06313038e+00  -1.19626366e+00  -1.20020419e+00
C     1.109836295320000e+01   6.512231768937294e+00   3.906711300000000e+00 -2.14023580e+00   2.02207442e+00   1.58326387e+00
C     1.234214018030000e+01   7.246396164893485e+00   3.927069300000000e+00 -1.52883100e+00   1.97739210e-01  -7.69796510e-01
