32
Lattice="9.86 0 0 4.93 8.53901048131456 0 0 0 30 " PBC="1 1 1" Properties=species:S:1:pos:R:3:force:R:3 Energy="-254.27736248"
C     5.110960826499999e+00   7.958256921646231e+00  -1.011156000000000e+00  1.11055927e+00  -8.40903290e-01   8.79790000e-04
C     1.452936322500000e+00   1.645355458458712e-01  -1.001215200000001e+00 -3.89924655e+00  -1.75057017e+00   6.67852800e-02
C     7.507477013300000e+00   7.978181848700263e+00  -1.044177600000001e+00  4.35569867e+00  -1.51454305e+00   2.52258650e-01
C     3.852474500700000e+00   1.740447586966088e-01  -1.041662400000000e+00 -9.02010750e-01  -2.46218450e+00   1.31241904e+00
C     1.001460332100000e+01   7.915883362990803e+00  -9.073791000000000e-01 -2.82914687e+00   2.00968306e+00  -2.36226113e+00
C     6.243463023599999e+00   8.557847537118879e-02  -1.025814900000000e+00  4.88634522e+00   3.32356371e+00   8.11675000e-01
C     1.252386116350000e+01   8.014318257930785e+00  -1.069999799999998e+00 -1.33428658e+00  -1.80368964e+00   5.73063260e-01
C     8.887659058000001e+00   1.335844507293296e-01  -9.180153000000004e-01 -4.54467715e+00   2.26383000e+00  -7.07241070e-01
C     1.430405926700000e+00   1.539573769681948e+00  -1.086354000000000e+00 -2.03334521e+00   2.06028503e+00  -1.81711427e+00
C     2.592561038500000e+00   2.257247030868430e+00  -1.326234599999999e+00  2.29814417e+00  -1.01260583e+00   1.31952936e+00
C     3.810273306300000e+00   1.560353622465238e+00  -1.054452900000001e+00  1.58851101e+00   2.03186200e-01  -1.89886758e+00
C     5.081122149400000e+00   2.240664528686584e+00  -1.171189500000001e+00 -1.16419314e+00   4.20706530e-01   3.68913790e-01
C     6.273748555899999e+00   1.573519581163930e+00  -1.034834400000001e+00  2.36207030e+00  -1.63270737e+00   5.07270270e-01
C     7.596177425399999e+00   2.345393272081059e+00  -9.648728999999996e-01 -2.86152577e+00  -4.65183512e+00  -3.78202890e-01
C     8.788313099700000e+00   1.602895826577646e+00  -9.106598999999989e-01  2.78947085e+00  -4.42348590e-01  -1.77014633e+00
C     1.006270173210000e+01   2.282838445276989e+00  -1.258817099999998e+00 -1.48598254e+00  -1.00919282e+00   3.23415576e+00
C     2.686497357100000e+00   3.617575101350610e+00  -1.513441200000003e+00 -1.15704317e+00   4.18925903e+00   1.08117623e+00
C     3.945202673500000e+00   4.404284212905377e+00  -1.411562700000001e+00 -2.86154741e+00  -3.61697840e+00  -2.78727800e-01
C     5.115613809800000e+00   3.641790454220319e+00  -1.299646500000001e+00  3.99131700e-02   1.44027807e+00   7.64236910e-01
C     6.301639044900000e+00   4.369618392059721e+00  -1.079100900000000e+00  4.86611520e-01   4.95939030e-01  -7.19306430e-01
C     7.537106707700000e+00   3.699432788295244e+00  -1.089607800000000e+00  1.23287432e+00   9.78709570e-01   5.83838060e-01
C     8.764829586999999e+00   4.382756086633725e+00  -1.145094000000000e+00  1.96050819e+00   1.41627730e+00  -7.14518330e-01
C     1.006951538650000e+01   3.700827891827466e+00  -1.204565700000000e+00 -1.11390354e+00  -1.18666210e-01  -1.11588754e+00
C     1.130512454030000e+01   4.395167965316928e+00  -1.364868599999998e+00 -5.79285930e-01   6.66008620e-01  -4.22891420e-01
C     3.855769614100000e+00   5.759131092560446e+00  -1.255494000000002e+00 -2.37155005e+00   3.63479142e+00   4.28654100e-02
C     4.999656758800000e+00   6.511507319288172e+00  -1.140697800000002e+00  4.81792128e+00   5.12768360e-01   1.24226420e+00
C     6.311628013700000e+00   5.774567403365562e+00  -1.004641800000002e+00 -1.56864112e+00   1.86473685e+00  -1.06485721e+00
C     7.538528569000000e+00   6.527361358485968e+00  -1.029608400000001e+00 -9.35350150e-01  -4.05708800e-02  -6.83304490e-01
C     8.760544135200000e+00   5.822194844389124e+00  -1.249799100000001e+00 -1.32362435e+00  -3.48553310e-01   1.36406927e+00
C     9.936114171399998e+00   6.573853879626633e+00  -1.250994299999999e+00  2.42193527e+00  -2.54941414e+00   8.99657190e-01
C     1.119036774710000e+01   5.854337473028044e+00  -1.312602000000002e+00  1.81112480e+00   5.58852500e-02   9.32809000e-02
C     1.244509977930000e+01   6.587071670118941e+00  -1.196823299999998e+00  8.03672240e-01  -1.74114471e+00  -5.85011870e-01
