32
Lattice="9.86 0 0 4.93 8.53901048131456 0 0 0 30 " PBC="1 1 1" Properties=species:S:1:pos:R:3:force:R:3 Energy="-254.98323847"
C     9.774724015200000e+00   3.182200587341776e-01   3.965380200000000e+00  6.26275830e-01  -1.98406804e+00   1.23385483e+00
C     1.209064061800000e+00   9.279935295943312e-01   3.939954300000000e+00 -9.34929450e-01   2.02930142e+00  -2.13461490e-01
C     2.421083905100000e+00   1.941976773304568e-01   4.191018600000000e+00  4.85828970e-01   4.14806831e+00  -2.37772390e-01
C     3.637175386100000e+00   1.049077295931465e+00   4.195749600000000e+00  1.28541220e-01  -5.17383138e+00  -1.58322610e-01
C     4.870579893200000e+00   2.959643233795248e-01   4.221789000000000e+00 -2.32815110e-01  -2.78827515e+00   7.69955560e-01
C     6.120561180199999e+00   9.099046605737088e-01   4.242462300000000e+00 -8.29689280e-01   3.20371085e+00  -1.26516251e+00
C     7.364034522099999e+00   2.833691975314200e-01   4.136890200000000e+00 -2.50249116e+00  -3.23335605e+00   7.75403020e-01
C     8.479240898800001e+00   9.944833885978992e-01   3.902752200000000e+00  4.77098253e+00   1.61472824e+00   8.25262720e-01
C     1.108071656050000e+01   2.423606594742933e+00   3.757466400000000e+00  1.77175000e-01  -2.03913628e+00   9.90813530e-01
C     2.464222440400000e+00   3.171073232005079e+00   3.829164599999999e+00 -1.09536744e+00  -3.96718449e+00   4.91679230e-01
C     3.685218630500000e+00   2.388828229739151e+00   4.064591700000000e+00 -2.19167885e+00   2.99347015e+00  -3.89706630e-01
C     4.890609546499999e+00   3.074031562015014e+00   4.188084900000001e+00  7.06584000e-02   1.47712761e+00  -2.15434580e-01
C     6.074294362700000e+00   2.358542067368687e+00   4.131119100000000e+00  2.73992961e+00   6.77068660e-01   7.39827310e-01
C     7.327162213999999e+00   3.166624919885627e+00   4.082207700000000e+00 -1.09532537e+00  -2.29148451e+00   1.02785447e+00
C     8.549851957700000e+00   2.436861871491248e+00   3.982935300000000e+00 -6.40422940e-01  -8.07931080e-01  -9.59801690e-01
C     9.806633243000000e+00   3.083468278666776e+00   3.864359400000000e+00  1.09687965e+00   5.32502100e-02  -4.17446760e-01
C     1.225293202750000e+01   4.526112154005843e+00   3.886406700000000e+00  3.38009521e+00   1.70323897e+00   3.45654630e-01
C     3.688125309200000e+00   5.242656643396973e+00   4.059474000000001e+00 -2.23441425e+00   2.82540350e-01   4.71287640e-01
C     4.863261604000000e+00   4.530315481914623e+00   4.264249800000000e+00  7.80116030e-01  -3.29241970e-01  -1.40427631e+00
C     6.055406004400000e+00   5.307478492093377e+00   4.271363700000000e+00  2.02507142e+00  -2.45315098e+00   1.45805733e+00
C     7.315792697299999e+00   4.547616627218464e+00   4.331982600000000e+00 -2.33200580e-01   3.02423840e-01  -1.84633823e+00
C     8.575985148200001e+00   5.184300533436025e+00   4.203976800000000e+00  6.86300280e-01   1.30846011e+00   4.14571460e-01
C     9.850243677899998e+00   4.492378793104602e+00   3.916632900000000e+00 -3.04191737e+00   3.74056630e-01   1.03776965e+00
C     1.104702429960000e+01   5.177607827802010e+00   3.929901000000000e+00  2.99942700e-02   3.69896173e+00  -2.10566010e-01
C     1.356527746940000e+01   6.668421712890538e+00   4.144875000000000e+00 -1.89059482e+00  -1.36990630e-01   8.84136040e-01
C     4.901413000600000e+00   7.400510019228727e+00   4.289301300000000e+00 -7.17548470e-01   1.89977166e+00  -1.90623969e+00
C     6.118760349800000e+00   6.694352809135991e+00   4.335757500000000e+00  5.21836000e-02   7.13215910e-01   3.91743830e-01
C     7.382389651600000e+00   7.383912573778541e+00   4.423160100000000e+00 -7.53798080e-01  -2.10660737e+00  -7.98071760e-01
C     8.575783954899999e+00   6.609422017709711e+00   4.372632600000000e+00  2.03011044e+00   5.02188600e-01  -9.93254770e-01
C     9.836502831200001e+00   7.330143107906819e+00   4.216270199999999e+00 -1.60280336e+00   1.78582813e+00   3.06497800e-02
C     1.107681890250000e+01   6.672601985471021e+00   4.033848600000000e+00 -9.46679690e-01  -1.81744167e+00   1.39422630e+00
C     1.228081295230000e+01   7.368268508848447e+00   4.246666800000000e+00  1.86353379e+00   3.61288240e-01  -2.26689190e+00
