26
Lattice="8.88768389401873 1.33226762955019e-15 0 4.44384194700937 7.69696003302603 0 0 0 30 " PBC="1 1 1" Properties=species:S:1:pos:R:3:force:R:3 Energy="-209.01860872"
C     1.311250842323425e+01   7.387151077285275e+00  -2.161505999999989e-01 -1.93674323e+00   2.96327600e-02   3.37291670e-01
C     9.321999232095314e+00   7.195571740928967e+00  -1.452251999999987e-01 -2.22031710e-01   1.61428460e-01  -7.53580260e-01
C     1.069396441978034e+01   6.826972175991497e+00  -1.794831000000023e-01 -1.83246300e-02  -2.27306902e+00   4.95918570e-01
C     1.106711715985185e+01   5.392876969259508e+00  -1.438434000000015e-01 -2.07797678e+00   1.74139416e+00  -1.04181810e-01
C     6.939040892765782e+00   6.584125236145767e+00  -1.392075000000013e-01 -6.68824270e-01   1.57518205e+00  -9.40283710e-01
C     8.278659132727689e+00   6.194955006740921e+00  -2.057840999999989e-01  1.61755937e+00   6.25781520e-01   1.08406017e+00
C     8.661720262800404e+00   4.845308305461280e+00  -1.251977999999987e-01 -1.70121453e+00  -1.37665298e+00  -3.61302590e-01
C     9.995149075250930e+00   4.437714093741423e+00  -1.104240000000019e-01  1.59537862e+00  -2.16393100e-01  -1.81012340e-01
C     1.035846683767552e+01   3.050564570472411e+00  -1.428344999999993e-01 -4.73404350e-01  -1.98260740e-01  -4.96083210e-01
C     4.545909443849285e+00   6.009696029113248e+00  -2.181405000000005e-01 -2.92682240e-01  -2.79908300e-02   4.29706060e-01
C     5.907203056165155e+00   5.630055559860744e+00  -1.632500999999991e-01 -5.25882000e-03  -1.01739666e+00  -2.11585010e-01
C     6.247194247891205e+00   4.244035257597733e+00  -1.804136999999990e-01 -4.29171200e-02  -1.31758430e-01   3.19480750e-01
C     7.605245544213714e+00   3.812901202109326e+00  -1.461869999999976e-01  2.63936880e-01   4.03469477e+00   4.90109900e-02
C     7.928350625427079e+00   2.512626343063720e+00  -1.568892000000019e-01  2.12283148e+00  -4.77942821e+00  -3.40106220e-01
C     9.345445294361525e+00   2.049439067226381e+00  -2.116019999999992e-01 -1.65770804e+00   1.65573452e+00   8.11038240e-01
C     3.511664866856131e+00   5.004001533423810e+00  -1.753934999999984e-01  1.19134740e+00   4.63855710e-01  -4.96756420e-01
C     3.867974868298000e+00   3.633578735813591e+00  -2.409642000000005e-01 -4.34200400e-01  -1.19777730e-01   6.96533170e-01
C     5.231415433971883e+00   3.252591837343041e+00  -1.852008000000005e-01 -1.16599580e-01   3.30257620e-01  -4.06971790e-01
C     5.571927666177753e+00   1.884687177176237e+00  -1.760930999999992e-01 -5.06416010e-01  -1.04632411e+00  -3.84616800e-02
C     6.922004354826286e+00   1.471385977472537e+00  -1.740254999999991e-01  4.88265470e-01   9.07217450e-01   1.63077860e-01
C     7.258515662807098e+00   9.314545452944770e-02  -1.728455999999987e-01  1.68429988e+00   4.06629350e-01  -3.46842460e-01
C     2.830192637628253e+00   2.657106518574052e+00  -2.182358999999998e-01  3.33917930e-01  -2.35704140e-01   5.89900200e-02
C     3.163031510176396e+00   1.262082851255148e+00  -2.308544999999995e-01  9.00783870e-01   9.65179410e-01   5.06641900e-02
C     4.543227226397799e+00   8.830225018801061e-01  -1.903991999999981e-01 -1.81521480e-01  -1.27828200e-02   7.14373800e-02
C     7.771856068102901e-01   6.827603018835557e-01  -1.908750000000019e-01  9.05116530e-01  -1.60769320e-01  -5.90350970e-01
C     2.160491612442049e+00   2.954367271291068e-01  -2.303031000000004e-01 -7.67614230e-01  -1.30067968e+00   7.00309390e-01
