2
Lattice="2.441 0 0 1.2205 2.11396801063781 0 0 0 30 " PBC="1 1 1" Properties=species:S:1:pos:R:3:force:R:3 Energy="-16.11682915"
C     0.000000000000000e+00   0.000000000000000e+00   3.000000000000000e+00  0.00000000e+00   0.00000000e+00   0.00000000e+00
C     1.220500000000000e+00   7.046560035459382e-01   3.000000000000000e+00 -0.00000000e+00  -0.00000000e+00   0.00000000e+00
