26
Lattice="8.88768389401873 1.33226762955019e-15 0 4.44384194700937 7.69696003302603 0 0 0 30 " PBC="1 1 1" Properties=species:S:1:pos:R:3:force:R:3 Energy="-208.6440828"
C     7.197923660857939e-01   8.041044931181121e-01   3.469949400000000e+00 -1.31669643e+00  -3.21676450e-01  -7.46275350e-01
C     3.115004998741445e+00   2.102160626465471e-01   3.368619300000000e+00 -8.87135000e-03   5.16113500e-01  -3.37113040e-01
C     4.492623198298821e+00   6.638328614129833e-01   3.456843900000000e+00 -8.04071730e-01  -1.89302320e+00   4.23788110e-01
C     9.924217094155114e+00   7.350859064078222e+00   3.700102500000000e+00  4.68179710e-01  -2.77281250e-01  -8.06173170e-01
C     6.857230913697675e+00   2.698846670999140e-02   3.719880300000000e+00  2.85048270e-01  -4.93840000e-01  -2.39825390e-01
C     1.232893510468536e+01   6.686527593594495e+00   3.672679800000000e+00 -9.45537600e-01   1.65906089e+00  -1.31747070e-01
C     4.770858456916430e+00   7.107107577489765e+00   3.495316500000000e+00  1.02643871e+00   5.95004590e-01   4.30148970e-01
C     5.781744866192447e+00   6.109078638233406e+00   3.483279600000000e+00  1.15777581e+00   1.28844773e+00  -1.08850500e-01
C     7.170877237970609e+00   6.543626372464717e+00   3.459166500000000e+00  5.58428170e-01  -1.00942319e+00   7.98603700e-02
C     8.225728797540672e+00   5.562820304910685e+00   3.565148100000000e+00  8.04194400e-02  -5.82938500e-01   5.61022820e-01
C     9.598282483708509e+00   5.954735116323029e+00   3.670005300000000e+00  3.69683300e-02  -1.39270530e-01   1.48271460e-01
C     1.064315806246734e+01   4.929438926464392e+00   3.696631200000000e+00 -1.55321435e+00   9.35410930e-01  -1.06220680e+00
C     3.105434477415353e+00   5.316651818933608e+00   3.657804900000000e+00 -4.38844900e-02  -2.08654310e-01   1.21677520e-01
C     4.100386202673029e+00   4.302643451867767e+00   3.554481300000000e+00 -9.20968000e-02   1.71701676e+00  -2.29234530e-01
C     5.447811384704902e+00   4.746265825004848e+00   3.540998400000000e+00  7.98282090e-01  -4.34837650e-01   6.16357000e-02
C     6.495432235748634e+00   3.792609475473436e+00   3.596854500000000e+00  1.75901806e+00   7.96698900e-02   2.45813630e-01
C     7.920290652608650e+00   4.161155854417098e+00   3.664069500000000e+00 -1.88947688e+00   6.70599750e-01  -8.04174490e-01
C     8.935807856258837e+00   3.160880095558381e+00   3.602311200000000e+00 -8.10192670e-01   1.50484275e+00  -4.65495090e-01
C     1.027678235730709e+01   3.579484577692352e+00   3.462199800000000e+00  9.54245310e-01  -1.34922588e+00   1.55718831e+00
C     2.404974422287553e+00   2.533110416730759e+00   3.423461700000000e+00 -2.03014270e-01   2.21383952e+00  -1.20073844e+00
C     3.755316364407105e+00   2.959275314823798e+00   3.413343300000000e+00  4.41445980e-01  -2.64319200e-01   4.43287850e-01
C     4.829122065307851e+00   2.034427993958273e+00   3.428903400000000e+00 -1.15287400e+00  -9.56706910e-01   3.70941230e-01
C     6.154156194218445e+00   2.434539067197763e+00   3.598726800000000e+00  1.56183694e+00  -1.33023902e+00  -2.99579100e-01
C     7.197544463515197e+00   1.406921397224477e+00   3.643137900000000e+00 -8.85217800e-02   6.70818380e-01   1.57274840e-01
C     8.569479211388250e+00   1.816257815847124e+00   3.574372200000000e+00  3.77339250e-01  -1.92154358e+00   5.95749300e-02
C     2.079256760236830e+00   1.186442054134727e+00   3.253212000000000e+00 -5.96973720e-01  -6.67845020e-01   1.77092721e+00
