32
Lattice="9.86 0 0 4.93 8.53901048131456 0 0 0 30 " PBC="1 1 1" Properties=species:S:1:pos:R:3:force:R:3 Energy="-257.2287854"
C     5.093065863200000e+00   6.684118634295502e+00  -4.628340000000009e-01 -3.76878800e-01  -4.87365900e-02   3.55629810e-01
C     6.325926640599999e+00   7.406844769543420e+00  -3.659606999999987e-01 -2.81456830e-01  -1.89093450e-01  -1.51164700e-02
C     7.564016619699999e+00   6.696189464900135e+00  -3.803480999999991e-01 -1.20859644e+00  -8.44657900e-02   8.21561100e-02
C     8.757291271900000e+00   7.422796068070583e+00  -3.562283999999991e-01  6.51597550e-01  -1.90553900e-01  -1.41788760e-01
C     9.966533257399998e+00   6.672210130280094e+00  -3.762980999999996e-01  1.79436481e+00   2.73268363e+00  -4.55572800e-02
C     1.122703841820000e+01   7.418254424566586e+00  -4.248554999999996e-01 -2.36054220e-01   5.86138900e-02   3.00069550e-01
C     1.247197217400000e+01   6.730636772467609e+00  -3.943469999999998e-01 -1.82542201e+00  -2.54466259e+00  -1.62388580e-01
C     1.367636836390000e+01   7.392783837156318e+00  -4.205751000000006e-01  2.47582360e+00   5.23115850e-01   1.49907300e-01
C     1.400534218600000e+00   2.892646157569168e-01  -2.253479999999968e-01  1.60942690e-01  -3.60462800e-02  -6.49578010e-01
C     2.628105401800000e+00   1.034356810374888e+00  -2.557004999999997e-01 -8.86397250e-01  -5.45203540e-01   5.88560000e-03
C     3.832986605100000e+00   3.154929549571800e-01  -3.652196999999973e-01  4.89706300e-01  -5.79488050e-01   4.14962100e-02
C     5.056218500900000e+00   1.008391472697409e+00  -4.549959000000001e-01  1.48681512e+00   6.04407000e-03   3.99078570e-01
C     6.328890753800000e+00   3.115326472866608e-01  -4.263291000000002e-01 -1.03691566e+00  -4.37484130e-01  -1.10566200e-02
C     7.568518005500000e+00   1.021535742309482e+00  -3.240962999999972e-01 -1.07755452e+00  -1.95931090e-01  -5.60969730e-01
C     8.781778779100000e+00   2.677762812741016e-01  -3.377787000000012e-01  4.30502790e-01   1.22109962e+00   3.05514350e-01
C     1.003558170350000e+01   9.826345722657465e-01  -2.405958000000012e-01 -9.59246570e-01   2.06858690e-01   4.18740300e-02
C     2.603099160000000e+00   2.447864301104623e+00  -2.474916000000000e-01  5.30559800e-01   1.04724880e-01  -9.69238200e-02
C     3.868715794100000e+00   3.148315659004516e+00  -3.154818000000006e-01 -1.94947728e+00  -2.04243000e-01  -4.99159260e-01
C     5.075261513299999e+00   2.424743307818031e+00  -4.443420000000025e-01 -1.15040483e+00   4.54313700e-02   3.65419560e-01
C     6.261997457200000e+00   3.147717330540182e+00  -4.404134999999982e-01  2.81836888e+00  -4.73229390e-01   2.14622940e-01
C     7.501878554599999e+00   2.459054161998034e+00  -3.261222000000004e-01  1.70918171e+00  -1.18015472e+00   5.80580500e-02
C     8.773711228500000e+00   3.130366829755765e+00  -2.404368000000012e-01 -5.11852560e-01   6.91523110e-01  -2.04103630e-01
C     1.002228036630000e+01   2.419813737067927e+00  -2.045888999999974e-01 -1.98135940e+00  -1.01618555e+00  -1.57336470e-01
C     1.120031352910000e+01   3.133264457572049e+00  -2.430078000000009e-01  2.21122262e+00   7.68060290e-01   1.21079940e-01
C     3.828118230100000e+00   4.562283402399123e+00  -3.728048999999984e-01  1.55024973e+00   2.69015420e-01  -2.06522490e-01
C     5.118342219699999e+00   5.250055781367998e+00  -4.820810999999985e-01 -1.00623713e+00   8.48424950e-01   2.60415690e-01
C     6.376742911399999e+00   4.543882261765246e+00  -4.679544000000000e-01 -2.99730410e+00   8.79413220e-01   1.11426050e-01
C     7.570841317299999e+00   5.267085129968261e+00  -3.986112000000013e-01  3.81978290e-01   3.49410560e-01   2.18365340e-01
C     8.786111903999998e+00   4.569221263024017e+00  -2.734616999999986e-01  3.64880100e-01  -7.85918450e-01  -3.59533790e-01
C     1.001219693870000e+01   5.295090522639518e+00  -3.020426999999977e-01 -7.52972550e-01  -1.59151106e+00  -2.24965500e-02
C     1.122018670420000e+01   4.556844479673886e+00  -3.070092000000031e-01  2.95729000e-01   3.11176770e-01   2.65372390e-01
C     1.244555866370000e+01   5.260729032127369e+00  -3.484733999999996e-01  8.86207160e-01   1.08731128e+00  -1.63840030e-01
