32
Lattice="9.86 0 0 4.93 8.53901048131456 0 0 0 30 " PBC="1 1 1" Properties=species:S:1:pos:R:3:force:R:3 Energy="-256.26155268"
C     1.136202408600000e+00   9.918496162054480e-01   3.337417200000000e+00  1.21194225e+00  -1.07728951e+00   4.67377400e-02
C     2.414900354000000e+00   1.660052120176049e+00   3.426702300000000e+00 -1.47047176e+00   1.24716372e+00   4.35608330e-01
C     3.666324405500000e+00   9.621534140690472e-01   3.432462600000000e+00 -1.99371309e+00   3.15751840e-01  -4.19453470e-01
C     4.861434546000000e+00   1.704918984501533e+00   3.499592400000000e+00  4.32486810e-01  -1.26332032e+00   3.61065500e-02
C     6.094925081600000e+00   1.022280941754072e+00   3.425475000000000e+00 -4.39989900e-01  -1.81949137e+00  -9.36043530e-01
C     7.293575898800000e+00   1.747476729613014e+00   3.226932000000000e+00  6.41212590e-01  -3.87343581e+00   9.45463270e-01
C     8.523546266500000e+00   9.526091912753416e-01   3.223980000000000e+00 -5.71311750e-01   3.72483263e+00   1.66760550e-01
C     9.730013401499999e+00   1.697845695170425e+00   3.343920600000000e+00  2.11164133e+00  -2.37536047e+00  -6.08520450e-01
C     2.369183330100000e+00   3.113047837920020e+00   3.591019200000000e+00  1.16618932e+00  -5.22012520e-01  -2.46091550e-01
C     3.612494918700000e+00   3.822698357200123e+00   3.616160100000000e+00 -1.52548320e-01  -4.51400400e-01  -4.30778100e-02
C     4.863736708100000e+00   3.095998166474814e+00   3.546168000000000e+00 -1.70030741e+00   1.39814584e+00  -5.57827010e-01
C     6.041000741600000e+00   3.793496051429885e+00   3.344536500000000e+00  2.19314310e+00   2.50468612e+00   4.05074330e-01
C     7.288427105399999e+00   3.099361768092990e+00   3.292236300000000e+00  1.30158814e+00   2.75463777e+00  -5.74829000e-02
C     8.600507214700000e+00   3.798172952859886e+00   3.377495100000000e+00 -3.22632400e+00  -4.61836820e-01  -5.98149470e-01
C     9.781226931699999e+00   3.070637305349214e+00   3.403942500000000e+00  1.14636654e+00   2.75740027e+00   7.86300080e-01
C     1.102363568940000e+01   3.857859526043723e+00   3.591006600000000e+00 -6.61975400e-01  -2.33501492e+00  -4.71743680e-01
C     3.581222400400000e+00   5.238167514807427e+00   3.589803600000000e+00  2.94513351e+00  -9.91831200e-02  -2.45729210e-01
C     4.860406739600000e+00   5.967299786497650e+00   3.448575600000000e+00 -1.45790642e+00   1.22657397e+00  -2.51839270e-01
C     6.104736471800000e+00   5.301840183473433e+00   3.310088400000000e+00 -3.01599296e+00  -3.90009645e+00   8.97937310e-01
C     7.301870377300000e+00   5.927160886884837e+00   3.330966900000000e+00  2.81417353e+00   1.56924598e+00  -4.10080840e-01
C     8.563064850700000e+00   5.190687969445379e+00   3.391050600000000e+00 -2.76645690e-01   1.39636031e+00   2.88253630e-01
C     9.772431860999999e+00   5.917166231288312e+00   3.516602100000000e+00  6.51423400e-02   2.16005542e+00  -2.50077990e-01
C     1.104049683170000e+01   5.273240390282665e+00   3.626498700000000e+00 -2.19032942e+00  -1.39051746e+00  -1.58932030e-01
C     1.224683440630000e+01   5.935633976203932e+00   3.610558800000000e+00  5.09008890e-01   3.15472759e+00  -5.22725120e-01
C     4.831858342100000e+00   7.423222677034164e+00   3.373992600000000e+00  9.38700320e-01  -1.89250539e+00  -3.66841670e-01
C     6.115962328300000e+00   8.066468385855080e+00   3.295058100000000e+00 -2.69337003e+00   2.19821761e+00   1.81088850e-01
C     7.311250934799999e+00   7.372891272952004e+00   3.289417200000000e+00  1.01952380e+00  -9.65797370e-01   1.58313200e-02
C     8.543571877200000e+00   8.087510642430418e+00   3.289968300000000e+00  1.41024110e-01   1.56097680e-01   1.12515448e+00
C     9.739380007099999e+00   7.384535153032638e+00   3.453489600000000e+00  2.06359975e+00  -1.50535333e+00  -3.90917160e-01
C     1.101494656440000e+01   8.085623350334130e+00   3.425021700000000e+00 -6.85218140e-01   1.20680363e+00   3.33064410e-01
C     1.225513307530000e+01   7.404510289468291e+00   3.441201600000000e+00 -1.07650286e+00  -1.60429398e+00   1.17948960e-01
C     1.344963795970000e+01   8.133079840367882e+00   3.290840700000000e+00  9.11730830e-01  -2.23379115e+00   7.54203370e-01
