32
Lattice="9.86 0 0 4.93 8.53901048131456 0 0 0 30 " PBC="1 1 1" Properties=species:S:1:pos:R:3:force:R:3 Energy="-252.56442599"
C     9.703001882199999e+00   5.623751314877696e-01   4.332856200000000e+00 -3.23181010e-01   2.63104820e+00  -1.71958130e-01
C     9.823652096000000e-01   1.431454953736808e+00   4.272058500000000e+00  3.64211533e+00  -3.75466186e+00   3.55354960e-01
C     2.273832693100000e+00   7.054027885168264e-01   4.394494800000000e+00 -1.05004155e+00   1.44437420e-01   6.63692010e-01
C     3.466752779699999e+00   1.511230573756103e+00   4.457349300000000e+00  2.18288130e-01  -3.64802761e+00   1.43580370e-01
C     4.691129470800000e+00   8.068188227955856e-01   4.651171800000000e+00 -1.04650705e+00  -5.19650192e+00  -2.67333900e-02
C     5.905513199799999e+00   1.361621730569901e+00   4.519165500000000e+00  1.43362288e+00   5.02498926e+00  -2.89696120e-01
C     7.155350530800000e+00   8.128389959641952e-01   4.346571300000000e+00  2.14604414e+00  -5.13475439e+00   2.17941890e-01
C     8.532118057500000e+00   1.364555819960934e+00   4.280265300000000e+00 -4.13201095e+00  -7.21021940e-01   7.61855650e-01
C     1.091467159690000e+01   2.816822733160436e+00   4.171846200000000e+00 -2.93180912e+00   1.59382875e+00  -6.12186900e-02
C     2.255586911000000e+00   3.580190032617598e+00   4.193995200000000e+00  2.03117910e+00  -9.96680690e-01   9.45306780e-01
C     3.518882550399999e+00   2.865335840350984e+00   4.332999900000000e+00 -6.77695760e-01   2.49729628e+00   1.37397513e+00
C     4.773258045000000e+00   3.532272692188240e+00   4.710985200000001e+00 -2.76812772e+00   3.02762467e+00  -2.64761848e+00
C     5.923074352799999e+00   2.793543768179965e+00   4.534531500000000e+00  2.50336916e+00   2.96115440e-01   8.45436940e-01
C     7.227258130399999e+00   3.394114064324984e+00   4.479597600000000e+00 -1.96814551e+00   5.53156765e+00  -4.04940270e-01
C     8.441947963099999e+00   2.793628902114451e+00   4.341783900000000e+00  9.72724120e-01  -3.03566224e+00  -5.21164780e-01
C     9.596066977700000e+00   3.486502144383659e+00   4.203222000000000e+00  4.00407419e+00   3.99980102e+00  -9.26743820e-01
C     1.216072835740000e+01   4.978450778574874e+00   4.380726000000000e+00 -5.95426270e-01   4.29822680e-01  -1.96567451e+00
C     3.545664035900000e+00   5.765754973769991e+00   4.384934400000001e+00 -1.31651149e+00  -3.18384791e+00   1.81435802e+00
C     4.761842482100000e+00   5.039161349895473e+00   4.643579700000000e+00  1.26098790e+00  -2.15650179e+00  -6.36357500e-02
C     6.087900571100000e+00   5.682341308335692e+00   4.697865600000000e+00 -1.27076323e+00  -5.87423136e+00  -9.01500650e-01
C     7.312795996800000e+00   4.941407697211586e+00   4.457522700000000e+00 -2.29982944e+00  -1.87760474e+00   1.62546354e+00
C     8.502334349900000e+00   5.716144176782239e+00   4.438623600000000e+00 -2.05945444e+00  -1.73996286e+00  -3.99550620e-01
C     9.628427349799999e+00   5.006333551055637e+00   4.117491000000000e+00  3.05776024e+00  -3.74307936e+00   1.65888039e+00
C     1.090320855810000e+01   5.610952448239538e+00   4.254907200000000e+00 -4.76705740e-01   3.69643719e+00   1.05308055e+00
C     1.332317493080000e+01   7.149156560640494e+00   4.414896300000000e+00 -3.20843360e-01   2.07715390e-01  -5.89401820e-01
C     4.775121338500000e+00   7.678700819244655e+00   4.480372500000000e+00  1.73578300e-02   2.66640432e+00  -1.84071100e-01
C     6.058624998600000e+00   6.987721785670225e+00   4.628490300000000e+00 -1.62927159e+00   6.14435807e+00  -5.76478490e-01
C     7.237354178800000e+00   7.782171168664693e+00   4.608624000000000e+00  1.59074610e-01   1.54061249e+00  -2.43024270e-01
C     8.470070260700000e+00   7.077535354069180e+00   4.680954000000000e+00  1.83989810e-01   2.67383500e+00  -2.78147910e-01
C     9.689506401599999e+00   7.840477069244018e+00   4.720988999999999e+00 -3.36510443e+00   1.39586142e+00  -8.38765590e-01
C     1.084089858390000e+01   7.141726169891112e+00   4.494478500000000e+00  1.49487811e+00  -2.39024488e+00  -8.96166780e-01
C     1.199086801750000e+01   7.894529603313153e+00   4.342884900000000e+00  5.10596310e+00  -4.89716300e-02   5.27564980e-01
