32
Lattice="9.86 0 0 4.93 8.53901048131456 0 0 0 30 " PBC="1 1 1" Properties=species:S:1:pos:R:3:force:R:3 Energy="-256.8442803"
C     9.775155636699999e+00   9.775063841318776e-01   3.619847400000000e+00  5.87151140e-01   1.63592492e+00   2.19187310e-01
C     1.160340970400000e+00   1.717555866110885e+00   3.669221400000000e+00  8.87078180e-01  -1.65443120e+00  -1.50643060e-01
C     2.420770307800000e+00   9.451989525906929e-01   3.748731000000000e+00 -6.96392540e-01   2.71922754e+00  -3.77806510e-01
C     3.657568577600000e+00   1.687360046471299e+00   3.629196000000000e+00 -4.65209710e-01  -7.98088390e-01   5.63704280e-01
C     4.913178938599999e+00   1.005131363886250e+00   3.681695100000000e+00 -1.67936271e+00  -1.02060699e+00  -5.07661400e-01
C     6.145732626300000e+00   1.677839476736623e+00   3.645448800000000e+00 -9.05588340e-01   3.18772190e-01   5.92839440e-01
C     7.343251712700000e+00   9.788690394242759e-01   3.688711800000000e+00  7.50163840e-01  -1.28061272e+00  -1.03264090e+00
C     8.525592364400000e+00   1.700432588395341e+00   3.599051400000000e+00  2.49439901e+00   7.41571140e-01   2.77226870e-01
C     1.106265141360000e+01   3.127373650412211e+00   3.549074400000000e+00 -1.09218500e-02  -4.99633230e-01  -1.89084370e-01
C     2.452507774400000e+00   3.824579074258343e+00   3.469844100000000e+00 -1.97111530e+00   3.47777460e-01   1.53399150e-01
C     3.637886933000000e+00   3.091408021391290e+00   3.551748300000000e+00  1.45568407e+00   6.99644770e-01   5.00378460e-01
C     4.893294671000000e+00   3.793295043123186e+00   3.704045400000000e+00 -9.66871600e-02   1.88887080e-01  -1.32446123e+00
C     6.141995784899999e+00   3.086539163005698e+00   3.680230800000000e+00 -5.46485950e-01   1.05143280e+00   6.45431520e-01
C     7.340812200799999e+00   3.843129220625094e+00   3.727537200000000e+00  9.19505450e-01  -1.74629540e-01  -1.45428089e+00
C     8.600935828899999e+00   3.152724179335130e+00   3.580177200000000e+00 -1.89579800e+00  -1.61888413e+00   6.50179190e-01
C     9.823807243099999e+00   3.814196064465186e+00   3.523689300000000e+00  4.36722740e-01   1.61935093e+00  -3.56277620e-01
C     1.225757761580000e+01   5.261099369011887e+00   3.410806500000000e+00 -3.16384690e-01  -1.34828005e+00   3.41894500e-01
C     3.618533774299999e+00   5.903170878501697e+00   3.480576000000000e+00  2.46909833e+00   2.14410746e+00   5.09594080e-01
C     4.880595878399999e+00   5.217107240919974e+00   3.638445300000000e+00  3.04072860e-01   4.07261710e-01   6.95159570e-01
C     6.128059414399999e+00   5.982533210413760e+00   3.824451900000000e+00 -1.95191243e+00  -5.11797260e-01  -1.40430680e+00
C     7.337888414999999e+00   5.268104773209679e+00   3.653957400000000e+00  3.41457500e-02  -3.33097310e-01   1.49906997e+00
C     8.574244168000000e+00   5.959262015932826e+00   3.621884100000000e+00  1.24499520e-01   4.96018620e-01  -1.32669550e-01
C     9.812499055600000e+00   5.258677022518921e+00   3.470067000000000e+00 -7.91857090e-01  -3.40895120e-01   6.06204030e-01
C     1.101737833620000e+01   5.977068756047188e+00   3.460257600000000e+00  1.09412508e+00   5.31577070e-01  -1.68276970e-01
C     1.354500314020000e+01   7.352511728980017e+00   3.530082300000000e+00 -5.62674400e-01  -5.38139000e-03   1.27119610e-01
C     4.897289006300000e+00   8.115279760681695e+00   3.641186400000000e+00 -1.43949963e+00  -1.02213548e+00   2.89252250e-01
C     6.083876458599999e+00   7.415305391907212e+00   3.828891600000000e+00  1.28151682e+00  -1.17673859e+00  -1.41038490e-01
C     7.323339146900000e+00   8.100781716348120e+00   3.870720300000000e+00  1.94775840e-01  -5.61638020e-01  -6.65874840e-01
C     8.541239839299999e+00   7.387120253065353e+00   3.738645900000000e+00  1.35353396e+00  -1.29536310e-01  -2.77909810e-01
C     9.774716570900001e+00   8.117374038392018e+00   3.633431400000000e+00  1.76693217e+00  -3.63656970e-01   4.60148910e-01
C     1.106385206580000e+01   7.414060916519857e+00   3.548869800000000e+00 -1.35282008e+00  -9.15084860e-01  -7.45397900e-02
C     1.233097964630000e+01   8.072192255360033e+00   3.574976100000000e+00 -1.47069486e+00   8.53573880e-01   1.26683100e-01
