32
Lattice="9.736 0 0 4.868 8.43162333124529 0 0 0 30 " PBC="1 1 1" Properties=species:S:1:pos:R:3:force:R:3 Energy="-257.70973061"
C     2.101515966891016e-03  -2.139358208585773e-03   2.995907652536201e+00  1.13452400e-02   2.50934810e-01   6.56924100e-02
C     1.218742113161637e+00   7.061646999077725e-01   3.001808072297574e+00 -3.68885200e-02  -1.81020010e-01  -4.99034600e-02
C     2.436414153727559e+00   1.240428073921282e-03   3.001228034300830e+00 -5.57884400e-02   6.23027400e-02   1.22981100e-02
C     3.653445755752656e+00   7.020157873672331e-01   3.000368631609454e+00 -3.96212300e-02   1.56392500e-01  -1.20488800e-02
C     4.869992664999356e+00  -3.594726968198897e-04   2.998130208948052e+00 -1.82309930e-01   1.18982700e-02   1.25966500e-02
C     6.083506223279817e+00   6.994876436305005e-01   3.001016145514455e+00  1.35012350e-01   2.26069630e-01  -2.27662900e-02
C     7.299402323945246e+00   3.471080084571689e-03   3.001805539038459e+00  2.23205430e-01  -2.11416810e-01  -1.90428200e-02
C     8.521132601453871e+00   7.045211538160859e-01   3.002600791245929e+00 -1.08205350e-01  -9.49723700e-02  -6.85786700e-02
C     1.216721626038795e+00   2.109737765281836e+00   2.999617618955300e+00  6.22983200e-02  -5.36326000e-02   1.05069200e-02
C     2.433847823514856e+00   2.812395600246134e+00   2.996695522268840e+00  2.09424300e-02   2.34543800e-02   5.72198300e-02
C     3.650350644168944e+00   2.109960628341278e+00   2.999414403436273e+00  8.35632700e-02  -1.32153910e-01  -1.61767900e-02
C     4.869487501462765e+00   2.810084109091513e+00   2.998705823085906e+00 -5.92680400e-02   3.56083100e-02   2.52796900e-02
C     6.087832798191793e+00   2.106065388592526e+00   2.998972896365510e+00 -2.66621160e-01  -7.10118000e-03   2.63250600e-02
C     7.298223971695399e+00   2.810232547371592e+00   3.001992289360133e+00  3.15226470e-01  -1.14581940e-01  -1.80745000e-02
C     8.521088692621424e+00   2.109750533290999e+00   2.997363089494511e+00 -1.91851600e-01  -9.14281000e-02   8.48530700e-02
C     9.735881660901493e+00   2.808444455053444e+00   3.002102228258404e+00  4.89902100e-02   1.50819710e-01  -3.55211700e-02
C     2.433909456848175e+00   4.218100740420565e+00   3.002080004285238e+00  3.76602000e-03  -9.96080100e-02  -4.61976000e-02
C     3.651569038859565e+00   4.920763180319391e+00   3.002996372554063e+00 -9.45483400e-02  -7.90830800e-02   8.15005000e-03
C     4.865819932057924e+00   4.216343988371681e+00   3.002844487663277e+00  1.90145430e-01  -6.93635800e-02  -4.46927800e-02
C     6.087084130636812e+00   4.915824822533231e+00   2.997946131337820e+00 -2.61547260e-01   6.26595600e-02   5.47908700e-02
C     7.299692948623204e+00   4.212150217886898e+00   3.003672949352515e+00  1.80441640e-01   2.17625360e-01  -6.61238100e-02
C     8.517630773629900e+00   4.919420692114080e+00   2.996727200321519e+00  1.34560850e-01  -1.61406710e-01   5.65867200e-02
C     9.738850038163704e+00   4.213531102115788e+00   3.001478625397363e+00 -3.31114810e-01   9.64608400e-02  -4.98889400e-02
C     1.095100171456778e+01   4.915257879436205e+00   2.997218048161667e+00  1.97843800e-01   3.12809810e-01   5.94304200e-02
C     3.648380211777608e+00   6.323038446549488e+00   3.002154346631186e+00  1.62906450e-01   1.71278980e-01  -4.48052600e-02
C     4.869568973689744e+00   7.027332199073212e+00   2.997045065425535e+00 -2.19633560e-01  -1.82252600e-01   1.55984800e-02
C     6.080801353904703e+00   6.320455634176598e+00   2.997718625850260e+00  4.53553870e-01   2.13816680e-01   1.45584500e-02
C     7.304538055648607e+00   7.030339450632068e+00   3.002005093759597e+00 -2.28115080e-01  -3.08075670e-01  -5.01915900e-02
C     8.522716385070975e+00   6.325372700337020e+00   2.997060678538070e+00 -2.71393920e-01  -6.03231200e-02   6.52982000e-03
C     9.734337732926479e+00   7.028687587918557e+00   2.996131018871366e+00  3.42870510e-01  -1.29506730e-01   2.47949100e-02
C     1.095740602873251e+01   6.326426147122381e+00   2.999525160769870e+00 -4.71890840e-01  -2.58779420e-01  -5.17602500e-02
C     1.216705697907322e+01   7.025193859233055e+00   2.997360364208053e+00  2.52125780e-01   2.42574210e-01   6.05613400e-02
