32
Lattice="9.86 0 0 4.93 8.53901048131456 0 0 0 30 " PBC="1 1 1" Properties=species:S:1:pos:R:3:force:R:3 Energy="-251.67427208"
C     5.179487234900000e+00   8.531119836585745e+00  -1.493769000000000e-01 -4.59688470e+00   9.93526810e-01   5.56743450e-01
C     1.403109798500000e+00   7.664818181396376e-01  -1.326608999999976e-01 -6.76815400e-02   8.45667870e-01   3.11303980e-01
C     2.582496591400000e+00   4.647971262494560e-02   1.140441000000000e-01 -7.95253200e-01  -6.97846570e-01  -3.46878180e-01
C     3.783947254200000e+00   6.756198300339488e-01  -2.178059999999959e-02  1.41231963e+00   3.20096764e+00   4.01035660e-01
C     4.992029112099999e+00   5.154240654843280e-02   6.474779999999999e-02  3.56927819e+00  -2.93007855e+00  -4.67938980e-01
C     6.342691549299999e+00   7.445297299976535e-01   3.900390000000000e-02 -4.01004893e+00  -2.27004458e+00  -5.88779870e-01
C     7.482444346699999e+00   2.791445220964400e-02  -1.506317999999993e-01  5.58484102e+00  -1.57413886e+00   1.32457727e+00
C     8.824702415699999e+00   6.984325650422120e-01  -3.998610000000014e-02 -7.28476460e-01   2.04072073e+00  -1.78601311e+00
C     1.375091819700000e+00   2.198951377101679e+00  -3.597342000000019e-01  1.83632652e+00  -1.62256030e-01  -3.88423700e-01
C     2.684772991000000e+00   2.939275815218143e+00  -4.266816000000020e-01 -2.62148226e+00  -5.57337584e+00   8.30327280e-01
C     3.854520845100000e+00   2.095923946155239e+00  -1.804160999999986e-01 -7.05989890e-01   2.77261143e+00  -1.33600036e+00
C     5.068644368700000e+00   2.833245982796829e+00  -1.957521000000000e-01  2.19476777e+00  -2.26702197e+00   2.99503530e-01
C     6.385381996900000e+00   2.102212244252921e+00  -4.747259999999898e-02 -5.04639289e+00   1.69980622e+00   8.55410420e-01
C     7.511593366100000e+00   2.797251662700695e+00   4.083930000000000e-02  4.36722576e+00   6.11488433e+00  -1.34048906e+00
C     8.797694593899999e+00   2.241861783345985e+00  -9.702509999999975e-02  2.04888440e-01  -4.37549141e+00  -8.11574210e-01
C     1.001054479710000e+01   2.896007197484201e+00  -5.145261000000012e-01 -2.99007550e-01   1.60361001e+00   2.49508630e+00
C     2.643929863699999e+00   4.287591803487793e+00  -5.579484000000008e-01  2.74895315e+00   2.85404699e+00   1.62819990e-01
C     3.900694584200000e+00   4.971621619553389e+00  -5.503841999999999e-01  1.26839413e+00   1.22223675e+00   1.11525925e+00
C     5.120038780600000e+00   4.214587277218718e+00  -3.199620000000003e-01 -4.19889830e-01   3.47811054e+00   2.03809683e+00
C     6.278446402199999e+00   5.040057689825558e+00   2.435871000000000e-01  9.85616210e-01  -1.07738316e+00  -3.83118614e+00
C     7.566237288900000e+00   4.408038815813433e+00  -3.301589999999877e-02 -2.99474622e+00  -4.96948760e+00   1.54600523e+00
C     8.771992531900001e+00   5.019616408807801e+00  -2.391134999999984e-01  4.84808980e-01   1.74938792e+00   5.42535400e-02
C     1.003343202630000e+01   4.359904413737673e+00  -4.442906999999998e-01  1.72330418e+00  -3.95760170e-01   1.28443960e-01
C     1.139807609140000e+01   5.091251277795883e+00  -3.772962000000000e-01 -7.38064762e+00  -9.49031330e-01  -7.96689960e-01
C     3.926499190200000e+00   6.451660981218253e+00  -4.199141999999974e-01 -3.92919689e+00  -3.12092469e+00   4.60767270e-01
C     5.090116293500000e+00   7.086294158678935e+00  -1.166301000000018e-01  1.57648490e-01   4.18330574e+00  -1.36318580e-01
C     6.245470371700000e+00   6.486450873886183e+00   2.046489000000000e-01  2.19640528e+00  -3.71200075e+00   3.34603140e-01
C     7.483032249200000e+00   7.185771325238105e+00   2.764860000000000e-01  4.80437280e-01  -9.64627820e-01  -1.99003269e+00
C     8.668725300900000e+00   6.464472314811712e+00  -1.402631999999997e-01  1.21204386e+00  -8.36226440e-01   2.29529543e+00
C     9.913342846499999e+00   7.099076374246657e+00  -4.009020000000163e-02  1.59664388e+00   3.86106800e+00  -4.30063400e-01
C     1.121650394490000e+01   6.522321378330357e+00  -2.087538000000002e-01  1.38730539e+00  -3.80705621e+00  -6.37549450e-01
C     1.248490267660000e+01   7.115193500357343e+00  -2.540268000000019e-01  1.84489800e-01   3.06280099e+00  -3.21594830e-01
