32
Lattice="9.86 0 0 4.93 8.53901048131456 0 0 0 30 " PBC="1 1 1" Properties=species:S:1:pos:R:3:force:R:3 Energy="-253.1831901"
C     9.655819465100000e+00   6.175039224378025e-01   4.478568000000000e+00  1.38932690e+00  -8.79866480e-01   1.96253210e-01
C     1.032864777200000e+00   1.275394631962651e+00   4.647488700000000e+00  2.09902069e+00  -9.58279300e-02  -8.41134830e-01
C     2.312854382600000e+00   5.634221849528271e-01   4.279109400000000e+00 -2.41977478e+00   3.66716027e+00   2.60064187e+00
C     3.448150459999999e+00   1.421245371246501e+00   4.511036099999999e+00  2.62802980e-01  -2.22958211e+00  -1.41233099e+00
C     4.654636033200000e+00   7.565769929333616e-01   4.294451700000000e+00  4.33765954e+00  -3.99708787e+00   1.88870133e+00
C     5.991226870000000e+00   1.321717226794765e+00   4.476594000000000e+00 -1.88864077e+00   8.64784720e-01  -4.04561090e-01
C     7.231390308500000e+00   6.093647084284759e-01   4.467566100000000e+00 -7.59556450e-01  -1.81791970e-01   1.09206461e+00
C     8.455490377299999e+00   1.322687002214978e+00   4.679085900000000e+00 -3.32603790e-01  -1.85714060e-01  -8.14069690e-01
C     1.097142457370000e+01   2.671768854334580e+00   5.005865400000000e+00 -2.04041252e+00   3.01671478e+00  -1.28691547e+00
C     2.259862256300000e+00   3.564092717011226e+00   4.999033200000000e+00  8.35980070e-01  -2.66111111e+00  -9.46685230e-01
C     3.461488229900000e+00   2.790651007599655e+00   4.722600300000000e+00  1.73078036e+00   3.63291412e+00  -5.73542340e-01
C     4.770880601800000e+00   3.502926674871624e+00   4.448494800000000e+00 -1.58029298e+00  -6.24344480e-01   1.60263583e+00
C     5.969538025199999e+00   2.739813752536661e+00   4.546789200000000e+00  2.14824670e+00   1.50776448e+00  -1.11374959e+00
C     7.291153839099999e+00   3.443943374590919e+00   4.516901400000000e+00 -2.61627612e+00   1.37416062e+00   3.78709560e-01
C     8.504919000999999e+00   2.761812463675866e+00   4.780323300000000e+00 -4.85079310e-01  -1.44784780e-01  -1.07570734e+00
C     9.735934923100000e+00   3.473589623516012e+00   4.839380100000000e+00  7.28507300e-02   1.98814160e-01   7.07966590e-01
C     1.206798790890000e+01   4.993842259574969e+00   4.902761700000000e+00  5.67000530e+00  -2.98901226e+00  -5.07876300e-01
C     3.603293862500000e+00   5.616697323710273e+00   4.507378200000000e+00 -6.45178826e+00   1.71131702e+00   1.06803154e+00
C     4.763165102499999e+00   4.980019821750573e+00   4.331271600000000e+00  3.58932230e-01  -5.67685239e+00   2.17393520e-01
C     5.927072089799999e+00   5.612472648275292e+00   4.067686800000000e+00  4.74358414e+00   6.54592030e-01   7.34301090e-01
C     7.239926406300000e+00   4.886959294616600e+00   4.294923300000001e+00 -1.08973909e+00  -1.04685418e+00  -7.94340650e-01
C     8.470905205499999e+00   5.572053327558318e+00   4.274705699999999e+00  9.42684060e-01   1.82739708e+00   1.47419715e+00
C     9.714152063200000e+00   4.984155862256771e+00   4.702021200000000e+00 -2.95818508e+00  -5.23619189e+00  -8.45275300e-02
C     1.088462797970000e+01   5.629130293749363e+00   4.869764699999999e+00  2.74888650e-01   4.81577269e+00  -1.77703685e+00
C     1.340099433990000e+01   7.005010293238558e+00   4.351471200000000e+00  2.18470230e-01   7.72848860e-01   4.74444320e-01
C     4.802652085400000e+00   7.720396551248181e+00   4.180471200000000e+00 -3.95569183e+00   2.11493964e+00   9.05495760e-01
C     5.963963378400000e+00   7.037078632486303e+00   4.032212100000000e+00  3.16526429e+00  -6.99187780e-01   1.26472400e-02
C     7.267909332800000e+00   7.739801623344190e+00   4.102236599999999e+00 -6.54936110e-01  -1.59650646e+00  -1.74830370e-01
C     8.505365658999999e+00   7.023787833454392e+00   4.226697300000001e+00 -7.72683460e-01  -3.74584170e-01  -1.86341430e-01
C     9.707597480299999e+00   7.766205183039503e+00   4.411207800000001e+00 -2.08875046e+00   2.17529392e+00  -1.34458456e+00
C     1.092227868550000e+01   7.081786585826753e+00   4.547162999999999e+00 -1.41763158e+00  -2.16573405e+00   1.17743170e+00
C     1.212818123690000e+01   7.698297165175417e+00   4.523420700000000e+00  3.26154573e+00   2.45055956e+00  -1.19268105e+00
