32
Lattice="9.86 0 0 4.93 8.53901048131456 0 0 0 30 " PBC="1 1 1" Properties=species:S:1:pos:R:3:force:R:3 Energy="-250.39196375"
C     7.552156074999999e-01   1.169076864107953e+00   4.054324500000000e+00  1.84105861e+00  -2.20715492e+00   7.92161160e-01
C     1.981765639800000e+00   1.850200684126995e+00   3.658482300000000e+00 -8.56389600e-01   1.69166291e+00   1.22828713e+00
C     3.249423639000000e+00   1.173856575224133e+00   3.739247100000000e+00 -2.85879358e+00  -1.36767483e+00   6.86518400e-01
C     4.506006886200000e+00   1.768673798448357e+00   3.679844100000000e+00 -2.44877581e+00   3.63824292e+00  -2.66671100e-02
C     5.650568060499999e+00   1.086884277172294e+00   3.909080700000000e+00  3.33471788e+00  -6.24317020e-01  -8.87760080e-01
C     6.932869194999999e+00   1.875466933016477e+00   3.869481000000000e+00 -4.81365604e+00  -7.33559880e-01   5.12997490e-01
C     8.060619019999999e+00   1.074952120097856e+00   3.899032200000000e+00  3.95884543e+00   2.37766196e+00   2.38258554e+00
C     9.379840431500000e+00   1.785960427434383e+00   3.990671100000000e+00 -1.27922982e+00   4.62337090e-01  -1.12563951e+00
C     1.177520921010000e+01   3.345801623880716e+00   3.509638500000000e+00  3.93107329e+00  -2.51582171e+00  -6.80292980e-01
C     3.212603194500000e+00   4.012248336516420e+00   3.331975800000000e+00 -1.22605112e+00  -8.94663100e-01   1.13283872e+00
C     4.421004960099999e+00   3.240218125537193e+00   3.554692500000000e+00 -1.28244280e+00   1.15538150e+00  -3.44160910e-01
C     5.479085799900000e+00   4.095359720979727e+00   3.747665400000000e+00  6.45565184e+00  -1.66228461e+00   4.40213220e-01
C     6.779391590199999e+00   3.301849543747955e+00   3.918697800000000e+00  2.92812267e+00   5.45935530e-01  -2.59859568e+00
C     8.188266333500000e+00   3.953772680408751e+00   3.651484500000000e+00 -3.35186646e+00  -3.32995528e+00   3.17388884e+00
C     9.428854540800000e+00   3.154253430721994e+00   3.796971900000000e+00 -1.68630712e+00   5.12708770e+00  -1.05142130e+00
C     1.063495803900000e+01   4.061609538227842e+00   3.668475000000000e+00 -2.19023556e+00  -2.82305143e+00   4.91024250e-01
C     3.191740864200000e+00   5.446640453688033e+00   3.424100100000000e+00  5.06488759e+00  -2.13464270e-01   1.45868231e+00
C     4.471918844899999e+00   6.299854196734499e+00   3.771495300000000e+00 -6.83661820e-01  -4.74399121e+00  -6.95743330e-01
C     5.708806939299999e+00   5.570431940248375e+00   3.786654299999999e+00 -5.85371058e+00  -4.68530651e+00  -1.04764100e+00
C     6.912046304700000e+00   6.073430379242627e+00   3.845909700000000e+00  2.96955481e+00   4.55542662e+00   2.85549870e+00
C     8.105014458799999e+00   5.301286684814120e+00   3.898455000000000e+00  2.93082880e+00   2.49726790e+00  -2.18178826e+00
C     9.355183036500000e+00   6.039495668474268e+00   3.776459100000000e+00 -5.35143380e-01   3.84063460e+00   1.20211883e+00
C     1.067667436790000e+01   5.469900120504819e+00   3.742857300000000e+00 -4.16675288e+00  -2.22927461e+00  -7.02319380e-01
C     1.190023558770000e+01   6.084716218613833e+00   3.670645800000000e+00 -1.97412394e+00   3.16520982e+00  -1.26227800e-01
C     4.529871192100000e+00   7.550466400141464e+00   4.248747900000001e+00 -5.52169651e+00   2.40864492e+00  -8.98937300e-02
C     5.692155469900000e+00   8.254413714321975e+00   4.435844700000001e+00  1.02134693e+00   2.99986070e+00  -1.95217213e+00
C     6.885786511799999e+00   7.623551705449680e+00   4.216215300000000e+00  3.68073740e-01  -4.52054698e+00  -1.20693471e+00
C     8.044766506400000e+00   8.302341216173804e+00   4.011017700000000e+00  3.54974618e+00   8.35099790e-01  -1.36310225e+00
C     9.250531658700000e+00   7.561945733490148e+00   3.809402100000000e+00  2.28483550e+00  -3.22612805e+00   4.69711250e-01
C     1.055790928750000e+01   8.173800673544907e+00   3.826493400000000e+00  2.31977170e-01   1.40648889e+00   1.94233250e-01
C     1.184584038340000e+01   7.496653129145981e+00   3.811246500000000e+00  2.66757640e-01   1.31810110e+00   1.84894567e+00
C     1.304528571940000e+01   8.264506568539021e+00   4.209051600000000e+00 -4.08641060e-01  -2.24784950e+00  -2.78934463e+00
