26
Lattice="8.88768389401873 1.33226762955019e-15 0 4.44384194700937 7.69696003302603 0 0 0 30 " PBC="1 1 1" Properties=species:S:1:pos:R:3:force:R:3 Energy="-205.86403461"
C     1.322920562370199e+01   7.602660031466052e+00  -4.975110000000171e-02  1.91536291e+00   4.40568644e+00  -1.20764772e+00
C     9.513087902072320e+00   7.419227542453497e+00  -4.858319999999949e-02  7.08441110e-01  -4.75062811e+00   1.72472970e-01
C     1.088669971090340e+01   6.976364782301777e+00   1.935894000000000e-01 -4.71978610e-01   3.42535092e+00  -4.05178880e-01
C     1.121551668434680e+01   5.654588388442765e+00   1.844055000000000e-01  8.05731640e-01  -3.98465495e+00  -6.96363840e-01
C     7.120607653735448e+00   6.815556044875002e+00  -3.879651000000024e-01  8.39464460e-01  -5.15270450e-01   3.44605030e-01
C     8.513356201340041e+00   6.393724381339653e+00  -2.390381999999995e-01 -1.24057087e+00   4.19529810e-01   3.99116940e-01
C     8.788972032230058e+00   4.996701582592157e+00  -8.965710000000016e-02  2.44615919e+00   1.66910001e+00   7.43171780e-01
C     1.022643322879601e+01   4.613243190255973e+00   4.102410000000000e-02 -2.12190530e+00   9.80995920e-01  -7.18698710e-01
C     1.050917627117536e+01   3.253584514278110e+00  -2.381336999999988e-01  8.14203160e-01   6.82213470e-01  -2.16378220e-01
C     4.721481639847162e+00   6.330931118992507e+00  -3.434910000000002e-02  6.67912020e-01  -7.28706862e+00   2.46279450e-01
C     6.088828386981158e+00   5.876112901734988e+00  -1.810820999999976e-01 -6.10976120e-01  -6.88068060e-01   2.93651790e-01
C     6.397095835353815e+00   4.431583003259927e+00  -4.029810000000111e-02  1.82111264e+00   3.80790697e+00  -5.06519070e-01
C     7.770447901671965e+00   4.063771530059929e+00   1.103490000000000e-02  3.41815780e-01  -2.31705460e+00  -8.44144280e-01
C     8.159718145410814e+00   2.632387577498506e+00  -3.759180000000129e-02 -2.97114332e+00   3.03081976e+00   2.71539510e-01
C     9.460854180643464e+00   2.314950321637249e+00  -3.015354000000023e-01  2.61719443e+00  -2.80268446e+00  -1.82567110e-01
C     3.705049581041708e+00   5.154427995405318e+00   9.106410000000001e-02 -1.28942462e+00   7.40828955e+00   6.04453220e-01
C     3.973964764927995e+00   3.869841849988861e+00  -2.843820000000008e-02  2.63837954e+00  -3.66746306e+00  -2.26950592e+00
C     5.411252873878360e+00   3.529753903181719e+00  -1.351602000000014e-01 -3.19425112e+00  -4.34543338e+00   1.41903533e+00
C     5.749705163106800e+00   2.094386388956770e+00  -1.011809999999969e-02 -2.44150258e+00   3.25550190e-01  -5.63766620e-01
C     7.064894715147529e+00   1.734269874577164e+00   6.688890000000000e-02  2.82664583e+00  -2.96441880e+00  -3.97060000e-04
C     7.459941331283040e+00   3.121741515623433e-01   1.416522000000000e-01 -1.78555441e+00   4.24103520e-01  -2.44358870e-01
C     2.988714256384203e+00   2.850331464984774e+00  -4.019985000000013e-01  9.35825960e-01   1.57888261e+00   1.49262620e+00
C     3.419533400306207e+00   1.543718236324062e+00  -6.032571000000004e-01 -1.47774523e+00  -4.03426130e+00   2.11474311e+00
C     4.718024460665053e+00   9.982371420251716e-01  -1.379397000000004e-01 -2.22476950e-01   7.34980707e+00  -1.63914137e+00
C     1.008776118850674e+00   9.069648196886247e-01  -4.358052000000008e-01 -4.15103406e+00   1.36321530e-01   1.60592429e+00
C     2.309910198723929e+00   4.834046498393386e-01  -5.617358999999986e-01  2.60031453e+00   1.71244803e+00  -2.12951930e-01
