2
Lattice="2.509 0 0 1.2545 2.17285773809516 0 0 0 30 " PBC="1 1 1" Properties=species:S:1:pos:R:3:force:R:3 Energy="-16.08961497"
C     0.000000000000000e+00   0.000000000000000e+00   3.000000000000000e+00  0.00000000e+00   0.00000000e+00   0.00000000e+00
C     1.254500000000000e+00   7.242859126983854e-01   3.000000000000000e+00 -0.00000000e+00  -0.00000000e+00   0.00000000e+00
