32
Lattice="9.604 0 0 4.802 8.31730797794575 0 0 0 30 " PBC="1 1 1" Properties=species:S:1:pos:R:3:force:R:3 Energy="-256.49516473"
C     6.477761536702539e-04  -7.759510956617227e-04   2.999545515477986e+00 -6.36782700e-02   1.03684150e-01   1.10498300e-02
C     1.201221053618855e+00   6.932878594796784e-01   3.000648199825135e+00 -3.31854700e-02   8.48596000e-03  -6.87948000e-03
C     2.402082277692422e+00   6.069464209735593e-04   2.999872111476180e+00 -4.55678800e-02  -4.11793300e-02   7.17208000e-03
C     3.601563521365657e+00   6.933643234570142e-01   3.000184891701969e+00  7.78710800e-02  -3.63516000e-02  -1.60582000e-03
C     4.803089619671385e+00  -1.889927243479350e-04   2.999352637888901e+00 -4.35473400e-02   1.99197800e-02   1.40489000e-02
C     6.003590382685338e+00   6.921416930326003e-01   3.000962915777373e+00 -3.76843000e-02   6.97098600e-02  -7.62908000e-03
C     7.203999299599765e+00   2.178067923288205e-04   3.000966471381274e+00 -4.44513200e-02  -5.26012700e-02  -2.68735000e-03
C     8.402400674020431e+00   6.930411388101003e-01   3.000991712444332e+00  1.49509200e-01   5.59851100e-02  -1.73137800e-02
C     1.199383040517631e+00   2.080009207283686e+00   3.000826617512901e+00  1.14980610e-01  -9.72207000e-03  -1.00874200e-02
C     2.402134578266608e+00   2.772694699001171e+00   2.998972849500357e+00 -8.19917900e-02  -3.08517100e-02   2.09900400e-02
C     3.601778912386299e+00   2.078644840160615e+00   3.001026590126495e+00  1.73485900e-02   6.76684200e-02  -1.77077000e-02
C     4.802195426381470e+00   2.773594529670790e+00   3.000058313405170e+00 -3.11326000e-03  -1.28743930e-01   5.61253000e-03
C     6.002780532322824e+00   2.079068029177083e+00   3.000364481416495e+00 -3.81221600e-02   1.17557500e-02   1.94247000e-03
C     7.201821526566084e+00   2.773568477583322e+00   2.999792723876408e+00  9.82328000e-02  -9.16917800e-02  -7.48163000e-03
C     8.403794277760941e+00   2.080232126566365e+00   2.998869221799897e+00 -5.47556500e-02  -2.99376000e-02   2.17244200e-02
C     9.604158233485430e+00   2.773468897866986e+00   3.000343364368297e+00 -4.10411200e-02  -1.64602800e-02  -1.63866000e-03
C     2.402108493683472e+00   4.158979033747703e+00   2.998967948770432e+00 -9.98426400e-02  -3.36646800e-02  -5.35083000e-03
C     3.600920768455301e+00   4.850919838394479e+00   2.999175868201903e+00  4.56263900e-02   7.56906700e-02  -9.56040000e-04
C     4.800865477161766e+00   4.158103122062585e+00   2.999843016172467e+00  7.47023200e-02   7.27458000e-02   7.75510000e-04
C     6.001651496236922e+00   4.852525079208079e+00   3.000798451712170e+00  7.36708800e-02  -5.39854600e-02  -7.40058000e-03
C     7.204181954246594e+00   4.158122968730321e+00   2.999525446238697e+00 -1.50777640e-01   9.56952500e-02   1.14816500e-02
C     8.403838060145327e+00   4.851057306302120e+00   3.000358011890062e+00 -1.81286100e-02   6.14268600e-02   4.10738000e-03
C     9.603373807524125e+00   4.159700726945506e+00   3.001184470342612e+00  7.66162600e-02  -5.80393200e-02  -1.79314700e-02
C     1.080433240199161e+01   4.851583750802848e+00   2.999092446086844e+00  1.88595400e-02   1.95929000e-02   1.64663400e-02
C     3.601735980398184e+00   6.237660967153499e+00   2.999054141293298e+00 -2.82985700e-02  -4.27005000e-03  -1.91367000e-03
C     4.800918350145759e+00   6.931986105563345e+00   2.999172235914332e+00  9.57387400e-02  -8.02780200e-02   8.03808000e-03
C     6.003051753702978e+00   6.238665563516720e+00   3.000960836241140e+00 -7.28568100e-02  -1.08350100e-02  -6.76560000e-03
C     7.203236730495666e+00   6.930942366327916e+00   3.000824289767447e+00  5.08685400e-02   1.81819200e-02  -4.24051000e-03
C     8.404312829362347e+00   6.237210496852001e+00   3.000712677342282e+00 -3.72229700e-02   4.43484300e-02  -2.46831000e-03
C     9.604844721589595e+00   6.931201428553591e+00   3.000082552843859e+00 -6.71457800e-02  -9.98536000e-03   1.90481000e-03
C     1.080356625920511e+01   6.237932021712345e+00   3.000323175893945e+00  1.24711510e-01  -7.07230000e-04  -1.26653400e-02
C     1.200579884762543e+01   6.931229527355442e+00   2.999468204445646e+00 -5.73249100e-02  -3.55861600e-02   7.40924000e-03
