26
Lattice="8.88768389401873 1.33226762955019e-15 0 4.44384194700937 7.69696003302603 0 0 0 30 " PBC="1 1 1" Properties=species:S:1:pos:R:3:force:R:3 Energy="-208.06738434"
C     1.041737650106453e+00   1.222590749946022e+00   3.751842000000000e+00 -1.81977302e+00   1.70005412e+00  -1.49801271e+00
C     3.433469954659898e+00   6.783946631241399e-01   3.583533600000000e+00  5.34306370e-01   6.09682540e-01  -5.90340010e-01
C     4.835546793635067e+00   1.105885978339148e+00   3.471246900000000e+00 -2.01727161e+00   4.82837360e-01   1.64691170e-01
C     5.817303952277490e+00   1.088153875761235e-01   3.307446600000000e+00 -1.44494220e-01  -6.27771600e-01   1.51813542e+00
C     7.169555857625102e+00   4.735548500889475e-01   3.537038100000000e+00 -7.12960450e-01   1.30009504e+00  -8.14120880e-01
C     1.261211480019367e+01   7.204071570859697e+00   3.596915100000000e+00  5.65331480e-01  -1.86826516e+00  -3.13349000e-02
C     5.059590510694739e+00   7.550472179435442e+00   3.758237700000000e+00  2.95770810e+00   1.06530266e+00  -1.78031630e-01
C     6.127230514182068e+00   6.579463957151599e+00   3.747314400000000e+00 -4.10988290e-01   7.90127540e-01  -4.82081500e-02
C     7.514286900746164e+00   6.997017573332674e+00   3.633665100000000e+00 -4.37162570e-01   3.07900050e-01  -3.22045110e-01
C     8.554514176436607e+00   6.040224250771435e+00   3.483456600000000e+00 -6.24674500e-01  -4.18867270e-01   7.39688000e-01
C     9.904567446534774e+00   6.391514199267038e+00   3.347970300000000e+00  5.98099740e-01   2.31440199e+00  -3.07086900e-02
C     1.094254253870352e+01   5.456962397256489e+00   3.439453800000000e+00  2.49808880e-01  -1.96151759e+00  -5.69368380e-01
C     3.433957314126837e+00   5.790454665074723e+00   3.491937600000000e+00 -1.03698258e+00   9.42821930e-01   6.11691550e-01
C     4.416820589453853e+00   4.771928413380071e+00   3.629528400000000e+00 -2.75442850e-01   2.43961187e+00   3.55728080e-01
C     5.753398619926306e+00   5.212175669543998e+00   3.763428900000000e+00  1.24249060e+00   2.31538520e-01  -6.73247580e-01
C     6.804436918758322e+00   4.285182128343708e+00   3.728074800000000e+00  2.06634867e+00  -8.45115900e-01   7.25721660e-01
C     8.224473456063700e+00   4.691633033620709e+00   3.658155900000000e+00 -1.19913248e+00  -2.26126110e+00  -9.21310220e-01
C     9.250271132527599e+00   3.662590656345870e+00   3.546372600000000e+00 -1.20862533e+00  -2.03639990e-01   3.48817360e-01
C     1.061207823128150e+01   4.054621922763467e+00   3.463196400000000e+00 -1.79360000e-03  -3.19776290e-01   1.27237825e+00
C     2.730542104130500e+00   3.045224419603596e+00   3.661763100000000e+00 -9.75407680e-01  -9.55617200e-02  -1.76757600e+00
C     4.084570524177661e+00   3.417963409645200e+00   3.658121400000000e+00 -1.40839973e+00   1.66435422e+00  -3.36613200e-02
C     5.118376759386832e+00   2.554023365010670e+00   3.625557900000000e+00  1.21329818e+00  -5.16195337e+00   1.90561060e-01
C     6.463886778791525e+00   2.898904439737294e+00   3.768798000000000e+00  1.53789922e+00  -9.06887800e-02  -1.68418147e+00
C     7.481046870792451e+00   1.873497182745423e+00   3.607881300000000e+00  1.08272002e+00   5.87815180e-01   8.90272240e-01
C     8.882551831719107e+00   2.256948570847979e+00   3.620064000000000e+00  1.95781070e-01  -1.88329700e-01   5.60241910e-01
C     2.392429855853603e+00   1.657210604692815e+00   3.576153000000000e+00  2.93165900e-02  -3.93794570e-01   1.78422036e+00
