32
Lattice="9.86 0 0 4.93 8.53901048131456 0 0 0 30 " PBC="1 1 1" Properties=species:S:1:pos:R:3:force:R:3 Energy="-256.69449871"
C     1.213478778200000e+00   2.675137067018416e-01   3.409445700000000e+00  1.20316953e+00  -1.12876312e+00   5.32455410e-01
C     2.497726621800000e+00   9.314572938054384e-01   3.450664500000000e+00 -1.90191512e+00   1.35493802e+00  -1.14328491e+00
C     3.705917629900000e+00   2.051723551597720e-01   3.416163000000000e+00  5.88447920e-01   2.13005217e+00   9.62703300e-02
C     4.926415002600001e+00   1.035877949701795e+00   3.399339000000000e+00 -3.36370130e-01  -4.98090018e+00  -8.16988860e-01
C     6.146769257400001e+00   3.161011886736704e-01   3.295444200000000e+00  7.80099110e-01  -3.18730424e+00   1.15810480e+00
C     7.411005047800000e+00   9.393546830379712e-01   3.364633500000000e+00 -6.09995460e-01   4.78742310e-01   2.37507930e-01
C     8.638886870300000e+00   2.254620687415096e-01   3.474734100000000e+00 -6.41519140e-01  -2.06519910e-01  -1.08767722e+00
C     9.835122776299999e+00   9.678784790354680e-01   3.411462900000000e+00  1.31831612e+00  -1.67345570e-01   6.18158500e-02
C     2.462598547700000e+00   2.393561061687796e+00   3.285569400000000e+00  6.17328180e-01  -1.13912380e+00   5.28985290e-01
C     3.689706508100000e+00   3.117292921590047e+00   3.240191700000000e+00 -3.05766600e-01  -1.39752591e+00   8.29174510e-01
C     4.940554982100000e+00   2.377392274563706e+00   3.320034300000000e+00 -1.67292269e+00   3.24350141e+00   3.13878490e-01
C     6.144679676899999e+00   3.085222276809473e+00   3.401468400000000e+00  1.41757186e+00  -7.54657600e-02  -1.12831471e+00
C     7.378788828899999e+00   2.346354850051212e+00   3.374205000000000e+00  1.32442954e+00   2.01840811e+00  -1.25970530e-01
C     8.638258591100000e+00   3.102648347836638e+00   3.292102200000000e+00 -1.27588798e+00  -7.02472740e-01   5.41400450e-01
C     9.880872929800001e+00   2.389919942229019e+00   3.323087100000000e+00 -1.96570480e+00   1.11065060e-01  -2.25456200e-02
C     1.107968840900000e+01   3.106115783822251e+00   3.276028500000000e+00  1.61527466e+00  -1.16295751e+00  -2.45554130e-01
C     3.657828142100000e+00   4.513645198705043e+00   3.316974000000000e+00  2.82347626e+00  -1.62221640e-01  -7.00509900e-01
C     4.954812887199999e+00   5.176347299074952e+00   3.320902800000000e+00 -2.97598126e+00   2.85849915e+00  -6.21376500e-02
C     6.133841416999999e+00   4.518085227984328e+00   3.308447400000000e+00  2.41539187e+00  -1.41927698e+00   1.21733705e+00
C     7.370128297899999e+00   5.254452176303730e+00   3.440307000000000e+00  1.55410540e-01  -2.16574916e+00  -1.07112873e+00
C     8.597077561599999e+00   4.527399751396121e+00   3.306576900000000e+00  9.78765110e-01  -3.24158940e-01   6.16919360e-01
C     9.864771106099999e+00   5.204423309362878e+00   3.320756700000000e+00 -2.49994550e-01   4.36873800e-01  -3.19652070e-01
C     1.111513860930000e+01   4.500590417922799e+00   3.225805500000000e+00 -1.25209327e+00   1.14798855e+00   5.90851100e-01
C     1.233693232550000e+01   5.221953556317898e+00   3.275761200000000e+00 -1.03274665e+00   4.66201170e-01  -3.07637400e-01
C     4.959651238499999e+00   6.637829085433946e+00   3.346532100000000e+00 -8.69581610e-01  -1.01365177e+00   4.17371110e-01
C     6.167063355900000e+00   7.355822901073847e+00   3.421367100000000e+00 -3.03125150e-01   9.13834600e-01   1.05368180e-01
C     7.386540070699999e+00   6.630567681701963e+00   3.479437200000000e+00  4.62785840e-01   1.78084515e+00  -6.21204880e-01
C     8.634230830400000e+00   7.342406663977986e+00   3.397015500000000e+00  1.08972850e-01  -4.76268850e-01   7.44193720e-01
C     9.863160918799998e+00   6.627007170502118e+00   3.384341700000000e+00  1.20110491e+00   4.73115090e-01  -4.38874160e-01
C     1.112371030170000e+01   7.358101450630330e+00   3.340305300000000e+00 -1.44050223e+00   1.18494088e+00  -4.90170430e-01
C     1.236344221730000e+01   6.645845337692361e+00   3.267069900000000e+00 -1.87649908e+00  -7.18000900e-02   8.29075920e-01
C     1.356401410760000e+01   7.328809314469843e+00   3.387853800000000e+00  1.70006142e+00   1.18250073e+00  -2.39058270e-01
