2
Lattice="2.505 0 0 1.2525 2.16939363648002 0 0 0 30 " PBC="1 1 1" Properties=species:S:1:pos:R:3:force:R:3 Energy="-16.09663572"
C     0.000000000000000e+00   0.000000000000000e+00   3.000000000000000e+00  0.00000000e+00   0.00000000e+00  -0.00000000e+00
C     1.252500000000000e+00   7.231312121600061e-01   3.000000000000000e+00 -0.00000000e+00  -0.00000000e+00   0.00000000e+00
