32
Lattice="9.86 0 0 4.93 8.53901048131456 0 0 0 30 " PBC="1 1 1" Properties=species:S:1:pos:R:3:force:R:3 Energy="-257.31409561"
C     9.860005866699998e+00   9.433292508559919e-02   3.874326600000000e+00 -1.08235322e+00   1.61313230e+00  -1.49394970e-01
C     1.205476057100000e+00   8.633994163074280e-01   3.881897700000000e+00  3.51502660e-01  -2.58046575e+00  -9.38032200e-02
C     2.447625299600000e+00   1.340752730517200e-01   3.841414800000000e+00 -3.87400020e-01   5.38497050e-01  -6.54924300e-02
C     3.670605469600000e+00   8.441819462716640e-01   3.802014900000000e+00  1.29582380e-01  -4.75456580e-01   4.05487750e-01
C     4.893083864199999e+00   1.014603517431504e-01   3.809198400000000e+00  6.53570900e-02   1.50709459e+00  -2.38685800e-02
C     6.111186785199999e+00   8.508821662349009e-01   3.816481200000000e+00  1.40719020e-01  -4.81647000e-02   2.79003780e-01
C     7.346310629800000e+00   1.517841561059824e-01   3.809515199999999e+00  2.98549290e-01  -1.73282790e+00  -3.40200880e-01
C     8.604417099099999e+00   7.965232524697448e-01   3.815153400000000e+00  1.76972480e-01   1.37001543e+00   4.68254250e-01
C     1.105493542130000e+01   2.236413723879535e+00   3.859472999999999e+00  8.06541930e-01   2.00185891e+00  -4.28512570e-01
C     2.457091491200000e+00   2.957457076332159e+00   3.754546800000000e+00 -1.79916920e+00   1.23384534e+00   3.85120320e-01
C     3.643448219500000e+00   2.262507232104319e+00   3.835533300000000e+00  2.24653834e+00   3.52961980e-01  -6.91171100e-02
C     4.892713128200000e+00   3.030524022767842e+00   3.917620800000000e+00 -7.80331780e-01  -2.08795125e+00  -8.44480160e-01
C     6.113422195100000e+00   2.286875177091305e+00   3.877363200000000e+00 -4.40289390e-01  -7.16476240e-01  -1.11064800e-01
C     7.344721000599999e+00   2.950165444503077e+00   3.831622500000000e+00  1.34516766e+00   7.57601190e-01  -1.86777650e-01
C     8.605792421199999e+00   2.243374810612936e+00   3.845616300000000e+00 -7.82191280e-01  -6.96580930e-01  -4.57395400e-02
C     9.828081454500001e+00   2.940444378802330e+00   3.875764200000000e+00  5.53010000e-03   1.72760798e+00  -3.97534210e-01
C     1.233057163950000e+01   4.414601899268360e+00   3.696295800000000e+00 -2.06247328e+00  -1.43586476e+00   5.66174200e-01
C     3.650632955000000e+00   5.137625106690877e+00   3.754348500000000e+00  1.26762134e+00  -5.00506430e-01   3.34980280e-01
C     4.888868763500000e+00   4.419238240398582e+00   3.850181400000000e+00  4.34255380e-01   5.65171860e-01   1.68931500e-02
C     6.153470014800000e+00   5.098919821547552e+00   3.855703500000000e+00 -1.23258677e+00   6.07488370e-01  -3.23211130e-01
C     7.360854721400000e+00   4.381760096451338e+00   3.764712600000000e+00  7.50195950e-01   2.18165720e-01   1.27114203e+00
C     8.597855614200000e+00   5.123130307181286e+00   3.850009500000000e+00  1.70600080e-01  -1.28376383e+00  -4.62305190e-01
C     9.841785967100000e+00   4.405976303222094e+00   3.840958200000000e+00 -7.62968820e-01  -1.24775074e+00  -7.10707500e-02
C     1.106357657740000e+01   5.103492632439802e+00   3.764785499999999e+00  6.76671180e-01  -2.46445700e-02   4.23594180e-01
C     1.349905396260000e+01   6.540199419182229e+00   3.809372100000000e+00  1.33624677e+00   4.02919140e-01  -3.49079740e-01
C     4.904146340500000e+00   7.243423223004768e+00   3.861275400000000e+00 -5.44512030e-01  -1.07738771e+00   7.56160700e-02
C     6.114514978899999e+00   6.525385346070791e+00   3.881327100000000e+00  1.97133252e+00   3.15332200e-01  -2.91674750e-01
C     7.383831134299999e+00   7.266462839521485e+00   3.847329900000000e+00 -1.31223397e+00  -1.27506916e+00   1.57120980e-01
C     8.608091871799999e+00   6.533047485564600e+00   3.849125700000001e+00 -8.88458450e-01   2.30218040e-01  -2.04908960e-01
C     9.821949323300000e+00   7.236082577255532e+00   3.813575400000000e+00  7.86843580e-01  -2.24676600e-01   4.82049750e-01
C     1.105798295010000e+01   6.520841226253754e+00   3.852052800000000e+00 -5.16259800e-02   4.68064100e-02  -1.13617466e+00
C     1.228669025180000e+01   7.222279864545346e+00   3.767323800000000e+00 -8.33633570e-01   1.91887065e+00   7.28974550e-01
