32
Lattice="9.86 0 0 4.93 8.53901048131456 0 0 0 30 " PBC="1 1 1" Properties=species:S:1:pos:R:3:force:R:3 Energy="-254.16214851"
C     1.136401284800000e+00   1.004792194389984e+00   3.437874900000000e+00 -6.17453700e-02  -2.59659009e+00   5.32534980e-01
C     2.366046962700000e+00   1.636994144786801e+00   3.280304400000000e+00  1.33681574e+00   1.62181490e+00   3.64899540e-01
C     3.619275591400000e+00   9.636708816214480e-01   3.587894700000000e+00 -1.16217688e+00   1.35460060e-01  -6.51187420e-01
C     4.870490906700000e+00   1.604218690081207e+00   3.521966700000000e+00 -9.92970390e-01   2.44414550e+00  -2.80016890e-01
C     6.051526193000000e+00   9.103389546467215e-01   3.649302300000000e+00  2.43641791e+00  -6.71718300e-02   1.99720260e-01
C     7.305360373600000e+00   1.660972967066213e+00   3.682875300000000e+00 -9.32236700e-01  -2.13423720e-01   4.80493740e-01
C     8.556303503600001e+00   9.163008917638577e-01   3.700299300000000e+00 -1.78482657e+00   1.22344525e+00  -1.17074100e+00
C     9.725665338699999e+00   1.643070333864159e+00   3.431092200000000e+00  1.25619688e+00  -4.03290230e-01   4.48472900e-02
C     2.366544991300000e+00   3.063049882197105e+00   2.995102200000000e+00  1.62826480e-01  -6.23210690e-01   1.86341540e-01
C     3.617950999000000e+00   3.777735599786949e+00   3.022754700000000e+00  4.71986110e-01   3.67401300e-01   1.18220970e+00
C     4.895566809400000e+00   3.037279746299198e+00   3.371119800000000e+00 -2.77084175e+00   1.22414324e+00  -2.19694340e-01
C     6.042085390900000e+00   3.787013149283364e+00   3.678369600000000e+00  7.53436390e-01   1.03220911e+00  -8.54918520e-01
C     7.249105573299999e+00   3.111090525937794e+00   3.744298200000000e+00  3.90529176e+00  -2.37516531e+00  -5.74694190e-01
C     8.615024289899999e+00   3.772179692618137e+00   3.568583400000000e+00 -5.75281889e+00   1.09630190e+00  -3.54565600e-02
C     9.703950463500000e+00   3.024827563486529e+00   3.225074400000000e+00  2.88157457e+00   1.22739007e+00   2.55317070e-01
C     1.096157517320000e+01   3.747520823544098e+00   2.979268200000000e+00  6.53139990e-01   9.63195140e-01   1.41276370e-01
C     3.563858891100000e+00   5.238936794261570e+00   3.095401500000000e+00  2.44673393e+00   8.40312000e-03   1.08593190e+00
C     4.873905128900000e+00   5.927055344715304e+00   3.492999000000000e+00 -1.88906673e+00  -5.91092700e-01  -1.55398380e-01
C     6.105890387600000e+00   5.236905790618902e+00   3.702572400000000e+00 -3.46029156e+00  -1.29624087e+00  -4.66029000e-02
C     7.251273097100000e+00   5.940827231597659e+00   3.961534800000000e+00  4.37636493e+00  -1.19723531e+00  -1.85944217e+00
C     8.525431942199999e+00   5.189350162673477e+00   3.570387000000000e+00  1.00044620e+00   8.78846570e-01   1.90598387e+00
C     9.791069380900000e+00   5.896062664617726e+00   3.468431400000000e+00 -1.64811447e+00   1.93883030e-01  -2.07210040e-01
C     1.101266476320000e+01   5.220977803590348e+00   3.036355500000000e+00 -2.26197765e+00  -4.27709260e-01   1.28479370e+00
C     1.218581490890000e+01   6.003476926808161e+00   3.110523600000000e+00  2.08150640e+00  -1.86936406e+00   7.20193560e-01
C     4.855848609499999e+00   7.320301642158304e+00   3.689317200000000e+00 -6.61815000e-02   2.32977594e+00  -1.46374722e+00
C     6.118029181499999e+00   8.122105333318776e+00   3.698326200000000e+00 -1.19966978e+00  -2.29276705e+00   1.00561015e+00
C     7.341684021999999e+00   7.338090706520974e+00   3.952516800000000e+00 -1.31441809e+00   3.66391206e+00  -1.12738951e+00
C     8.568246822999999e+00   8.141273960214594e+00   3.871572900000000e+00 -5.69692710e-01  -4.44726872e+00  -2.47044620e-01
C     9.761659022200000e+00   7.303585760632762e+00   3.752784000000000e+00  1.09576868e+00   1.41333576e+00  -1.13647667e+00
C     1.100466100680000e+01   8.017799697893587e+00   3.602643900000000e+00 -2.38108902e+00   1.70205982e+00   1.09389407e+00
C     1.220387226640000e+01   7.387501690663494e+00   3.520677300000000e+00  1.63254987e+00  -2.34476327e+00  -1.59447877e+00
C     1.344310945650000e+01   8.057348381102020e+00   3.574743600000000e+00  1.75706222e+00  -7.80429660e-01   1.14045146e+00
