32
Lattice="9.86 0 0 4.93 8.53901048131456 0 0 0 30 " PBC="1 1 1" Properties=species:S:1:pos:R:3:force:R:3 Energy="-252.81998656"
C     9.663038661300000e+00   7.563796564011688e-01   4.393575300000000e+00  1.19872274e+00  -1.89490278e+00   1.22864996e+00
C     1.056201523800000e+00   1.444106351663976e+00   4.278671399999999e+00 -1.21276822e+00   2.46916739e+00   1.19354700e-01
C     2.317984146200000e+00   7.543247435291568e-01   4.430896199999999e+00 -3.29413477e+00   1.26090958e+00  -4.75852000e-02
C     3.531273020800000e+00   1.410695765358880e+00   4.282003500000000e+00 -1.48904704e+00   2.59967141e+00  -1.78107820e-01
C     4.687874142500000e+00   6.996457876512103e-01   4.270271700000000e+00  3.43679971e+00   1.35988019e+00   3.43580900e-02
C     5.964815430300000e+00   1.533818135058009e+00   4.207069499999999e+00 -2.92134343e+00  -3.16634411e+00   6.71245160e-01
C     7.136556335499999e+00   7.156171528530024e-01   4.264722600000000e+00  1.79822296e+00   2.90065311e+00   8.57021860e-01
C     8.403183126599998e+00   1.378259821709971e+00   4.252388700000000e+00  9.47146710e-01   1.64175671e+00   8.63994600e-02
C     1.082879987090000e+01   2.973279777361494e+00   4.109287200000000e+00  3.14123616e+00  -3.19478449e+00   1.18230520e-01
C     2.238694561800000e+00   3.621196239524864e+00   4.012376400000000e+00 -2.40749520e-01  -2.47609730e-01   5.18585840e-01
C     3.457949673100000e+00   2.859919631393625e+00   4.154232299999999e+00  1.04074750e-01   1.93211305e+00  -1.38693930e-01
C     4.601918162800000e+00   3.699340823152375e+00   4.243197000000000e+00  4.11058631e+00  -2.88311906e+00   4.60608990e-01
C     5.885478517900000e+00   2.926806725164723e+00   4.328367000000000e+00  1.90588368e+00   8.65266150e-01  -2.07775714e+00
C     7.280518399400000e+00   3.580652676205405e+00   4.183163700000001e+00 -4.09289587e+00  -1.69109951e+00   2.71563753e+00
C     8.449426280099999e+00   2.788888385056373e+00   4.231761000000001e+00  2.32232810e-01   3.54347036e+00  -7.03413560e-01
C     9.671184894700000e+00   3.696270621934290e+00   4.218263100000000e+00 -1.82431375e+00  -3.70601857e+00  -1.71159400e-02
C     1.210383571370000e+01   5.056545067430656e+00   4.005152400000000e+00  3.68955535e+00  -3.75346880e-01   1.06287002e+00
C     3.555230996700000e+00   5.812216071352091e+00   4.226472900000000e+00 -1.95325504e+00  -1.18657273e+00   6.29668250e-01
C     4.794738449400000e+00   5.127442678253896e+00   4.364168700000000e+00 -4.56072430e+00  -3.47344285e+00  -1.34262833e+00
C     5.996690098800000e+00   5.662647361515144e+00   4.550549100000000e+00  2.93434187e+00   4.48857467e+00   1.71921128e+00
C     7.239644410299999e+00   4.935523379699712e+00   4.564086900000000e+00 -1.62865840e-01   7.97540330e-01  -1.99866662e+00
C     8.421139024700000e+00   5.674469877695018e+00   4.456534500000000e+00 -9.70980000e-03   4.43783336e+00   1.02854441e+00
C     9.697565669799999e+00   5.093850552585995e+00   4.309804199999999e+00 -2.41501221e+00  -1.83721302e+00  -5.58861840e-01
C     1.091229804840000e+01   5.733373935958469e+00   4.163559300000000e+00 -2.23609490e-01   2.18744725e+00  -2.51806610e-01
C     1.341619249460000e+01   7.147513313463723e+00   4.569127500000000e+00 -2.39354662e+00   2.09340408e+00  -3.70285310e-01
C     4.774608914299999e+00   7.856141457019056e+00   4.740067199999999e+00 -1.15935402e+00   1.93863383e+00  -1.52572863e+00
C     5.991144884100001e+00   7.219764528228253e+00   4.756604400000000e+00 -9.58981310e-01  -4.42220195e+00  -4.24869490e-01
C     7.157116604699999e+00   7.926575826523754e+00   4.683857400000000e+00  1.64810321e+00  -2.51039240e-01  -8.26857500e-01
C     8.324084481100000e+00   7.208991371046265e+00   4.511528700000000e+00  2.92106107e+00  -4.38432282e+00  -3.02531520e-01
C     9.585145400800000e+00   7.814905806900192e+00   4.315123800000000e+00  1.18495894e+00   1.20189163e+00  -1.72651140e-01
C     1.085877284120000e+01   7.145176186295346e+00   4.191626700000000e+00  1.62661659e+00   1.10482588e+00   2.24215034e+00
C     1.213768440350000e+01   7.915388356553278e+00   4.517470500000000e+00 -1.96723165e+00  -4.10902123e+00  -2.55497581e+00
