26
Lattice="8.88768389401873 1.33226762955019e-15 0 4.44384194700937 7.69696003302603 0 0 0 30 " PBC="1 1 1" Properties=species:S:1:pos:R:3:force:R:3 Energy="-207.95227864"
C     1.252469345260348e+01   6.830853906873827e+00   3.886140000000000e-02 -2.17576926e+00  -2.75889401e+00   3.25321690e-01
C     8.804412250936084e+00   6.522676863624664e+00   1.019790000000000e-02 -2.99825207e+00   2.34023242e+00  -6.00715010e-01
C     1.009984199315591e+01   6.190352840399783e+00  -8.521320000000188e-02  2.48449467e+00  -3.07878750e+00   1.34518591e+00
C     1.048470483448491e+01   4.807002536601578e+00   3.870450000000000e-02 -3.48842716e+00   2.72120690e-01  -6.57977290e-01
C     6.384370050616285e+00   5.973973667918014e+00  -3.332969999999946e-02 -7.60051420e-01   1.90662764e+00   4.27731200e-02
C     7.765810575847489e+00   5.601330889876786e+00  -1.909110000000069e-02 -1.50379582e+00  -3.33324150e+00   1.06635160e-01
C     8.084088844717471e+00   4.147788928780999e+00   1.857300000000000e-03 -1.90946290e+00   1.90884608e+00  -1.37158130e-01
C     9.423292296495781e+00   3.794868148394240e+00   2.653530000000000e-02  1.39665338e+00   1.18378383e+00  -3.82917200e-02
C     9.769013333615028e+00   2.451542652508837e+00   2.352240000000000e-02  1.34977436e+00  -1.62743808e+00  -2.19702120e-01
C     3.913122703833892e+00   5.415873869467541e+00   1.387776000000000e-01  1.93601352e+00   2.32344369e+00  -9.68416780e-01
C     5.272298114452480e+00   5.042731173872363e+00   4.649700000000000e-02  2.29348625e+00  -1.25314806e+00   5.95321120e-01
C     5.649987172848933e+00   3.653381397609175e+00   1.352229000000000e-01 -1.29671760e-01  -1.96784514e+00  -5.36091130e-01
C     7.005888716152256e+00   3.160870397388743e+00   2.269020000000000e-02  8.54145100e-01   2.90298139e+00   4.41154780e-01
C     7.390883095232383e+00   1.823012975847853e+00   3.548610000000000e-02 -1.13006250e-01  -1.88729688e+00   1.56749030e-01
C     8.787380201296759e+00   1.440427649687872e+00  -1.436789999999988e-02 -2.00730512e+00   1.37813052e+00   3.28204770e-01
C     2.904736309899768e+00   4.475002555393961e+00   1.163496000000000e-01  1.86386321e+00  -3.50128817e+00   1.62325540e-01
C     3.279567933455045e+00   3.036205429718843e+00   1.128552000000000e-01  1.40367000e-01   5.87088370e-01   3.14843010e-01
C     4.653624526428255e+00   2.596194624167039e+00   1.803783000000000e-01 -5.12244000e-01   1.35430644e+00  -5.94095940e-01
C     4.994637668475917e+00   1.194042494285951e+00   1.053720000000000e-01  1.79853939e+00   1.50039870e+00   2.96764460e-01
C     6.384481854306300e+00   7.811107486636905e-01   9.637560000000001e-02 -1.38819237e+00   2.88347414e+00  -3.93280170e-01
C     1.109609429890542e+01   7.131053743778299e+00   2.934540000000000e-02  3.46246421e+00   1.28217163e+00  -2.65378250e-01
C     2.259966215643159e+00   2.071640948432916e+00   3.532440000000000e-02  9.09340710e-01  -1.30544170e+00   8.66548900e-02
C     2.673280666119572e+00   6.442449448022366e-01  -3.894299999998907e-03 -1.45248150e+00   1.78705376e+00  -2.44416600e-02
C     4.022393974264213e+00   2.176494787651199e-01   3.784050000000000e-02 -1.18841536e+00  -2.43168300e-02   4.80800000e-04
C     1.922091401948332e-01   8.482634922022279e-02   3.276300000000000e-03  3.09476321e+00  -4.41400100e-02  -4.52052840e-01
C     6.080122501667990e+00   7.419911648260964e+00  -7.036289999999923e-02 -1.95683004e+00  -2.82882141e+00   6.85186740e-01
