32
Lattice="9.86 0 0 4.93 8.53901048131456 0 0 0 30 " PBC="1 1 1" Properties=species:S:1:pos:R:3:force:R:3 Energy="-256.87597172"
C     4.911611888800000e+00   8.458306071810796e+00  -4.669529999999966e-02  3.53387730e-01   2.66142366e+00  -6.45938470e-01
C     1.226622848400000e+00   6.922010513642224e-01  -8.934779999999876e-02 -7.06428400e-01  -1.30644340e+00   6.98153470e-01
C     2.459451975200000e+00   4.333035477971200e-03   1.817100000000000e-03 -1.18192661e+00  -2.28589562e+00  -7.06341570e-01
C     3.652376055100000e+00   6.764171174424665e-01  -1.590378000000001e-01  1.43356918e+00   9.54231300e-02   7.76512810e-01
C     9.820008283700000e+00   8.467912202430481e+00  -8.919030000000205e-02  7.19024800e-02   1.03078948e+00  -8.08767700e-02
C     6.106040900499999e+00   6.532663230093000e-01  -4.852290000000181e-02  1.48596580e+00  -8.11864520e-01  -5.89267900e-01
C     1.229901165290000e+01   8.469743649398231e+00  -1.077827999999990e-01  3.93525500e-02   9.68448770e-01  -2.10113230e-01
C     8.623261383199999e+00   6.556363253680240e-01  -1.315697999999976e-01 -8.81354990e-01   7.17427250e-01   8.65706890e-01
C     1.220850163500000e+00   2.089513198647274e+00  -1.790228999999997e-01 -3.32323020e-01   1.30599612e+00  -8.21378460e-01
C     2.436740549800000e+00   2.840414909045313e+00  -3.202391999999996e-01  2.82159680e-01  -1.40774905e+00   4.01066820e-01
C     3.641731199100000e+00   2.092096761658103e+00  -2.487662999999998e-01  1.94680229e+00   6.83425460e-01  -9.35933000e-03
C     4.931366201599999e+00   2.778535944920736e+00  -2.019135000000034e-01 -1.56993009e+00   9.92222300e-01  -8.09758000e-02
C     6.141755595299999e+00   2.065392714183999e+00  -8.505509999999816e-02  1.36335040e-01   1.11712691e+00   2.39746810e-01
C     7.367282208899999e+00   2.842058241612190e+00  -3.028800000000231e-02  6.49808940e-01  -1.49507274e+00  -4.76582620e-01
C     8.634568535400000e+00   2.134594306745701e+00  -9.295799999999943e-02 -1.91215680e+00  -2.30790149e+00  -1.26154440e-01
C     9.838636140800000e+00   2.793596197704312e+00  -2.177600999999996e-01  3.87564900e-01   1.88001942e+00   3.44531530e-01
C     2.477567605300000e+00   4.244307730144882e+00  -4.118040000000001e-01 -1.13783636e+00   6.88419110e-01  -3.47181000e-02
C     3.701639573100000e+00   4.972386629502291e+00  -3.576192000000020e-01 -3.33205210e-01  -1.24619733e+00   8.51208100e-02
C     4.934089336400000e+00   4.242909979519411e+00  -2.224247999999989e-01 -2.64088717e+00  -2.04616851e+00  -2.60937610e-01
C     6.090703374699999e+00   4.921323176051683e+00  -8.656889999999962e-02  3.59210670e+00   2.29142701e+00   3.01286190e-01
C     7.354136462500000e+00   4.248211253395709e+00  -3.550949999999986e-02  1.44959710e-01  -1.44128700e-02  -3.03613790e-01
C     8.606330284199998e+00   4.977013321550671e+00  -1.226184000000003e-01 -1.28711619e+00  -1.72500331e+00   2.83965090e-01
C     9.793679470800001e+00   4.251462310855760e+00  -2.660570999999976e-01  2.65143420e+00  -9.36917970e-01  -2.98905770e-01
C     1.107787569730000e+01   4.950759536099177e+00  -4.138416000000014e-01 -1.10928705e+00  -8.10472500e-01   7.73094950e-01
C     1.351797850710000e+01   6.379533411325474e+00  -2.985210000000009e-01  1.56026582e+00  -4.90611060e-01   5.87409390e-01
C     4.898465797299999e+00   7.072829334613442e+00  -8.637209999999840e-02  5.29087700e-01  -8.71226670e-01  -4.75593560e-01
C     6.144409019899999e+00   6.365279924252048e+00  -4.245660000000129e-02 -2.10929980e-01  -9.64611000e-03   2.16016230e-01
C     7.399989012100000e+00   7.081114565701977e+00   3.846930000000000e-02 -1.41262781e+00   5.16241340e-01  -2.20323980e-01
C     8.613482432400000e+00   6.362390750056141e+00  -3.537269999999992e-02  4.22850900e-02   8.85612160e-01  -2.61385930e-01
C     9.851676286600000e+00   7.045782275088357e+00  -1.114035000000015e-01 -1.24172788e+00   1.04919871e+00  -1.76600550e-01
C     1.103938398280000e+01   6.353336154123358e+00  -3.048924000000000e-01  2.15536482e+00  -1.81518700e-02   1.82651730e-01
C     1.230612623450000e+01   7.056214640362087e+00  -2.582738999999989e-01 -1.50461508e+00   9.00534190e-01   2.38051800e-02
