32
Lattice="9.932 0 0 4.966 8.60136431038704 0 0 0 30 " PBC="1 1 1" Properties=species:S:1:pos:R:3:force:R:3 Energy="-257.87019669"
C    -1.167908494220853e-02   8.686240553816778e-03   2.998631119008974e+00  1.06947344e+00  -2.80926000e-01   1.41029960e-01
C     1.247840385089407e+00   7.286245853927745e-01   3.006691850416334e+00 -4.96865370e-01  -6.28887810e-01  -1.66715650e-01
C     2.480623657948419e+00  -1.050227671432588e-02   2.987676712835864e+00  2.99761280e-01   1.06463052e+00   2.74837420e-01
C     3.733259100290761e+00   7.170826614510042e-01   3.003381987413627e+00 -3.60237930e-01   1.28437400e-02  -1.82384770e-01
C     4.965756361953909e+00  -4.501225919002599e-03   2.999571288015077e+00  3.66179600e-01   5.83157660e-01   4.01618000e-03
C     6.218068493451947e+00   7.224600165001946e-01   2.990646450860703e+00 -3.98799680e-01  -4.17580100e-02   2.36285010e-01
C     7.458920510064543e+00   1.302988517053193e-02   3.005559350149004e+00 -4.01507610e-01  -4.27752950e-01  -1.34696560e-01
C     8.693988772235706e+00   7.261529675596013e-01   3.001094994509139e+00 -2.23676410e-01  -2.00983480e-01  -1.77552200e-02
C     1.249194837618137e+00   2.154942018537339e+00   3.005585036964093e+00 -3.85115260e-01  -1.27546500e-01  -5.19400300e-02
C     2.483424716209682e+00   2.857079432772923e+00   3.012617085652913e+00  4.82006410e-01   4.33731750e-01  -1.83579120e-01
C     3.734502969362221e+00   2.157144357871099e+00   2.992365051749288e+00 -2.11056490e-01  -6.27024060e-01   1.83180840e-01
C     4.977215560316148e+00   2.864241154170585e+00   2.994693989147758e+00 -4.45815870e-01   4.62882760e-01   5.23957100e-02
C     6.207083608414206e+00   2.159155067401398e+00   3.009021763547069e+00  4.59036670e-01  -3.77733030e-01  -2.21820170e-01
C     7.452624932189142e+00   2.877292457738722e+00   2.998684867630574e+00 -9.82539400e-02  -5.21326300e-01  -2.21399600e-02
C     8.684780874449702e+00   2.147646088810979e+00   2.992228135428871e+00  4.88714870e-01   5.96654750e-01   1.08850000e-02
C     9.933098190978395e+00   2.872551540786977e+00   2.985366323006414e+00 -2.16340330e-01  -5.29906090e-01   2.02748610e-01
C     2.488024936132087e+00   4.287698760353448e+00   3.002633919423903e+00 -6.38025900e-02   4.05957730e-01  -3.37991400e-02
C     3.728595624823976e+00   5.016462297683254e+00   2.996974064916484e+00 -2.12283860e-01  -2.70824800e-01   1.47270100e-02
C     4.968122044835357e+00   4.299323866417023e+00   2.993799114738048e+00  4.61353440e-01   3.58748940e-01   4.46622000e-02
C     6.217878474691793e+00   5.029124916512082e+00   2.997852900256475e+00 -2.17004690e-01  -8.17623050e-01  -1.13901870e-01
C     7.460046381734104e+00   4.295786350371723e+00   2.989268040811569e+00 -2.69973670e-01   8.10067640e-01   1.78538930e-01
C     8.698183091097871e+00   5.023894649889422e+00   3.007605431620282e+00 -2.43873670e-01  -4.41328550e-01  -1.75776070e-01
C     9.923409055258249e+00   4.292420651876363e+00   3.002617635696607e+00  7.40134160e-01   5.43439860e-01  -9.63860100e-02
C     1.118049173585063e+01   5.010492436974038e+00   2.995582696795538e+00 -3.48960600e-01  -4.50015500e-02   1.82255620e-01
C     3.717266650154344e+00   6.446263962192918e+00   3.000591151668923e+00  5.31160460e-01   3.98460350e-01   1.86953100e-02
C     4.976256972492605e+00   7.166349097338740e+00   3.011551961857402e+00 -7.31139500e-01   2.06216720e-01  -2.31412760e-01
C     6.217260616116095e+00   6.452435967276098e+00   2.991873348433649e+00 -2.90490310e-01   2.56195680e-01   1.95320560e-01
C     7.446456195412542e+00   7.178012510446835e+00   3.000742926229324e+00  4.85383250e-01  -8.04976800e-01  -1.74488160e-01
C     8.697169954865741e+00   6.447777407414708e+00   2.996875231454468e+00 -5.37037080e-01   5.57261970e-01   1.57970520e-01
C     9.921876172828920e+00   7.175715456576640e+00   3.008809650566767e+00  6.19986430e-01  -6.92421270e-01  -7.20995100e-02
C     1.116877769772954e+01   6.444695758848066e+00   3.011706327308041e+00  1.64150560e-01   4.13546750e-01  -1.71641110e-01
C     1.241241565331162e+01   7.175341742459215e+00   2.997489121900830e+00 -1.51056900e-02  -2.67776550e-01   1.52987230e-01
