32
Lattice="9.86 0 0 4.93 8.53901048131456 0 0 0 30 " PBC="1 1 1" Properties=species:S:1:pos:R:3:force:R:3 Energy="-254.70535273"
C     4.954699201400000e+00   8.275860036873230e+00  -5.303405999999988e-01  2.93058004e+00   2.14373935e+00   3.68409030e-01
C     1.332735379600000e+00   4.503832765592160e-01  -4.622996999999991e-01 -2.06824303e+00   8.09970190e-01  -4.87239950e-01
C     7.511384580599999e+00   8.311814223620107e+00  -4.784801999999999e-01 -2.59234228e+00  -9.28643760e-01   3.61826080e-01
C     3.753271019400000e+00   4.985684003572272e-01  -5.175978000000008e-01  2.00523989e+00  -1.97856954e+00  -1.67282792e+00
C     9.930315801199999e+00   8.274204664301577e+00  -7.051110000000023e-01 -3.71797550e-01  -4.99093790e-01   4.80636780e-01
C     6.232744069699999e+00   4.524344322666168e-01  -6.228932999999977e-01 -7.82633200e-01  -1.01325550e+00   8.92775700e-02
C     1.241146041730000e+01   8.336358328393295e+00  -6.527088000000028e-01 -2.02875805e+00  -3.16480628e+00  -1.57397313e+00
C     8.683068445700000e+00   4.768121117255496e-01  -5.563836000000002e-01  7.54034400e-02  -5.68668350e-01  -2.31545430e-01
C     1.258633535600000e+00   1.879282846019779e+00  -6.243069000000006e-01  3.27397590e-01  -1.82874100e-02  -8.11320480e-01
C     2.507331543600000e+00   2.568719990471835e+00  -9.666384000000008e-01 -1.68088515e+00  -5.31052320e-01   1.05480619e+00
C     3.717755250100000e+00   1.864093227227431e+00  -8.264940000000003e-01  5.24866720e-01   8.93094480e-01   5.65500980e-01
C     4.940350485700000e+00   2.559511777740518e+00  -8.142927000000029e-01  2.08187888e+00   1.23568282e+00   1.27152038e+00
C     6.166036634099999e+00   1.832593329907340e+00  -4.879883999999990e-01 -7.83433310e-01   1.82643449e+00  -1.95414911e+00
C     7.376369825800000e+00   2.547455121893281e+00  -5.405568000000009e-01  8.28469850e-01   1.50146690e+00   1.02640372e+00
C     8.628376899099999e+00   1.873197178640788e+00  -5.954046000000019e-01  3.89433180e-01   9.42631180e-01   1.10442718e+00
C     9.846261815500000e+00   2.593276220639905e+00  -6.207914999999993e-01  2.23212926e+00   3.42906530e-01  -1.91801340e+00
C     2.507749656900000e+00   3.963403659548933e+00  -1.160267099999999e+00  1.50701863e+00   9.16520280e-01   1.84873510e-01
C     3.780592734300000e+00   4.694434665609489e+00  -1.038952500000001e+00 -1.32115854e+00   2.09299950e+00   1.12702050e-01
C     5.025714421700000e+00   4.028496365657764e+00  -8.466230999999986e-01 -1.79395648e+00  -1.20161020e+00  -4.51658950e-01
C     6.229878556500000e+00   4.760453000454351e+00  -6.668586000000012e-01  7.13292930e-01  -1.68234893e+00   1.90725414e+00
C     7.418230554399999e+00   3.987868009964238e+00  -4.029689999999988e-01  1.06922282e+00  -2.69516090e-01  -2.30645027e+00
C     8.713646425600000e+00   4.675457141768213e+00  -5.774036999999979e-01 -2.22517792e+00   1.20517449e+00  -3.43593110e-01
C     9.912400427700000e+00   4.020711179022938e+00  -9.643839000000014e-01 -1.19422641e+00  -2.10173029e+00   2.28684516e+00
C     1.113464311900000e+01   4.677353997556240e+00  -1.190015400000000e+00  4.80892670e-01   6.41419430e-01   9.42360750e-01
C     3.704225949700000e+00   6.210171189805783e+00  -9.097134000000011e-01  3.25460607e+00  -2.75111206e+00  -2.99941980e-01
C     4.999032078500000e+00   6.918103489397100e+00  -6.290936999999985e-01 -1.46685910e+00  -3.56089099e+00  -2.30048420e-01
C     6.260357196899999e+00   6.148484524197215e+00  -4.792400999999984e-01 -3.42393758e+00   1.68706752e+00  -1.42325298e+00
C     7.431092431400000e+00   6.879418441708613e+00  -4.777470000000008e-01  2.32763324e+00  -4.90143960e-01   7.29094520e-01
C     8.624774548100000e+00   6.101932571543609e+00  -5.413071000000009e-01  3.22651592e+00   1.18300781e+00  -1.80446601e+00
C     9.919863363099999e+00   6.828742573943690e+00  -8.683784999999986e-01 -1.61089133e+00  -1.14596970e-01   1.71307738e+00
C     1.115101658570000e+01   6.090263501382060e+00  -1.035421499999998e+00 -9.99941700e-01   1.86514942e+00  -7.86668300e-01
C     1.235428429860000e+01   6.870782428069560e+00  -1.031761799999998e+00  3.69660500e-01   1.58706204e+00   2.09613401e+00
