2
Lattice="2.462 0 0 1.231 2.13215454411729 0 0 0 30 " PBC="1 1 1" Properties=species:S:1:pos:R:3:force:R:3 Energy="-16.13026426"
C     0.000000000000000e+00   0.000000000000000e+00   3.000000000000000e+00 -0.00000000e+00   0.00000000e+00  -0.00000000e+00
C     1.231000000000000e+00   7.107181813724293e-01   3.000000000000000e+00  0.00000000e+00  -0.00000000e+00   0.00000000e+00
