26
Lattice="8.88768389401873 1.33226762955019e-15 0 4.44384194700937 7.69696003302603 0 0 0 30 " PBC="1 1 1" Properties=species:S:1:pos:R:3:force:R:3 Energy="-207.62684708"
C     1.116532220588253e+00   1.338028217083956e+00   3.960007200000000e+00 -1.03023609e+00   3.85149777e+00  -1.68523505e+00
C     3.510924786702983e+00   8.235871922852486e-01   3.984500400000000e+00  1.13201259e+00   8.11482020e-01  -1.72770222e+00
C     4.905905432215281e+00   1.228638636289594e+00   3.718983900000000e+00 -6.32759400e-01  -1.17873203e+00  -1.97721380e-01
C     5.905883853726413e+00   2.130132918606497e-01   3.442483800000000e+00  7.68797250e-01   1.04561050e+00   1.03573336e+00
C     7.306616608269843e+00   6.450407334997382e-01   3.501048900000000e+00 -1.51132763e+00  -1.55732269e+00  -1.50559400e-02
C     1.275654752906937e+01   7.300971448552577e+00   3.578023200000000e+00 -9.55269790e-01   8.91374940e-01  -1.43992300e-01
C     7.384555685344855e-01   1.362692894591290e-02   3.844284600000000e+00  1.19270145e+00  -1.77887725e+00   4.85150450e-01
C     6.201120762832470e+00   6.701686756373580e+00   3.941781300000000e+00  6.40902340e-01   1.49561941e+00  -2.38092900e-01
C     7.595826334570159e+00   7.171064774132647e+00   3.881845800000000e+00 -2.90766920e-01  -2.56293586e+00   1.27794820e-01
C     8.617058674465373e+00   6.165250590714743e+00   3.658494600000000e+00  1.70175975e+00   2.14697780e-01  -3.79764040e-01
C     1.003862096043376e+01   6.524918141415800e+00   3.421388100000000e+00 -1.81127416e+00   4.70089000e-03   1.14464760e+00
C     1.104883146133364e+01   5.501796496704836e+00   3.476982300000000e+00  4.91601700e-02   1.24470601e+00  -1.21606705e+00
C     3.542361727773305e+00   5.925234746707248e+00   3.470100300000000e+00 -4.30580640e-01  -1.88085551e+00   1.73054024e+00
C     4.530452694289761e+00   4.850923006894364e+00   3.747356100000000e+00 -1.63918959e+00   3.96146162e+00  -1.10981023e+00
C     5.844983180679503e+00   5.334202965981217e+00   3.903148200000000e+00  1.57132537e+00  -5.02263930e-01  -1.20341321e+00
C     6.885887031316185e+00   4.392978207503059e+00   3.708509400000000e+00  2.64635763e+00   1.72657070e-01   7.09208180e-01
C     8.332587509047464e+00   4.780206109044335e+00   3.647331000000000e+00 -3.13323527e+00  -4.92490000e-04   2.94904440e-01
C     9.330807991129204e+00   3.773247310700369e+00   3.657024900000000e+00 -8.93254800e-02   1.86681120e-01  -6.43741270e-01
C     1.067617554097185e+01   4.134608192608025e+00   3.527353500000000e+00  1.93311465e+00  -1.14950680e-01   1.87933985e+00
C     2.823571891138585e+00   3.132669890382827e+00   3.811984800000000e+00 -1.76612952e+00   1.45619939e+00  -1.86880660e+00
C     4.165227277622510e+00   3.509483266216312e+00   3.680212200000000e+00  8.50393120e-01   8.22232160e-01   1.05793471e+00
C     5.247592395834992e+00   2.624990414061674e+00   3.682688400000000e+00 -1.73078635e+00  -2.72280973e+00   2.45487910e-01
C     6.564292099182488e+00   3.032412675694461e+00   3.648158400000000e+00  1.70667487e+00  -9.12092400e-01  -1.50265010e-01
C     7.591279481016554e+00   2.010529548821926e+00   3.637377300000000e+00  1.96148114e+00   1.11666175e+00  -1.49185760e-01
C     9.012517455426755e+00   2.411703726180759e+00   3.721124700000000e+00 -1.78610136e+00  -2.39770024e+00   8.02935270e-01
C     2.461898659534134e+00   1.797486469725960e+00   3.918595800000000e+00  6.52301870e-01  -1.66654963e+00   1.21517612e+00
