32
Lattice="9.656 0 0 4.828 8.36234129894254 0 0 0 30 " PBC="1 1 1" Properties=species:S:1:pos:R:3:force:R:3 Energy="-257.07661968"
C    -1.181175232680700e-03  -3.011453215003902e-03   3.002099523385645e+00  1.25178250e-01   1.56024260e-01  -5.39440200e-02
C     1.207984761375399e+00   6.942762137372204e-01   2.996430018559311e+00 -1.05821690e-01   1.67615500e-01   6.04278500e-02
C     2.416824588325766e+00  -4.816367085597984e-04   2.996342014330951e+00 -1.85261660e-01   2.33274000e-03   1.81133300e-02
C     3.617821070948984e+00   6.985315382092220e-01   3.001247514874430e+00  3.28149840e-01   5.68958600e-02  -3.26551100e-02
C     4.827357909267501e+00  -5.643330206893258e-04   2.999132565821123e+00 -6.01641000e-03   1.88914910e-01   3.38726600e-02
C     6.037287577302776e+00   6.977725270779479e-01   3.003771569685246e+00 -1.79757230e-01   2.89385700e-02  -6.39446900e-02
C     7.242262579510323e+00   3.407342196291511e-03   2.997914040515332e+00  7.60649700e-02  -1.81528180e-01   6.28106600e-02
C     8.449624986017781e+00   6.976876224522929e-01   3.002184387362971e+00  2.45718100e-02   2.07954400e-02  -2.86665200e-02
C     1.204972498474751e+00   2.093753363639838e+00   3.003370103696627e+00  1.70549250e-01  -4.81677760e-01  -3.31512600e-02
C     2.412524080569325e+00   2.784140978081326e+00   3.003010933287132e+00  9.57991100e-02   2.83250450e-01  -2.57816500e-02
C     3.622656784132990e+00   2.094490256007062e+00   3.001572486549898e+00 -9.40203200e-02  -2.97651870e-01   5.87633000e-03
C     4.830628118338594e+00   2.785439300358209e+00   2.999734630769854e+00 -3.85978700e-02   1.74909100e-01   2.81609100e-02
C     6.037652799424992e+00   2.092667128654538e+00   3.001262398208570e+00  1.36613600e-02  -1.35918780e-01   7.86849000e-03
C     7.244764906152090e+00   2.789282910444824e+00   3.001310174428040e+00 -1.64293000e-02  -4.76513500e-02  -1.19317600e-02
C     8.451431681438825e+00   2.091480707414683e+00   2.999465310975403e+00 -7.91297300e-02  -6.72381200e-02   4.06110100e-02
C     9.657626317240700e+00   2.786051403872752e+00   3.001967099204208e+00 -9.72629300e-02   1.05634560e-01  -2.76234500e-02
C     2.415286335626722e+00   4.179195715935911e+00   2.998027690832919e+00 -6.10537100e-02   4.61202700e-02   4.46289300e-02
C     3.624127454798412e+00   4.874900013500169e+00   3.001119674432829e+00 -2.35730860e-01   1.92552000e-02  -1.10472400e-02
C     4.828214802496928e+00   4.180097777921048e+00   3.001899083698141e+00  1.15052660e-01  -4.86569100e-02  -4.01884800e-02
C     6.032611600067941e+00   4.879778864124507e+00   2.997316490468879e+00  1.72992690e-01  -1.08340670e-01   7.22899000e-02
C     7.242539844751043e+00   4.181384625302797e+00   3.001981464095215e+00 -7.22727600e-02   1.72068590e-01  -2.93058500e-02
C     8.448264086645098e+00   4.882297985726011e+00   3.001406492576701e+00  1.84275600e-01  -5.43603330e-01  -9.08948000e-03
C     9.658584534810108e+00   4.177009735772959e+00   2.997132346480772e+00 -2.21969450e-01   3.49077410e-01   5.09153100e-02
C     1.086269778348379e+01   4.879727788975180e+00   2.998752625262854e+00  1.13106790e-01  -3.00161180e-01  -7.83027000e-03
C     3.620776987102255e+00   6.267780232579049e+00   3.000370865340326e+00  1.25947320e-01   1.88680130e-01  -1.53973900e-02
C     4.829865309298002e+00   6.967658983375707e+00   2.997571316142595e+00 -2.20231000e-01  -6.06271400e-02   5.19919900e-02
C     6.034381315605930e+00   6.273314055061371e+00   3.001177280580477e+00  1.72482060e-01  -3.08784400e-02  -5.88073400e-02
C     7.244912530022451e+00   6.968711604172934e+00   2.998804368915714e+00 -1.41032890e-01  -8.51621800e-02   1.65893400e-02
C     8.449000235826860e+00   6.267653145571496e+00   3.002040244903821e+00  2.64338400e-02   4.06449540e-01  -3.25249800e-02
C     9.653815431203864e+00   6.970783538648004e+00   2.998865454172315e+00  1.72637010e-01  -2.42911290e-01   2.22523400e-02
C     1.086267298767686e+01   6.268611831875211e+00   3.001270103998620e+00  3.68029100e-02   4.23566080e-01  -2.79009200e-02
C     1.207299743439898e+01   6.970345828305204e+00   3.000098014661202e+00 -1.99117690e-01  -1.58521400e-01  -6.61863000e-03
