32
Lattice="9.86 0 0 4.93 8.53901048131456 0 0 0 30 " PBC="1 1 1" Properties=species:S:1:pos:R:3:force:R:3 Energy="-253.85043814"
C     4.951179329299999e+00   8.358170547543617e+00  -5.462883000000005e-01  1.90301581e+00   4.99415575e+00   1.45228230e-01
C     1.328465654500000e+00   5.960009862470663e-01  -5.700419999999973e-01 -2.96405305e+00  -5.20833560e-01   1.25690140e+00
C     7.467495847199999e+00   8.404040147869766e+00  -5.385804000000007e-01 -2.14230601e+00  -4.29952510e-01   1.18152270e-01
C     3.727917212600000e+00   5.632857315653568e-01  -5.523576000000006e-01  1.85616209e+00  -2.06605226e+00  -6.09933190e-01
C     9.887620522200001e+00   8.383052284791184e+00  -6.169559999999983e-01  7.66150510e-01   4.73626100e-01   6.09197440e-01
C     6.225576194799999e+00   6.213294845229472e-01  -5.913407999999976e-01 -2.05615415e+00  -4.39913872e+00   8.51461270e-01
C     1.235884573180000e+01   8.352534886016922e+00  -4.758984000000019e-01 -8.03026460e-01  -3.37766930e-01  -2.07815537e+00
C     8.631115908499998e+00   5.086930196932584e-01  -5.168976000000001e-01  1.16295567e+00   2.11771641e+00  -3.83148820e-01
C     1.250269692000000e+00   2.028511617849517e+00  -4.482533999999987e-01  2.32897970e+00  -8.83601070e-01  -3.24117956e+00
C     2.565982816900000e+00   2.736977007865100e+00  -7.420013999999995e-01 -3.79131868e+00  -3.54892414e+00   2.51284105e+00
C     3.737293135900000e+00   1.909084931886132e+00  -6.526482000000016e-01  3.53654730e-01   6.76857562e+00  -4.73471900e-02
C     4.938007996200000e+00   2.766311326737358e+00  -5.905898999999977e-01  5.55193550e-01  -1.97432195e+00   4.60142300e-02
C     6.127733689300000e+00   1.990639996299354e+00  -4.969481999999985e-01  2.48702831e+00   2.28954318e+00  -7.30568040e-01
C     7.414553711099999e+00   2.669903934445748e+00  -5.225468999999983e-01 -1.02219613e+00   2.80361566e+00  -2.20963150e-01
C     8.631085539699999e+00   2.003073649459282e+00  -6.234947999999996e-01  8.39007380e-01  -2.04591916e+00   1.23091147e+00
C     9.884892210899999e+00   2.703496401674068e+00  -6.185040000000015e-01  1.52417320e-01   1.28270176e+00   2.40134870e-01
C     2.449418439200000e+00   4.106037326634443e+00  -6.541782000000005e-01  2.46295531e+00   1.55400597e+00  -8.41868610e-01
C     3.670791084099999e+00   4.810105638593455e+00  -5.651888999999990e-01  3.27883713e+00   2.71169704e+00  -1.86512650e+00
C     4.989887421500001e+00   4.220880442552374e+00  -6.038259000000004e-01 -3.10565783e+00  -3.69923629e+00   2.16233240e-01
C     6.197576161200001e+00   4.894677962359786e+00  -6.382659000000004e-01  1.88692698e+00  -5.03338000e-01   1.63571227e+00
C     7.446540438500000e+00   4.163991505372098e+00  -5.187570000000008e-01 -1.02033347e+00  -2.48103667e+00  -6.55945360e-01
C     8.695361351399999e+00   4.832151399680405e+00  -5.369738999999996e-01 -9.30320130e-01  -1.64707811e+00  -6.84372610e-01
C     9.951890615100000e+00   4.175938605714876e+00  -7.020318000000003e-01 -3.21677484e+00  -3.00554482e+00   6.52246950e-01
C     1.111753163130000e+01   4.860045358264897e+00  -7.688367000000014e-01  1.02694898e+00   3.82920810e-01   1.27967162e+00
C     3.773677028899999e+00   6.260079315138449e+00  -7.663353000000015e-01 -1.16921743e+00  -1.62425578e+00   2.06793317e+00
C     4.996410550999999e+00   7.035702314777136e+00  -5.372115000000015e-01 -1.38810440e+00  -5.14694558e+00  -1.00587962e+00
C     6.214608571699999e+00   6.290663488974665e+00  -4.788621000000006e-01 -1.86795015e+00   4.46051120e-01  -8.85915850e-01
C     7.384056731099999e+00   6.985576871627755e+00  -4.887167999999988e-01  3.42594997e+00  -7.16418950e-01  -1.68921900e-02
C     8.612218725500000e+00   6.178104814530449e+00  -5.308944000000011e-01  1.46196412e+00   5.49626862e+00   4.45895400e-02
C     9.859835190100000e+00   6.960126692452534e+00  -5.840217000000010e-01  7.07997230e-01   1.35356200e-02  -6.37219000e-03
C     1.115006775790000e+01   6.292714388511751e+00  -6.262362000000010e-01 -3.87822797e+00  -3.39695231e+00  -1.12920532e+00
C     1.235478957430000e+01   6.836725694841442e+00  -7.361381999999992e-01  2.69949591e+00   7.09290313e+00   1.49564452e+00
