26
Lattice="8.88768389401873 1.33226762955019e-15 0 4.44384194700937 7.69696003302603 0 0 0 30 " PBC="1 1 1" Properties=species:S:1:pos:R:3:force:R:3 Energy="-207.79441507"
C     1.231044272286395e+01   6.465496224531393e+00  -1.810071000000022e-01 -1.10045339e+00  -1.04707874e+00  -1.10248700e-01
C     8.624480068300818e+00   6.217001717233251e+00  -2.390217000000021e-01 -3.38073937e+00  -1.78451726e+00   3.21141960e-01
C     9.924507542657933e+00   5.801145742556393e+00  -3.343617000000023e-01  2.60166400e-02   1.24261362e+00   2.51562400e-02
C     1.026301844623446e+01   4.477890685706018e+00  -3.452996999999982e-01 -1.13184539e+00  -3.21099983e+00  -8.04377300e-02
C     6.197103262404431e+00   5.656067821130131e+00   2.868660000000000e-02 -1.34077416e+00  -7.54758470e-01  -1.30881418e+00
C     7.576080343822607e+00   5.235983675399993e+00  -2.113695000000000e-01 -1.34343045e+00  -2.20183740e-01   8.78963820e-01
C     7.877327855094485e+00   3.821839527852965e+00  -2.674520999999999e-01 -6.88878970e-01   1.30405790e-01  -1.39589260e-01
C     9.227326820953062e+00   3.417255058413639e+00  -2.708846999999999e-01  1.17300460e+00   1.36305716e+00  -4.49729200e-02
C     9.590911880476636e+00   2.039329649014178e+00  -1.391439000000005e-01  2.08113720e-01   1.98085505e+00   6.73671000e-03
C     3.747507735588610e+00   5.068887522233513e+00  -2.688623999999997e-01  3.55556460e-01   1.38216493e+00   7.19068510e-01
C     5.075613847464912e+00   4.649348321273498e+00  -1.141430999999997e-01  3.25714169e+00   7.20759620e-01  -6.04933540e-01
C     5.442631730452986e+00   3.272047366241271e+00  -2.960922000000004e-01  1.87789650e-01  -1.00781289e+00   1.37954993e+00
C     6.821252993430176e+00   2.826642454130842e+00  -2.941436999999993e-01  1.36394470e-01   1.24720584e+00   2.37971060e-01
C     7.186515647727827e+00   1.450900287443891e+00  -2.474751000000026e-01  7.97433470e-01   8.73598980e-01   3.19222090e-01
C     8.595603402314842e+00   1.094039895035377e+00  -6.775230000000221e-02 -3.21100667e+00  -2.92697490e-01  -7.36523720e-01
C     2.719017356259883e+00   4.132627533883506e+00  -3.694697999999974e-01  6.64533050e-01  -2.99221799e+00   5.38968700e-01
C     3.067510150861278e+00   2.705855060984856e+00  -2.584514999999996e-01 -6.46169150e-01  -4.38311100e-02   7.45122340e-01
C     4.411534682273730e+00   2.270470359319882e+00  -1.528568999999997e-01  8.98690930e-01  -9.24955300e-01  -1.94468792e+00
C     4.771435974522444e+00   8.061328729948178e-01  -2.469716999999996e-01  1.38039084e+00   4.41682682e+00   8.13607980e-01
C     6.171244898269725e+00   4.773870125486840e-01  -2.857665000000011e-01 -1.85356872e+00  -4.43936230e-01   1.81138630e-01
C     1.088444890483856e+01   6.792094633129158e+00  -2.863766999999982e-01  4.34132053e+00   1.10601312e+00   1.35929210e-01
C     2.052485634661944e+00   1.696313162854822e+00  -9.832529999999906e-02  2.36672647e+00  -8.96481900e-01  -7.75947640e-01
C     2.466505322859537e+00   2.758568923263916e-01  -6.921300000000130e-02 -2.76580570e+00   2.09063913e+00   1.00338494e+00
C     8.235424817568850e+00   7.546144794567375e+00  -1.147763999999967e-01  2.38842170e-01   6.12792540e-01  -8.19255800e-01
C     4.443419384899578e+00   7.435459892369566e+00  -5.412599999999657e-03  7.99967830e-01  -8.10384150e-01  -1.72210400e-02
C     5.831176209324387e+00   7.073069619027498e+00   7.878960000000000e-02  6.30749440e-01  -2.73707748e+00  -7.23329660e-01
