26
Lattice="8.88768389401873 1.33226762955019e-15 0 4.44384194700937 7.69696003302603 0 0 0 30 " PBC="1 1 1" Properties=species:S:1:pos:R:3:force:R:3 Energy="-208.80482282"
C     1.102584555974575e+00   1.194859603562736e+00   3.609726300000000e+00 -5.80642700e-01   3.91619560e-01   1.02253833e+00
C     3.466929107092166e+00   6.176201594536627e-01   3.632535300000000e+00  1.85039540e-01  -2.63521620e-01   5.18894150e-01
C     4.823916014942948e+00   1.034597504237291e+00   3.573938100000000e+00  5.28798070e-01  -1.62781516e+00  -3.68635810e-01
C     5.837666658085275e+00   4.362636945004000e-03   3.474896700000000e+00  1.57703540e-01   5.79864900e-01   1.00427531e+00
C     7.224703313959308e+00   3.729212540551138e-01   3.527532300000000e+00 -5.94822070e-01   9.51207860e-01  -8.61919400e-02
C     1.269021963283783e+01   7.102614015254652e+00   3.589991100000000e+00  1.04036047e+00   2.20143440e-01  -2.19582710e-01
C     5.168027853115080e+00   7.539103230683931e+00   3.658804800000000e+00  7.83039260e-01  -1.89672411e+00  -7.11889770e-01
C     6.218350604437175e+00   6.489054694943216e+00   3.615124500000000e+00 -1.98113453e+00   2.35070767e+00   2.58155860e-01
C     7.543051934049513e+00   6.927658496201537e+00   3.630928200000000e+00  2.01023533e+00  -7.36405610e-01   6.66404790e-01
C     8.592852311776511e+00   5.916923646236453e+00   3.733794600000000e+00 -5.96061360e-01   6.46973230e-01  -1.47824286e+00
C     9.943591622228350e+00   6.320864034060468e+00   3.587868300000000e+00  7.12830000e-01   2.00323880e-01  -4.52364330e-01
C     1.100448631802968e+01   5.353426277595342e+00   3.478575000000000e+00 -5.51188330e-01  -3.94488980e-01   1.50506390e+00
C     3.495202077133487e+00   5.715294927956177e+00   3.535315800000000e+00 -1.58602731e+00   1.08251046e+00  -3.59731000e-01
C     4.467821807972665e+00   4.724480272366335e+00   3.529724400000000e+00  1.82229866e+00   6.20680130e-01   4.70081530e-01
C     5.848948020780844e+00   5.148847776353168e+00   3.567663300000000e+00  7.11095890e-01  -2.01852269e+00   3.65052600e-02
C     6.914208702389109e+00   4.139551950035295e+00   3.571894800000000e+00 -1.82366959e+00   5.62521240e-01  -2.35584200e-02
C     8.257380283320291e+00   4.537984008413839e+00   3.639347700000000e+00  9.99256570e-01  -5.18737740e-01   1.20055630e-01
C     9.306517773142337e+00   3.524143665985453e+00   3.594996900000000e+00 -6.54114050e-01   2.47372024e+00   5.07829140e-01
C     1.067492877657302e+01   3.976447671249173e+00   3.640438500000000e+00 -1.50010864e+00  -4.76465410e-01  -1.27183642e+00
C     2.762514791424851e+00   2.973192496132442e+00   3.601069800000000e+00  1.67093931e+00   4.07886070e-01   1.12166278e+00
C     4.130269528239349e+00   3.367395382852904e+00   3.602037300000000e+00  1.97845560e-01  -1.97425630e-01  -6.70442750e-01
C     5.166850942678253e+00   2.403517855249654e+00   3.559158000000000e+00 -4.20383100e-02  -4.57000930e-01   1.13908280e-01
C     6.533240531227694e+00   2.767621625833600e+00   3.525959100000000e+00  1.08515885e+00  -6.09115800e-02   2.74839290e-01
C     7.573719772728341e+00   1.767608641190307e+00   3.556299600000000e+00 -6.26368770e-01   8.67876900e-02  -3.63164740e-01
C     8.938697952669829e+00   2.181276139221835e+00   3.573606300000000e+00  5.31738880e-01  -1.10363864e+00   1.14090500e-01
C     2.476601688187087e+00   1.610401003483168e+00   3.746684400000000e+00 -1.90016425e+00  -8.23288280e-01  -1.72866399e+00
