32
Lattice="9.588 0 0 4.794 8.3034515714852 0 0 0 30 " PBC="1 1 1" Properties=species:S:1:pos:R:3:force:R:3 Energy="-256.28367715"
C     9.139941996910590e-04   1.149849537153044e-03   3.000873904215297e+00  1.64604400e-02  -5.06911100e-02   1.80459000e-03
C     1.199310359034241e+00   6.929365651113367e-01   3.000865273820559e+00 -2.06190100e-02  -2.51469900e-02  -1.01956900e-02
C     2.396929893455886e+00  -1.408610478530068e-04   3.000240073317524e+00 -2.97930800e-02  -6.45137000e-03   1.81490000e-03
C     3.594468822491735e+00   6.917586606158174e-01   3.000963692766936e+00  4.56828600e-02   2.37832400e-02  -2.28570700e-02
C     4.793067371726345e+00   9.861407669096286e-04   2.999267327246455e+00  2.84318000e-02  -7.23023800e-02   1.91620800e-02
C     5.991703752919078e+00   6.930410855542014e-01   3.001127952346444e+00  5.42129200e-02  -6.78343300e-02  -2.71431700e-02
C     7.191617453423900e+00   9.363402898007176e-04   3.000187627491888e+00 -7.52442500e-02  -7.80993400e-02   1.42039200e-02
C     8.390362173779483e+00   6.910524421047994e-01   3.000937835681410e+00 -2.99239300e-02   4.88742600e-02  -6.09251000e-03
C     1.198719993070962e+00   2.076099536831053e+00   2.999294454465023e+00 -4.27016600e-02   5.44792900e-02   2.60489200e-02
C     2.396440712815654e+00   2.768865123252258e+00   3.000515341197390e+00  6.64347200e-02  -1.07762180e-01  -2.43770400e-02
C     3.596015821574711e+00   2.075400717504567e+00   2.999012572838813e+00 -6.25680300e-02   6.69311300e-02   2.13049300e-02
C     4.794158462760822e+00   2.768301579038021e+00   2.999522304882737e+00  2.99144000e-03  -3.10603300e-02  -2.23646000e-03
C     5.993043781459368e+00   2.075764692463533e+00   2.998885753942948e+00 -2.94114300e-02   5.42194400e-02   1.97016500e-02
C     7.191853739628957e+00   2.767192608801432e+00   3.000311897838621e+00 -4.73851600e-02   1.08630200e-02  -1.33652900e-02
C     8.389505010285117e+00   2.074851262823527e+00   3.000398958353958e+00  2.40330700e-02   4.55613600e-02   1.14354400e-02
C     9.587097617697896e+00   2.768678903911262e+00   3.001194132609783e+00  5.47014000e-02  -6.93042900e-02  -2.25851900e-02
C     2.395960596712452e+00   4.151038232547250e+00   2.999015005934135e+00  6.31914300e-02   7.45173400e-02   1.50495100e-02
C     3.594644415169113e+00   4.844198733055612e+00   3.000326882414313e+00  3.30941900e-02  -2.03427000e-02   8.70160000e-04
C     4.793299230075916e+00   4.152008035016189e+00   3.001186429529967e+00  2.26574400e-02   2.57950200e-02  -1.45863600e-02
C     5.992822607549614e+00   4.844383647895247e+00   2.999938133334816e+00 -7.01988800e-02  -8.94081100e-02  -4.69170000e-04
C     7.190215385407399e+00   4.151451771757263e+00   2.999200382103647e+00  3.28100500e-02  -2.20337000e-02   1.25154900e-02
C     8.388301625997775e+00   4.842613630349747e+00   3.000240703892149e+00  5.29689900e-02   1.04159720e-01  -1.01851900e-02
C     9.587535854521775e+00   4.152134108075524e+00   2.999382476109136e+00 -9.31182000e-03  -1.27992200e-02   1.48389100e-02
C     1.078683839687205e+01   4.842991870847579e+00   2.999729880198617e+00 -5.54605600e-02   6.32285800e-02  -2.96754000e-03
C     3.596686059718879e+00   6.228182376886475e+00   3.000598348393275e+00 -7.50007700e-02   3.56635000e-03   2.80904000e-03
C     4.794730631159245e+00   6.920726332811459e+00   3.000587279854114e+00  1.11620300e-02  -4.50044800e-02  -2.66684000e-03
C     5.992753595221147e+00   6.226485180807351e+00   2.999293354459482e+00 -8.58152000e-03   1.08587380e-01   3.82626000e-03
C     7.190636553195148e+00   6.919520180763601e+00   2.998963819713600e+00  4.60485900e-02  -1.18647300e-02   8.61485000e-03
C     8.390528461313757e+00   6.228331108377400e+00   2.999990063447043e+00 -1.22743870e-01  -9.78726200e-02  -7.86369000e-03
C     9.587098147755995e+00   6.919218127146348e+00   2.999657995869508e+00  1.19297860e-01   7.02999900e-02   6.07447000e-03
C     1.078744097140425e+01   6.227721061006159e+00   3.000808479583622e+00 -1.03490930e-01  -4.44015100e-02  -7.98969000e-03
C     1.198418873598952e+01   6.918919100209198e+00   3.000993456176530e+00  1.08255660e-01   9.75133100e-02  -4.49424000e-03
