32
Lattice="9.62 0 0 4.81 8.3311643844063 0 0 0 30 " PBC="1 1 1" Properties=species:S:1:pos:R:3:force:R:3 Energy="-256.68339238"
C     7.415873015999660e-04  -2.944893628131565e-03   3.002620448230256e+00 -1.48146960e-01   1.19381090e-01  -6.57933800e-02
C     1.199034321915837e+00   6.953630348059197e-01   2.998691482868507e+00  2.61306210e-01  -9.61827100e-02   4.33067600e-02
C     2.406546822112701e+00   4.276904419903219e-03   2.999302362869501e+00 -1.74104780e-01  -2.38741060e-01  -1.85757500e-02
C     3.607769152020600e+00   6.956293799512400e-01   3.000590789782287e+00 -9.70391300e-02   5.15759600e-02  -1.07821900e-02
C     4.808165681148933e+00   4.290144033188896e-03   2.998586851326692e+00  1.68556780e-01  -1.95547350e-01   2.26418600e-02
C     6.014006384537661e+00   6.945490669177846e-01   2.999338458328963e+00 -4.54042300e-02  -5.27876400e-02   3.30230800e-02
C     7.217933018255188e+00   1.431681367445943e-04   3.003900736680227e+00 -1.28460910e-01  -1.83082800e-02  -6.70003300e-02
C     8.418805860123006e+00   6.969252772025260e-01   3.002063788091380e+00  5.15689600e-02  -2.88603730e-01   3.82753800e-02
C     1.203207159623113e+00   2.083137161573468e+00   3.002432908080747e+00 -8.52063600e-02   3.22389300e-02  -2.61587700e-02
C     2.407108318032946e+00   2.776557954191256e+00   3.000562389005610e+00 -2.08326650e-01   1.27084180e-01  -6.98577000e-03
C     3.603464735172913e+00   2.082018990426971e+00   3.001050193621990e+00  3.27691820e-01   9.09276500e-02  -6.82365000e-03
C     4.808649993583052e+00   2.776748965592375e+00   2.999768979547791e+00 -1.15032770e-01   3.52195400e-02  -3.27533000e-03
C     6.010139535586512e+00   2.081616929345831e+00   3.001572010959537e+00  1.88446560e-01   1.54422830e-01  -2.28900200e-02
C     7.216092924791750e+00   2.777253167973429e+00   3.000953905764157e+00 -8.18418300e-02  -1.14882150e-01   1.28040900e-02
C     8.419072728119268e+00   2.081238622372499e+00   3.003262157639712e+00 -1.13925750e-01   1.75935660e-01  -1.95459700e-02
C     9.619454842968826e+00   2.775895530297274e+00   3.001935294752298e+00  1.26859980e-01   1.74773190e-01   3.09695700e-02
C     2.406765294814940e+00   4.166725472737510e+00   2.997284460224813e+00  5.29820200e-02  -7.56451800e-02   4.44297600e-02
C     3.610378903698045e+00   4.862566180960453e+00   3.002642098922236e+00 -2.29327700e-01  -1.82316470e-01  -6.13258100e-02
C     4.806770618116516e+00   4.167423671097573e+00   2.997933112046435e+00  2.66425620e-01  -2.09353150e-01   5.72709100e-02
C     6.012740428560416e+00   4.857050729488653e+00   3.001896222923324e+00 -3.11952000e-02   1.02133900e-01  -4.81514000e-02
C     7.216397128135868e+00   4.165143706246754e+00   2.999706300152150e+00 -1.35838450e-01  -9.26411300e-02   1.24845700e-02
C     8.413521369870203e+00   4.860540620081752e+00   2.999349094490962e+00  3.75175260e-01  -2.15240900e-02   3.75983200e-02
C     9.622374119867962e+00   4.167256669253007e+00   3.004243645161131e+00 -2.75500120e-01  -1.31053640e-01  -5.63253700e-02
C     1.082409573778635e+01   4.857468793034426e+00   2.998914347875174e+00 -1.33460400e-02   2.30652720e-01   2.49200800e-02
C     3.610305992324987e+00   6.246256249901151e+00   3.000727208022215e+00 -3.31025050e-01   1.58007260e-01  -3.48005900e-02
C     4.805676295226238e+00   6.939950112677372e+00   2.995612707476751e+00  4.63571900e-01   4.76154100e-02   6.73889500e-02
C     6.014128746104764e+00   6.245464445093164e+00   2.998446461922671e+00 -1.01062610e-01   1.47646750e-01  -1.41724200e-02
C     7.217882409034161e+00   6.943063611643845e+00   2.997085113323653e+00 -2.91088160e-01   1.39064990e-01   2.56035400e-02
C     8.415240944836498e+00   6.248685516697253e+00   3.000613115835367e+00  1.55568080e-01   1.24283700e-02  -1.41819800e-02
C     9.617132323634591e+00   6.945952492322089e+00   3.001854721727465e+00  1.42457540e-01  -1.06775560e-01  -1.59206700e-02
C     1.082232074900447e+01   6.249424610747933e+00   3.000774804302046e+00 -1.19158640e-01  -3.19897900e-02  -2.46922800e-02
C     1.202416345006829e+01   6.941396173622675e+00   2.997144597874483e+00  1.44420630e-01   5.72434800e-02   6.66848100e-02
