26
Lattice="8.88768389401873 1.33226762955019e-15 0 4.44384194700937 7.69696003302603 0 0 0 30 " PBC="1 1 1" Properties=species:S:1:pos:R:3:force:R:3 Energy="-208.03472792"
C     1.246041536730107e+01   6.563467442090850e+00   1.101261000000000e-01  2.68313590e-01   2.24233682e+00  -6.22355860e-01
C     8.794873321987620e+00   6.489697006257719e+00  -5.165490000000261e-02 -3.43196631e+00  -1.70780866e+00  -3.79382000e-02
C     1.010862649096049e+01   6.074197092951850e+00   1.086330000000000e-02 -1.00020090e+00  -1.91762826e+00  -1.21334970e-01
C     1.045493567054363e+01   4.703888287319676e+00   3.143610000000000e-02  1.18030970e-01  -2.39411456e+00   2.97994500e-01
C     6.346007251786463e+00   5.840006231325457e+00   4.864980000000000e-02 -1.05576990e+00   1.90629180e-01  -1.36754020e-01
C     7.748534829147751e+00   5.494166808105499e+00  -7.667699999998945e-03 -7.46259340e-01  -1.30728960e-01   4.65071250e-01
C     8.087912948460943e+00   4.141821321730539e+00   9.099989999999999e-02  3.67137980e-01  -2.94639330e+00  -3.87114300e-02
C     9.479346429885267e+00   3.668437652032659e+00   1.616520000000000e-02 -2.87396885e+00   2.61182094e+00   5.07332040e-01
C     9.705734668443027e+00   2.302651041326911e+00   5.556000000000000e-02  1.48078806e+00  -1.44230106e+00  -3.90137700e-02
C     3.905246615979004e+00   5.192280567258455e+00   1.136259000000000e-01  9.87120690e-01   1.45938645e+00   4.25944920e-01
C     5.265134996632877e+00   4.870907624825057e+00   1.321794000000000e-01  3.18948370e+00  -1.92870130e+00  -9.77850500e-02
C     5.693540734366924e+00   3.462621787496062e+00   1.750581000000000e-01 -8.26009030e-01   6.93430140e-01  -4.82446200e-02
C     7.073100181301308e+00   3.087666226905020e+00   2.198751000000000e-01 -4.14167540e-01   1.04695178e+00  -8.30246900e-01
C     7.399383098258843e+00   1.680990054827099e+00   1.697061000000000e-01 -2.57647803e+00   1.24689861e+00  -3.86439030e-01
C     8.700529887550188e+00   1.303808841273781e+00   9.272100000000000e-02  1.77987149e+00  -1.16037522e+00  -2.94439120e-01
C     2.898699128266864e+00   4.230971592186815e+00   1.519056000000000e-01  6.28703900e-02  -9.59614140e-01  -4.73617340e-01
C     3.253454318264695e+00   2.823107240389063e+00   1.405272000000000e-01 -8.77698710e-01   5.77601000e-01  -6.16995500e-01
C     4.665734706653148e+00   2.457736627153779e+00   9.353760000000000e-02 -1.58200951e+00   5.70136760e-01  -2.40538800e-02
C     4.955303268063119e+00   1.090677247137470e+00  -6.925379999999848e-02  1.37186598e+00   1.54470490e-01   1.07047175e+00
C     6.364008452284337e+00   7.141844496892358e-01   2.664510000000000e-02 -1.74963634e+00  -9.88135160e-01   3.07519020e-01
C     1.108316089677972e+01   6.991657564306982e+00   8.132339999999999e-02  3.90747780e+00   3.04045522e+00  -2.72366160e-01
C     2.150309571710708e+00   1.837874805060979e+00   3.890850000000000e-02  3.51836975e+00   1.40499507e+00   4.67076320e-01
C     2.577262039845340e+00   4.786305334111308e-01   2.087010000000000e-02 -3.06115766e+00   6.82530470e-01  -4.89549310e-01
C     3.896145313303873e+00   1.079248493006525e-01  -5.727479999999829e-02  3.25108074e+00   1.21218467e+00  -4.53293800e-02
C     4.615199028332361e+00   7.609601611838708e+00   3.897900000000000e-03 -1.37540953e+00  -9.11948310e-01   9.35449010e-01
C     5.961252929072255e+00   7.214886184549848e+00   9.786000000000000e-04  1.26832050e+00  -6.46078660e-01   9.83157500e-02
