32
Lattice="9.86 0 0 4.93 8.53901048131456 0 0 0 30 " PBC="1 1 1" Properties=species:S:1:pos:R:3:force:R:3 Energy="-257.44570463"
C     1.305379894200000e+00   5.756488524987200e-01   3.381280500000000e+00 -1.49672075e+00  -1.23415900e-01  -1.57249440e-01
C     2.494310476900000e+00   1.313403560801332e+00   3.400515900000000e+00  9.19872680e-01  -1.63117076e+00   2.74801800e-01
C     3.718531577200000e+00   5.880584256490944e-01   3.457533000000000e+00  1.08273343e+00   1.04761810e-01  -1.55780700e-01
C     4.967939702399999e+00   1.303255373796376e+00   3.442592400000000e+00  2.22207300e-02  -1.14511316e+00   1.46233620e-01
C     6.216343438699999e+00   5.595616129247144e-01   3.461059800000000e+00 -9.82309800e-01   1.15532577e+00  -1.06218960e-01
C     7.410976108699999e+00   1.306152062321506e+00   3.397452300000000e+00  1.89247745e+00  -7.80380160e-01  -1.98338270e-01
C     8.685068645299999e+00   5.953923255800520e-01   3.324807000000000e+00 -6.22577260e-01  -5.35109200e-01   9.96009480e-01
C     9.939493735699999e+00   1.288243366422012e+00   3.380187000000000e+00 -1.33306557e+00   4.95127380e-01  -6.16987000e-01
C     2.491192054700000e+00   2.696656654279588e+00   3.432595200000000e+00  1.55548010e-01   2.13938684e+00   3.47163800e-02
C     3.729015665900000e+00   3.422471520398330e+00   3.480258900000000e+00  4.32350390e-01  -8.08243800e-02  -4.80473780e-01
C     4.962530161300000e+00   2.715547507164492e+00   3.421742100000000e+00  6.80705420e-01   6.31688800e-02   6.06658500e-02
C     6.222163845999999e+00   3.422020233694462e+00   3.372467400000000e+00 -1.72840224e+00   6.52359000e-01   7.79049720e-01
C     7.430176092300000e+00   2.723364800478722e+00   3.397596900000000e+00  5.34644280e-01  -1.78390070e-01  -5.68619980e-01
C     8.676143816999998e+00   3.428473334694408e+00   3.355295100000000e+00 -2.65415110e-01   1.12404520e-01   8.99350510e-01
C     9.900069314500000e+00   2.734849769574323e+00   3.370707900000000e+00  5.03784940e-01  -1.25439471e+00  -1.97736800e-02
C     1.112373894500000e+01   3.428973379148117e+00   3.407355600000000e+00  3.00800380e-01   1.35285085e+00   6.67786470e-01
C     3.776591151900000e+00   4.846025498518205e+00   3.465204600000000e+00 -1.80818681e+00  -2.50537260e-01   2.55476670e-01
C     4.978039300400000e+00   5.572248614727995e+00   3.439783200000000e+00  1.43257960e-01  -6.19816310e-01  -1.15141050e-01
C     6.194780653999999e+00   4.852552974299430e+00   3.434558400000000e+00  5.71627260e-01  -6.52041930e-01  -6.24443310e-01
C     7.426239881699999e+00   5.538172070995564e+00   3.400701300000000e+00  6.53781940e-01   5.78844660e-01   7.23627570e-01
C     8.686359516500000e+00   4.840843514618311e+00   3.483082500000000e+00 -1.04808593e+00   6.99795010e-01  -1.11250171e+00
C     9.884664740700000e+00   5.604994780627642e+00   3.484005900000000e+00  1.14307419e+00  -1.61891711e+00   3.27324220e-01
C     1.113243955690000e+01   4.892076552817054e+00   3.527955600000000e+00  1.03730380e-01  -1.70731881e+00  -8.52790840e-01
C     1.238944762220000e+01   5.550583437338140e+00   3.504886800000000e+00 -3.16649680e-01   8.57579710e-01   7.85681900e-02
C     4.952886834800000e+00   6.977128460048948e+00   3.386406300000000e+00  4.36084600e-01   6.42621890e-01   1.09417560e-01
C     6.186017381799999e+00   7.689805546203581e+00   3.355332900000000e+00  7.66139600e-01  -1.63327130e-01   3.85565190e-01
C     7.412467433700000e+00   6.961454337801964e+00   3.415128900000000e+00  1.32848094e+00   7.55504670e-01  -8.24794100e-02
C     8.686141314699999e+00   7.703526796753788e+00   3.473732400000000e+00 -1.57233993e+00  -2.09183890e-01  -3.82895820e-01
C     9.922926717199999e+00   7.002166717358612e+00   3.471506100000000e+00 -1.09218860e+00   2.92765650e-01   4.77391600e-01
C     1.115550899890000e+01   7.682139820325371e+00   3.510793800000000e+00 -4.99212110e-01   8.40932240e-01  -3.61791460e-01
C     1.236840500180000e+01   6.992295108903104e+00   3.493257900000000e+00  5.86285480e-01  -1.28429359e+00  -3.72672600e-02
C     1.358717021900000e+01   7.684458588621214e+00   3.412488900000000e+00  5.07553740e-01   1.49080549e+00  -3.43232210e-01
