32
Lattice="9.86 0 0 4.93 8.53901048131456 0 0 0 30 " PBC="1 1 1" Properties=species:S:1:pos:R:3:force:R:3 Energy="-256.94425868"
C     4.957005603299999e+00   8.376740162854263e+00  -5.685500999999995e-01  1.37895565e+00   9.98501880e-01   1.25803370e-01
C     1.291570619100000e+00   5.731688676850135e-01  -6.158630999999986e-01 -1.15959585e+00  -7.55877850e-01   9.79780750e-01
C     7.453360255400000e+00   8.379074130588762e+00  -5.636739000000013e-01 -1.30246208e+00   6.77640590e-01   1.55112710e-01
C     3.732700988800000e+00   5.486403039108991e-01  -4.233486000000006e-01  1.74813400e-01  -5.04289850e-01  -9.06575860e-01
C     9.886411045299999e+00   8.373178712363265e+00  -4.580571000000013e-01  8.20687650e-01   1.06489147e+00   2.04605070e-01
C     6.195686147100000e+00   5.679786863350600e-01  -5.188433999999980e-01 -4.10200090e-01  -1.68350120e-01   8.56181720e-01
C     1.237327929280000e+01   8.366166050006564e+00  -4.216368000000017e-01 -6.66055000e-01   1.51400192e+00  -4.26475880e-01
C     8.679856846500000e+00   5.517250214467992e-01  -5.040716999999972e-01 -9.49995960e-01   7.84610180e-01  -3.70826080e-01
C     1.234331051300000e+00   1.981683428206882e+00  -4.349214000000003e-01  2.02615302e+00   4.75678100e-02  -9.88397110e-01
C     2.505898639100000e+00   2.696484337048101e+00  -4.209120000000013e-01 -1.98401415e+00  -4.24707650e-01   1.32686016e+00
C     3.699488959200000e+00   1.942260097672295e+00  -4.005555000000030e-01  1.08040358e+00   2.95245422e+00  -9.30903700e-02
C     4.924075224599999e+00   2.755402057728320e+00  -4.059512999999981e-01  3.33299770e-01  -2.49753152e+00  -4.42175660e-01
C     6.127086331000000e+00   2.014199553164199e+00  -5.212859999999999e-01  2.45731315e+00  -2.73976330e-01   2.49412800e-02
C     7.421172926300000e+00   2.723260282990447e+00  -5.629070999999968e-01 -7.26816800e-01  -9.75439760e-01   9.35994000e-02
C     8.675771059700001e+00   2.009276557452164e+00  -5.600601000000012e-01 -1.60508575e+00  -1.11870319e+00   3.36315360e-01
C     9.884925882799998e+00   2.700478117639702e+00  -4.568708999999984e-01  6.25943630e-01   9.52369520e-01   1.58315140e-01
C     2.489728436300000e+00   4.118204648057500e+00  -2.020971000000031e-01  6.85166270e-01  -7.76514900e-02  -5.90413430e-01
C     3.716440567000000e+00   4.816487097295473e+00  -2.369703000000030e-01  9.15828640e-01   1.51408295e+00  -8.45164500e-01
C     4.981591020300000e+00   4.162609039575386e+00  -4.040765999999998e-01 -2.30852404e+00  -1.03519093e+00   5.23637440e-01
C     6.181292124700000e+00   4.844303863225226e+00  -5.040104999999997e-01  1.63087157e+00   3.85242980e-01  -1.33094100e-02
C     7.427169876900000e+00   4.131786627346778e+00  -5.552910000000004e-01  3.52408950e-01   1.09040360e-01   1.85080090e-01
C     8.692073090699999e+00   4.830719493013013e+00  -4.888487999999995e-01 -9.27146820e-01  -2.55004190e-01   1.96422500e-02
C     9.926495199100000e+00   4.135306578246844e+00  -3.627296999999992e-01 -2.70853110e-01   2.11339960e-01  -3.94916000e-03
C     1.115275924210000e+01   4.888228874694766e+00  -1.855715999999994e-01 -1.38537517e+00  -2.14319722e+00  -4.64910120e-01
C     3.706516920699999e+00   6.251268593344975e+00  -3.630110999999978e-01  7.57065930e-01  -3.69633940e-01   8.30788050e-01
C     4.957294599899999e+00   6.979182689800121e+00  -4.870328999999991e-01 -6.08140910e-01  -1.35534379e+00   2.50720900e-02
C     6.192871117099999e+00   6.257203717969205e+00  -5.057540999999972e-01 -6.29168310e-01   6.03620020e-01  -4.37953250e-01
C     7.408562035599999e+00   6.972461720041418e+00  -5.740839000000015e-01  1.23144379e+00  -1.03294580e+00   1.80547640e-01
C     8.654165186800000e+00   6.235650999347370e+00  -5.139800999999977e-01  2.98909290e-01   1.27895365e+00   4.63004640e-01
C     9.886272265799999e+00   6.972804475922085e+00  -3.908282999999990e-01 -5.95308270e-01  -6.16424080e-01   7.50382700e-02
C     1.111626141680000e+01   6.297429032368074e+00  -1.958318999999982e-01 -5.13033360e-01  -1.15138931e+00  -6.56001930e-01
C     1.233746693470000e+01   6.948676050179063e+00  -2.836235999999985e-01  1.27251140e+00   1.66133949e+00  -3.25082680e-01
