32
Lattice="9.86 0 0 4.93 8.53901048131456 0 0 0 30 " PBC="1 1 1" Properties=species:S:1:pos:R:3:force:R:3 Energy="-250.26802507"
C     4.954744951800000e+00   8.485685042673239e+00  -5.702156999999985e-01 -3.11965732e+00   2.81112898e+00   8.71818250e-01
C     1.182737467400000e+00   7.551849634449120e-01  -5.978628000000015e-01  2.52742162e+00  -3.96208667e+00   4.47627500e-01
C     2.448872343100000e+00   4.137534833031600e-02  -5.926604999999974e-01 -7.00751980e-01  -3.48726300e+00   2.27546680e-01
C     3.640529117200000e+00   6.252593079260528e-01  -2.746050000000011e-01  3.93578114e+00   2.54266870e+00  -9.92302250e-01
C     9.873897177000000e+00   8.506614669700348e+00  -2.286171000000010e-01 -4.12201350e-01   1.22607127e+00   1.07315450e-01
C     6.149796326699999e+00   7.487585895477689e-01  -3.849498000000011e-01  3.48949630e-01  -5.04425101e+00   2.56184502e+00
C     1.227199973920000e+01   8.519667401120074e+00  -7.458839999999967e-02  2.29272220e+00   1.00905968e+00  -2.62766300e+00
C     8.565958810000000e+00   7.131687623780719e-01  -4.537832999999978e-01  1.77298902e+00  -2.43668173e+00   4.49080600e-02
C     1.237607874400000e+00   2.043133990175678e+00  -1.452831000000003e-01  1.44472022e+00   2.69245570e+00  -1.13965115e+00
C     2.482658471200000e+00   2.764681229636726e+00  -5.618999999974505e-04  1.01289895e+00   1.90108941e+00   2.45045354e+00
C     3.825635383499999e+00   2.090320305917844e+00  -1.498092000000000e-01 -6.00413523e+00  -1.21386320e+00   7.18555610e-01
C     4.975566658900000e+00   2.794501930545926e+00  -8.983620000000059e-02  2.76237999e+00   1.31405042e+00  -1.16740755e+00
C     6.260180801500001e+00   2.086125773189858e+00  -4.202379000000001e-01 -4.13986845e+00   3.27440000e+00   8.68024190e-01
C     7.413662416399999e+00   2.820970728281305e+00  -4.737402000000017e-01  2.37209600e+00  -6.47678730e-01  -1.62633839e+00
C     8.658319796400001e+00   2.125916793515715e+00  -6.480332999999980e-01 -4.55121970e-01  -1.35909202e+00   2.57526781e+00
C     9.905807292199999e+00   2.754292840266968e+00  -2.517707999999992e-01 -2.82724752e+00   1.80274271e+00  -9.98049500e-02
C     1.228465805650000e+01   4.222278107787740e+00   5.579568000000000e-01  1.80406448e+00  -8.66818060e-01  -2.76436711e+00
C     3.814181662400000e+00   4.993940714365803e+00   4.555035000000000e-01 -2.76170903e+00  -8.56108050e-01  -2.62983180e+00
C     4.970140109299999e+00   4.265874367353799e+00  -3.111450000000104e-02 -1.95156693e+00  -2.78917167e+00   5.97693890e-01
C     6.112881127600000e+00   4.820875977901984e+00  -5.570156999999973e-01  1.90528840e+00   5.27058059e+00   1.92076090e+00
C     7.398729939399999e+00   4.205040663502079e+00  -5.637332999999991e-01 -1.17604352e+00   1.44660300e-01   6.46900890e-01
C     8.598759233899999e+00   4.892505723483779e+00  -2.728082999999977e-01  8.67777100e-02   1.09241349e+00  -8.49410950e-01
C     9.728753342799999e+00   4.130674762792178e+00   3.373860000000000e-02  5.01576307e+00   2.00352629e+00   9.73683880e-01
C     1.104101221390000e+01   4.959381545761043e+00   4.727184000000000e-01 -9.42494460e-01  -1.51916654e+00  -7.73774550e-01
C     1.353753931740000e+01   6.379585243119088e+00   3.577470000000000e-02  3.38395095e+00   4.35669310e-01   1.41493244e+00
C     4.961767539599999e+00   7.130678483522193e+00  -3.299765999999984e-01 -5.56325430e-01  -3.85696949e+00  -3.32399000e-02
C     6.173210079900000e+00   6.308486453208940e+00  -4.459893000000008e-01  7.79922880e-01   9.90708250e-01  -2.01675464e+00
C     7.480515188399999e+00   7.049022317224888e+00  -6.587978999999997e-01 -2.23371145e+00   4.45744700e-01   1.57262570e+00
C     8.688320029600000e+00   6.318388545931862e+00  -3.754550999999999e-01  7.85880370e-01   2.20321693e+00   1.54683086e+00
C     9.995281812900000e+00   7.144735658744684e+00   5.980320000000000e-02 -6.03545642e+00  -1.80215568e+00  -2.21807885e+00
C     1.106872004640000e+01   6.427893328668011e+00   4.462326000000000e-01  3.30475549e+00  -2.16659398e+00  -7.35405320e-01
C     1.236435224600000e+01   7.103009698644059e+00   2.136195000000000e-01 -2.22007106e+00   8.47713080e-01   1.27239750e-01
