32
Lattice="9.888 0 0 4.944 8.56325919262053 0 0 0 30 " PBC="1 1 1" Properties=species:S:1:pos:R:3:force:R:3 Energy="-258.06081259"
C    -3.394706759910522e-03   4.335964066561420e-03   3.003781369383513e+00  2.44228860e-01  -2.29922900e-01  -7.35021800e-02
C     1.238377738682153e+00   7.140119207369540e-01   2.997305911655244e+00 -2.09683220e-01   3.39111900e-02   9.14472700e-02
C     2.473549560710058e+00   2.304728766797334e-04   3.002117877407278e+00 -1.23879590e-01  -2.14781000e-02  -5.99119700e-02
C     3.705318411094775e+00   7.114041541210505e-01   3.001466893757123e+00  3.01221350e-01   4.42422100e-02  -1.09466300e-02
C     4.946468194875437e+00  -3.315442632383515e-03   2.995711932871197e+00 -9.37647800e-02   2.92273830e-01   4.83356300e-02
C     6.182641866683938e+00   7.156545759531543e-01   3.000708498478766e+00 -1.35605690e-01  -9.35921600e-02  -2.57474600e-02
C     7.415532360662431e+00  -2.961931704459955e-03   2.999183934137454e+00 -2.23082800e-02   1.62260330e-01   2.05900400e-02
C     8.650761487110298e+00   7.126865795272742e-01   3.001205906799318e+00  7.90158000e-03   1.69914600e-02   1.48800500e-02
C     1.232262693813212e+00   2.140991118453143e+00   3.001811945500219e+00  1.59233950e-01   2.17141700e-02  -5.67887800e-02
C     2.469163029375351e+00   2.855227343582999e+00   2.997390143047912e+00  1.41179460e-01  -4.19430700e-02   5.81010000e-02
C     3.708995363604679e+00   2.137932803309141e+00   3.002734473302998e+00 -1.12713620e-01   1.98910030e-01  -5.73086700e-02
C     4.945446376701654e+00   2.856827938799391e+00   2.997531185301809e+00 -5.08706500e-02  -4.73414800e-02   9.46458700e-02
C     6.180938556035479e+00   2.144132560922268e+00   3.003070743992458e+00 -4.13360000e-03  -1.25220200e-01  -6.97306300e-02
C     7.417624599864745e+00   2.854003693212120e+00   2.997971889930378e+00 -2.52374000e-03   4.00330000e-02   7.09701700e-02
C     8.653521359343918e+00   2.138349940525068e+00   3.001438725563050e+00 -1.71130280e-01   1.08640500e-01  -1.99536100e-02
C     9.884335058575070e+00   2.855506670851127e+00   3.000696450140764e+00  1.69009330e-01  -1.68770340e-01   3.66577000e-03
C     2.474253309299010e+00   4.284622691714075e+00   2.998428764397354e+00 -1.34754890e-01  -1.75025900e-01   7.14575000e-03
C     3.706011025583225e+00   4.994790635693183e+00   3.003186424840607e+00  2.37376790e-01   7.60079800e-02  -3.12491000e-02
C     4.947560471217106e+00   4.285809529560445e+00   3.003965685320944e+00 -2.99061560e-01  -2.03897370e-01  -6.64821900e-02
C     6.176659949348745e+00   4.996793264591494e+00   2.998298713436017e+00  3.30414210e-01  -7.78405000e-03   4.63671900e-02
C     7.417104180616927e+00   4.280767761342394e+00   3.002206757406182e+00 -1.23554400e-02   6.18720000e-02  -4.65502000e-02
C     8.655825709417295e+00   4.992218720103510e+00   3.001695055633927e+00 -1.38059400e-01   1.57739510e-01  -1.58286800e-02
C     9.891293179868498e+00   4.278184394421237e+00   2.998781133056233e+00 -8.51214100e-02   2.01784430e-01   1.04443600e-02
C     1.112617256181848e+01   4.997627257267410e+00   2.997018651350992e+00 -8.25526700e-02  -2.41130770e-01   1.93509900e-02
C     3.708811062780657e+00   6.420658385192747e+00   2.999862468096616e+00 -1.30170920e-01   1.51940190e-01   1.83236600e-02
C     4.944349878476010e+00   7.136815378816789e+00   2.998669163957126e+00 -7.66186900e-02   5.23912300e-02   2.84610100e-02
C     6.178958930985996e+00   6.422599919955607e+00   2.997528760502690e+00  6.05875400e-02   1.10421050e-01  -2.65801000e-03
C     7.416865295186568e+00   7.137663770249600e+00   2.997057694105007e+00 -9.86365400e-02  -1.23330430e-01   4.03171900e-02
C     8.650606022307743e+00   6.424157394087127e+00   2.999955539159557e+00  5.91334200e-02  -1.41184460e-01  -3.00550900e-02
C     9.885855638197112e+00   7.138121363889423e+00   2.995643382403685e+00  6.16131400e-02  -2.12103850e-01   3.14628600e-02
C     1.111970109144942e+01   6.417982185855157e+00   2.999179833246800e+00  1.51528160e-01   3.33141140e-01  -2.53105400e-02
C     1.235714301772418e+01   7.136801815156787e+00   3.000026094608863e+00  6.05172000e-02  -2.31549170e-01  -1.24850700e-02
