32
Lattice="9.86 0 0 4.93 8.53901048131456 0 0 0 30 " PBC="1 1 1" Properties=species:S:1:pos:R:3:force:R:3 Energy="-256.30469383"
C     4.875939887800000e+00   8.440075796776624e+00  -1.619424000000009e-01  8.14403520e-01  -2.47787034e+00   4.35048230e-01
C     1.185687973800000e+00   5.480118327395712e-01  -9.234150000000341e-02  9.07193100e-01   1.47108170e+00  -8.81409550e-01
C     7.367320712200000e+00   8.363415976291376e+00  -1.441419000000010e-01  2.64120620e-01   3.04811888e+00   2.88686260e-01
C     3.702642285800000e+00   6.151952301743248e-01  -1.001858999999996e-01 -1.52251542e+00  -2.34282495e+00   6.25989040e-01
C     9.845676821700000e+00   8.437938567843585e+00  -1.851089999999900e-02  1.08440375e+00  -6.62618500e-02  -7.97834490e-01
C     6.188339806199999e+00   6.131441598570289e-01  -6.178770000000000e-02 -2.72578741e+00   7.29869750e-01  -3.28024300e-02
C     1.230717188750000e+01   8.463472087761090e+00  -2.700659999999999e-02 -2.53480770e-01  -2.57557166e+00   1.68988880e-01
C     8.587696461800000e+00   6.017085462420032e-01  -1.054545000000005e-01  6.32269320e-01  -1.22274449e+00   7.79196000e-02
C     1.190310095300000e+00   2.011268879377358e+00  -5.750039999999856e-02  1.36952604e+00  -1.32749556e+00   1.88644463e+00
C     2.451578814500000e+00   2.682028646206509e+00   2.277135000000000e-01 -1.28798392e+00   9.75383400e-01  -1.66204519e+00
C     3.698894499800000e+00   2.006097569240565e+00   7.805130000000000e-02 -1.96306811e+00  -2.28885230e-01  -2.42620800e-01
C     4.872181354399999e+00   2.718043545317900e+00  -6.909899999996583e-03  3.22451505e+00   1.68569680e-01   3.70162200e-02
C     6.156207495899999e+00   2.043137320389766e+00  -1.556331000000029e-01 -1.38482479e+00  -1.45794843e+00   7.58300450e-01
C     7.390616687700000e+00   2.689148302364524e+00  -1.497674999999994e-01 -1.49744270e+00   1.99921767e+00   4.28291540e-01
C     8.563552674200000e+00   1.964357348992438e+00  -6.217769999999945e-02  2.71225667e+00   2.86292394e+00  -5.77303460e-01
C     9.833328453500000e+00   2.716950125025936e+00   2.662200000000000e-03 -4.43391900e-01  -1.35725373e+00  -8.66276000e-03
C     2.412710497300000e+00   4.131106068211523e+00   2.491962000000000e-01  1.86898148e+00  -1.11719548e+00   5.22798700e-02
C     3.674726358000000e+00   4.825754656149627e+00   1.200645000000000e-01 -4.68212740e-01   1.15360806e+00   1.26579432e+00
C     4.911593450600000e+00   4.114131283888225e+00   8.614200000000000e-02 -1.51322750e-01   1.84033658e+00  -7.99016830e-01
C     6.154642171600000e+00   4.875625892957020e+00  -4.097129999999893e-02 -3.10406070e-01  -2.40949515e+00  -2.16893790e-01
C     7.377595966099999e+00   4.131696626176319e+00  -1.223342999999986e-01  1.62993850e-01  -4.60034340e-01  -6.64752000e-03
C     8.616028629499999e+00   4.791671622769231e+00  -1.169036999999982e-01  6.63609040e-01   2.77080081e+00   8.46763930e-01
C     9.870203670300000e+00   4.115362353029127e+00   1.200126000000000e-01 -2.45270634e+00   5.64722500e-02  -9.57405410e-01
C     1.105341500930000e+01   4.821154776594156e+00   2.537400000000000e-01  9.91447230e-01   1.85136873e+00  -6.74507580e-01
C     3.686987465200000e+00   6.284716836686288e+00   1.455735000000000e-01 -8.86060170e-01  -4.50878920e-01  -1.32614857e+00
C     4.899738033099999e+00   6.970432594981055e+00  -1.241456999999997e-01  1.03556820e-01   1.04107809e+00   9.46448830e-01
C     6.168549109999999e+00   6.265073013857257e+00  -1.245587999999991e-01 -2.92717079e+00   3.83555890e-01   1.47387600e-02
C     7.341591683099999e+00   6.978173891102013e+00  -1.680987000000016e-01  3.18147489e+00  -6.20108040e-01  -2.43811510e-01
C     8.608915526899999e+00   6.267488272971526e+00  -1.492836000000004e-01  3.23962310e-01  -5.58637590e-01   5.14329410e-01
C     9.852570637900001e+00   7.013106641415274e+00  -2.910540000000239e-02 -7.41240580e-01  -1.27884844e+00   1.93214430e-01
C     1.108509134390000e+01   6.271921897992952e+00   1.381914000000000e-01 -1.20932903e+00   3.91487140e-01  -4.93238000e-03
C     1.227464083880000e+01   7.023867758592485e+00   1.243761000000000e-01  1.92022982e+00  -7.91818360e-01  -1.08212090e-01
