26
Lattice="8.88768389401873 1.33226762955019e-15 0 4.44384194700937 7.69696003302603 0 0 0 30 " PBC="1 1 1" Properties=species:S:1:pos:R:3:force:R:3 Energy="-207.31318428"
C     3.318762487124363e-01   4.621280971676102e-01   3.741931200000000e+00  1.41886880e-01  -7.59916830e-01  -1.90897328e+00
C     7.144956441874653e+00   7.550343255354940e+00   4.087451700000000e+00  2.17038530e-01  -3.51420340e-01  -1.47225980e+00
C     4.075749584727427e+00   2.372006808765235e-01   4.093318500000001e+00  1.23418607e+00  -2.41625130e-01  -2.77438680e-01
C     9.580109970423491e+00   6.954733938559868e+00   4.156015800000000e+00 -4.86354170e-01  -3.63935090e-01  -1.78571686e+00
C     1.093511416926335e+01   7.294253310929593e+00   3.754795200000000e+00 -1.52958951e+00   2.90746381e+00   5.60390380e-01
C     1.194290113215513e+01   6.384178688480048e+00   3.601232400000000e+00  2.02562058e+00  -1.96013240e+00  -4.35044300e-02
C     4.455026210813736e+00   6.783423545837761e+00   3.445532400000000e+00  1.00138480e-01   4.30786000e-03   1.90052532e+00
C     5.528651891633878e+00   5.791747292542161e+00   3.557366400000000e+00 -3.12768815e+00   1.10402520e-01  -1.90589930e-01
C     6.803457275022643e+00   6.164928549907088e+00   3.920903700000000e+00  2.83273169e+00   5.44984900e-02  -2.66978360e-01
C     7.878801345083769e+00   5.172132773775125e+00   3.952375500000000e+00 -2.51008981e+00  -9.60592470e-01   6.36957650e-01
C     9.214077552012037e+00   5.540959552972680e+00   4.131903900000000e+00  6.11995400e-01   1.92881739e+00   7.10024400e-01
C     1.025200758362870e+01   4.614470778411158e+00   4.202602500000000e+00  1.32602893e+00  -2.31860297e+00  -2.86493721e+00
C     1.163061631551041e+01   4.998498283971960e+00   3.793076400000000e+00 -1.62658459e+00   5.57724000e-03   1.17707709e+00
C     3.742601777842178e+00   4.025838832852881e+00   3.682700700000000e+00  1.22657212e+00  -1.49435514e+00  -3.61898550e-01
C     5.133311402419563e+00   4.426035573257505e+00   3.496759500000000e+00  1.29637640e-01  -1.95456265e+00   8.32162810e-01
C     6.143469288208928e+00   3.369218484805610e+00   3.602609700000000e+00 -5.94408370e-01   7.79341610e-01   2.79210320e-01
C     7.499174014324582e+00   3.757352626420818e+00   3.852606000000000e+00  7.31196980e-01   1.06230571e+00  -5.64521610e-01
C     8.546929780392210e+00   2.776671788406475e+00   3.916544400000000e+00 -8.97408770e-01   8.87928940e-01  -7.08315690e-01
C     9.909740520853358e+00   3.174817288963103e+00   4.009895700000000e+00  1.49163800e-01   2.06353330e+00   1.77351560e+00
C     2.054341827788574e+00   2.229256371082445e+00   4.093920900000000e+00  6.79595850e-01  -1.08854778e+00  -2.68199643e+00
C     3.430166314922503e+00   2.589328012185075e+00   3.838661400000000e+00 -5.51369930e-01   1.95796671e+00   6.88583730e-01
C     4.437592037851430e+00   1.600532038302302e+00   3.802814400000000e+00 -1.17931615e+00  -4.93321800e-01   5.97654190e-01
C     5.771264506655424e+00   1.962055556975391e+00   3.629942400000000e+00  1.63035376e+00   1.47998554e+00  -1.43362370e-01
C     6.826657281757121e+00   1.013810170345070e+00   3.585844500000000e+00 -9.96143030e-01  -7.49516800e-01   9.73230020e-01
C     8.170194990842704e+00   1.437724323386136e+00   3.676485600000000e+00  1.22591112e+00  -8.30035730e-01   6.21633460e-01
C     1.716556201896935e+00   8.447848511166695e-01   3.827175900000000e+00 -7.63105350e-01   3.24436030e-01   2.51952822e+00
