26
Lattice="8.88768389401873 1.33226762955019e-15 0 4.44384194700937 7.69696003302603 0 0 0 30 " PBC="1 1 1" Properties=species:S:1:pos:R:3:force:R:3 Energy="-208.74872131"
C     1.300949398999357e+01   7.363632631065609e+00  -6.022859999999852e-02  1.81422428e+00  -2.35639448e+00  -1.24476200e-01
C     9.273250108153167e+00   7.115804295658062e+00  -1.626782999999996e-01  1.04542155e+00   1.20754788e+00   7.55085900e-01
C     1.065931556186850e+01   6.712177328046469e+00  -2.346512999999995e-01 -7.99509360e-01   1.94445006e+00  -2.70739180e-01
C     1.094652417658014e+01   5.352773806293600e+00  -2.500691999999987e-01  2.32858935e+00  -1.19538510e-01   2.67020330e-01
C     6.896960286955233e+00   6.553758573678609e+00   5.963010000000000e-02 -2.40440660e-01  -6.85904520e-01   5.42190100e-02
C     8.263657255558421e+00   6.158036691896227e+00  -9.406169999999747e-02 -5.82494800e-01  -1.16140482e+00  -3.87020910e-01
C     8.591302743330861e+00   4.747864098755077e+00  -2.282091000000008e-01  6.49705390e-01   1.40187240e+00   7.12729470e-01
C     9.977054817321614e+00   4.358675396646159e+00  -1.902240000000006e-01 -1.45187029e+00  -2.86966200e-01  -1.59246950e-01
C     1.032100405020930e+01   3.000467751573151e+00  -3.490289999999874e-02 -1.07563831e+00  -1.53888519e+00   3.31310020e-01
C     4.464331393117290e+00   5.956494718355488e+00  -8.152469999999923e-02  9.77732590e-01   1.67292850e-01   6.78802000e-03
C     5.871453280883570e+00   5.567142070997931e+00  -1.055909999999827e-02 -1.27344391e+00  -5.66918250e-01  -4.47637760e-01
C     6.193694256965650e+00   4.166685658381051e+00  -1.308077999999995e-01 -2.38882170e-01   6.28061190e-01   1.84457980e-01
C     7.575242012113501e+00   3.810227663042906e+00  -1.867886999999975e-01 -1.09846246e+00  -2.64257409e+00   1.98732600e-02
C     7.896029451902864e+00   2.362161627190862e+00  -1.575837000000000e-01  1.75665690e-01   2.60232549e+00   2.68168880e-01
C     9.234924501046292e+00   2.003236294345499e+00   1.230840000000000e-02  2.43125049e+00  -4.58486060e-01  -4.48235910e-01
C     3.448553912356882e+00   4.974795649498776e+00  -1.910600999999978e-01 -2.72462000e-02  -5.01581490e-01   8.08646210e-01
C     3.789503551913339e+00   3.588328307797222e+00  -2.149710000000127e-02  3.80226730e-01  -6.02863100e-02  -7.43783410e-01
C     5.138812344671217e+00   3.171087496071765e+00  -9.786090000000058e-02  1.64936453e+00   7.79337910e-01   3.75009600e-01
C     5.516938321614951e+00   1.792897696095274e+00  -8.823059999999927e-02 -5.19076270e-01   2.80832450e-01  -1.43604530e-01
C     6.884719098834609e+00   1.404108851059914e+00  -1.675121999999973e-01 -6.36427150e-01  -2.95055040e-01  -6.08731300e-02
C     7.259805043511019e+00   3.707841161331840e-02  -2.107667999999983e-01 -3.02749908e+00  -5.08732610e-01   3.68681560e-01
C     2.802902559807900e+00   2.577191599548972e+00   7.338930000000000e-02 -1.35405258e+00   1.03228212e+00  -2.80349600e-01
C     3.126945647136102e+00   1.210855425897082e+00   1.397403000000000e-01 -1.66469790e-01  -7.95357300e-01   1.04933340e-01
C     4.493680788343943e+00   8.187453426087768e-01   4.763100000000000e-03 -5.27238300e-02  -9.40375270e-01  -4.05521510e-01
C     7.118301121421777e-01   5.906489339341384e-01   8.629679999999999e-02  2.80384190e-01   2.16918011e+00   2.37460820e-01
C     2.077366704748260e+00   2.127416661411910e-01   2.107980000000000e-01  8.11672060e-01   7.05277700e-01  -1.02289530e+00
