32
Lattice="9.86 0 0 4.93 8.53901048131456 0 0 0 30 " PBC="1 1 1" Properties=species:S:1:pos:R:3:force:R:3 Energy="-255.41683"
C     1.356801569000000e-01   4.853120989276560e-02  -1.140092999999993e-01  6.42513480e-01   4.01440100e-01  -6.32169890e-01
C     1.386526609600000e+00   7.834762421870384e-01  -1.322820000000000e-01 -4.02772750e-01  -7.46836610e-01  -1.37242000e-02
C     2.608777386100000e+00   1.323334003039048e-01  -1.504830000000013e-02  1.37486728e+00  -4.03015170e+00   9.62241800e-02
C     3.883205557100000e+00   7.805288319396567e-01  -2.400599999997866e-03 -8.15050650e-01   8.21189500e-01  -1.15627920e+00
C     5.128819899399999e+00   3.377878843699360e-02  -3.381779999999779e-02 -1.16640164e+00   2.98405677e+00   8.76663560e-01
C     6.347639987499999e+00   7.692926896094441e-01   4.744320000000000e-02  2.25480100e-02  -4.25053390e-01  -6.81327870e-01
C     7.586257723100000e+00   5.664395296960400e-02  -3.465600000000180e-02 -3.55006200e-01   1.31884208e+00  -1.12599022e+00
C     8.808233553499999e+00   8.011585689187080e-01  -2.362538999999977e-01 -2.70255700e-01  -3.90959580e-01   1.24725060e+00
C     1.395745561700000e+00   2.178853108134903e+00  -2.738210999999993e-01 -8.40597700e-01   1.14580436e+00   6.78341300e-01
C     2.572145415500000e+00   2.935676878471137e+00  -2.629505999999999e-01  2.79599044e+00  -2.78239114e+00   7.22122800e-02
C     3.855674465100000e+00   2.218045970776636e+00  -1.798131000000005e-01  1.50451960e-01   2.43292300e-02   5.10407500e-01
C     5.107665811700000e+00   2.950128982928327e+00  -1.324305000000017e-01 -2.25430500e-01  -3.80991385e+00   1.10224376e+00
C     6.359710353000001e+00   2.189053383103787e+00   2.329800000000000e-02 -2.17949016e+00  -5.48429440e-01  -1.03736126e+00
C     7.561911509700000e+00   2.841780723771590e+00  -1.322862000000029e-01  1.75127002e+00   3.53662467e+00   9.77978580e-01
C     8.834762179299998e+00   2.261479306022737e+00  -2.495930999999985e-01 -2.06603962e+00  -4.50027866e+00   4.65256230e-01
C     1.003585403670000e+01   2.899348170724606e+00  -2.243268000000000e-01 -1.17787780e-01   2.51690273e+00  -1.46762053e+00
C     2.617362981099999e+00   4.314865402960913e+00  -2.438310000000001e-01  1.19330468e+00   1.06099044e+00   8.59072000e-03
C     3.865132719400000e+00   5.006274461103115e+00  -1.868598000000006e-01 -1.67955150e-01   1.33226580e+00   5.48572740e-01
C     5.111343345199999e+00   4.305358837203424e+00  -2.839889999999912e-02 -8.00558440e-01   1.59768068e+00  -1.14178257e+00
C     6.353142508399999e+00   4.965876573302444e+00   1.510440000000000e-02 -3.44827140e-01   2.56181778e+00   7.77646500e-01
C     7.602883556499999e+00   4.291196461371820e+00   2.195160000000000e-02 -1.82755709e+00  -4.37901940e-01  -1.61189835e+00
C     8.784909230499999e+00   5.043306527142884e+00  -1.704663000000011e-01 -1.28602385e+00   8.82513440e-01   1.30030838e+00
C     9.939726333099999e+00   4.351703206512261e+00  -3.224285999999985e-01  6.04100361e+00  -1.52024472e+00   1.27473621e+00
C     1.130015194510000e+01   5.029048429003799e+00  -1.977720000000005e-01 -5.01453373e+00   1.54984923e+00  -3.60313520e-01
C     3.813538987599999e+00   6.467086532870162e+00  -1.683033000000016e-01  1.62764520e-01  -1.90741679e+00   1.10532700e-01
C     5.013356094900000e+00   7.158361870108249e+00  -6.541710000000123e-02  2.84951647e+00   2.70920810e-01   1.62825640e-01
C     6.281594108599999e+00   6.426282358950854e+00   4.486530000000000e-02  4.12177850e-01  -5.71449330e-01  -6.15123320e-01
C     7.541932881899999e+00   7.096806363700654e+00   1.853310000000000e-02 -1.96541588e+00   4.47385395e+00   5.25099380e-01
C     8.761131791200000e+00   6.476015776129099e+00   1.872180000000000e-02  9.58507340e-01  -1.04036490e+00  -1.28865569e+00
C     9.992948246699999e+00   7.211444287196749e+00  -5.777069999999895e-02 -1.45739000e-01  -2.84888468e+00   6.41294460e-01
C     1.118529946060000e+01   6.456658864052197e+00  -4.666980000000009e-02  3.29849026e+00   2.13202530e-01  -1.35287284e+00
C     1.247249475400000e+01   7.195746426500632e+00  -1.546157999999984e-01 -1.66196295e+00  -1.13200737e+00   1.10893475e+00
