32
Lattice="9.86 0 0 4.93 8.53901048131456 0 0 0 30 " PBC="1 1 1" Properties=species:S:1:pos:R:3:force:R:3 Energy="-254.70145185"
C     9.810180525900000e+00   4.048968216333040e-02   3.647514600000000e+00  1.97165120e+00   1.50784350e+00   1.14923249e+00
C     1.216522510900000e+00   7.943234325898871e-01   3.834958200000000e+00 -3.40473500e-01  -2.16962154e+00  -8.33592530e-01
C     2.456191914100000e+00   3.526363696936080e-02   3.576983100000000e+00  4.79841980e-01   4.83794360e-01   3.45486560e-01
C     3.725464143200000e+00   7.322425208674576e-01   3.598335300000000e+00 -4.91100400e-01   5.71637280e-01  -5.33451770e-01
C     5.023534079899999e+00   1.043672870808568e-01   3.352932000000000e+00 -5.16360873e+00  -1.31803799e+00   1.44334394e+00
C     6.159968346399999e+00   8.645406550580800e-01   3.544173900000000e+00  1.09271770e+00  -4.33988760e+00  -3.93897030e-01
C     7.343419480599999e+00   2.137519259395520e-02   3.603726000000000e+00  1.61549510e+00   2.92499375e+00   8.41895080e-01
C     8.583580355500001e+00   7.575693113412425e-01   3.781151100000000e+00  2.31973140e-01  -2.23500562e+00  -5.30719020e-01
C     1.106012158410000e+01   2.202575674709811e+00   4.101004799999999e+00  1.75245204e+00  -8.00183010e-01  -9.85280270e-01
C     2.465780813400000e+00   2.884048911037695e+00   4.018765500000000e+00 -7.02240240e-01  -2.46385240e-01  -2.35869260e-01
C     3.686376243800000e+00   2.155732968749360e+00   3.778360500000000e+00 -9.25364810e-01   7.39693170e-01  -2.49030360e-01
C     4.838611209600000e+00   2.923726277134062e+00   3.547965300000000e+00  3.40086160e+00   9.50477570e-01   7.69256370e-01
C     6.129290879100000e+00   2.226404466575089e+00   3.587318100000000e+00 -4.23225570e-01   1.32076299e+00  -9.21019390e-01
C     7.409243756000000e+00   2.847344486830043e+00   3.564387900000000e+00 -4.67186620e-01  -4.75120170e-01   1.91665437e+00
C     8.602900729700000e+00   2.135242332251028e+00   3.905344800000000e+00  8.87412890e-01   2.34529241e+00  -1.21804315e+00
C     9.866818535100000e+00   2.924253731811412e+00   4.009208700000000e+00 -2.61320538e+00  -1.44836357e+00   1.66049400e-01
C     1.228240011650000e+01   4.308630559068836e+00   3.929021100000000e+00  7.58556620e-01  -8.05948300e-02  -2.33138250e-01
C     3.617264003500000e+00   5.017770787082654e+00   3.681379500000000e+00  3.42509119e+00   1.52860571e+00  -4.34634260e-01
C     4.939296501000000e+00   4.398699443881143e+00   3.519726600000000e+00 -1.61680080e+00  -3.16935131e+00  -4.19569680e-01
C     6.230683822700000e+00   4.994419325903207e+00   3.269339700000000e+00 -2.59072965e+00   1.46108257e+00   2.24973134e+00
C     7.443067302799999e+00   4.221307820026897e+00   3.506948700000000e+00 -2.64923209e+00   2.12715733e+00  -1.72311164e+00
C     8.601520773399999e+00   4.941996205813867e+00   3.503448300000000e+00  2.01374634e+00   2.88935958e+00   8.69444130e-01
C     9.812887293100001e+00   4.328756494429568e+00   3.865993500000000e+00  1.43923022e+00  -4.22586540e-01  -5.08235800e-01
C     1.106749651900000e+01   5.040217369321534e+00   3.854025900000000e+00 -1.31398809e+00   1.47723620e-01  -4.34428700e-01
C     1.356668296310000e+01   6.444098065026221e+00   3.594851400000000e+00 -8.61871660e-01   2.40358160e-01   3.32442350e-01
C     4.950816136199999e+00   7.177116867336416e+00   3.482382000000000e+00 -1.93109493e+00  -5.43751170e-01   3.69789250e-01
C     6.156638969499999e+00   6.493061946580009e+00   3.380257500000000e+00  1.00335871e+00  -3.53192125e+00  -9.51450870e-01
C     7.387955720199999e+00   7.120478123163205e+00   3.354786600000000e+00 -4.31026310e-01   2.75019605e+00   7.29352040e-01
C     8.581859292499999e+00   6.399959578294682e+00   3.379411800000000e+00  1.59617214e+00   6.78929000e-01  -1.49898270e-01
C     9.806643990400000e+00   7.201789313437119e+00   3.396471600000000e+00  2.34670395e+00  -2.01185103e+00   2.05192540e-01
C     1.104537703870000e+01   6.437992843313231e+00   3.580047000000000e+00  1.00217365e+00   1.02813177e+00   7.30804680e-01
C     1.234383679050000e+01   7.168516973711694e+00   3.677513400000000e+00 -2.49628970e+00  -9.03377950e-01  -1.36330430e+00
