26
Lattice="8.88768389401873 1.33226762955019e-15 0 4.44384194700937 7.69696003302603 0 0 0 30 " PBC="1 1 1" Properties=species:S:1:pos:R:3:force:R:3 Energy="-208.56326277"
C     1.259549869719848e+01   6.798617498876181e+00   7.845660000000000e-02 -3.34512733e+00  -1.86544911e+00  -2.38570510e-01
C     8.737521675613813e+00   6.595777663935184e+00  -1.733949000000017e-01  7.06054480e-01   7.42803450e-01   1.05294084e+00
C     1.012225850948720e+01   6.227204653509818e+00  -1.068629999999970e-02  7.09289450e-01  -2.13830992e+00  -9.73899760e-01
C     1.051089008424632e+01   4.772114217995196e+00  -2.625630000000001e-02 -1.63781722e+00   2.68688665e+00   1.04317710e-01
C     6.364249800761241e+00   5.980246767312065e+00  -3.080999999980349e-04 -5.41448870e-01   1.86399190e+00   9.95676000e-03
C     7.679054338339231e+00   5.625327086405514e+00  -1.512504000000021e-01  3.25166542e+00  -1.50488573e+00   6.67317600e-02
C     8.089818556821301e+00   4.230339286920351e+00  -1.252913999999983e-01 -1.51428383e+00   9.48286200e-02   4.84387420e-01
C     9.431640009172684e+00   3.828180206556078e+00  -1.028064000000022e-01  1.62772751e+00   5.09969720e-01   1.78984860e-01
C     9.819362462808432e+00   2.468133680762303e+00  -5.372909999999820e-02 -7.94083990e-01  -1.18307106e+00   3.42639290e-01
C     4.027882700127432e+00   5.392611347168872e+00   1.424268000000000e-01 -9.45944700e-01   4.92792420e-01   2.18968790e-01
C     5.388314073781915e+00   4.999424767050772e+00   1.924923000000000e-01 -9.96349260e-01  -5.63599450e-01  -8.26436820e-01
C     5.713895174794042e+00   3.612708890509849e+00   1.649304000000000e-01 -5.59181200e-02   6.34425250e-01   2.05400110e-01
C     7.070778807221804e+00   3.204236224741768e+00   3.987030000000000e-02 -2.34724190e-01   3.94643326e+00  -2.79431150e-01
C     7.391715071375302e+00   1.906101659371703e+00   4.314300000000000e-02  2.34158673e+00  -4.56915159e+00  -2.48698200e-02
C     8.803601468682734e+00   1.457331405427357e+00  -1.041179999999997e-02 -1.34089742e+00   1.04102484e+00  -1.86154600e-01
C     2.972980568357684e+00   4.405534258399998e+00   1.141683000000000e-01  5.96614780e-01   3.13366070e-01   1.95466220e-01
C     3.319229889380711e+00   3.021195664933941e+00   1.917534000000000e-01 -2.46758140e-01   1.17969174e+00  -6.13048910e-01
C     4.674158364700905e+00   2.663482680262904e+00   2.115915000000000e-01  6.07882450e-01  -1.14712031e+00   1.15869740e-01
C     5.015704501161848e+00   1.277336378764201e+00   1.608354000000000e-01 -3.34849220e-01  -5.77482030e-01  -9.80180300e-01
C     6.382593443740555e+00   8.869934405291834e-01   8.014380000000000e-02  8.35929300e-02  -1.89929980e-01   6.12438800e-02
C     1.117300027197446e+01   7.190933398875689e+00   1.410120000000000e-02  5.56139990e-01   1.98942460e-01   5.98845210e-01
C     2.297627909446521e+00   2.078150344499887e+00   4.610610000000000e-02 -7.32159080e-01  -1.21528973e+00  -3.27292750e-01
C     2.598412816778134e+00   6.735642819181129e-01  -6.683849999999936e-02  1.01899922e+00   7.75420110e-01   6.36940510e-01
C     3.981225955906050e+00   2.959032398765251e-01  -4.227870000000067e-02 -1.00087480e-01  -3.77054700e-01   1.23422000e-01
C     2.297280089014502e-01   6.573165380819850e-02   1.255770000000000e-02  1.22212829e+00   1.88569936e+00   8.77266100e-02
C     6.033971647705909e+00   7.391315671448707e+00  -3.544919999999863e-02  9.87676300e-02  -1.03493224e+00  -3.39570900e-02
