32
Lattice="9.86 0 0 4.93 8.53901048131456 0 0 0 30 " PBC="1 1 1" Properties=species:S:1:pos:R:3:force:R:3 Energy="-253.41735291"
C     4.946988681400000e+00   8.488633392211772e+00  -4.452008999999997e-01 -2.34023659e+00   3.18869594e+00   5.63331120e-01
C     1.192312858500000e+00   7.337401779155448e-01  -4.652741999999996e-01  2.09442925e+00  -2.52548519e+00   5.21236750e-01
C     2.457266949900000e+00   3.538574481922480e-02  -4.665683999999999e-01 -1.29192824e+00  -3.48516891e+00   2.12895150e-01
C     3.647248855100000e+00   6.380940384082263e-01  -2.200805999999993e-01  3.78859494e+00   2.76993785e+00  -7.40337710e-01
C     9.866976048600000e+00   8.509332295175712e+00  -1.838586000000006e-01 -4.00796790e-01   1.45458010e+00   6.79521600e-02
C     6.150593606300000e+00   7.506381965346264e-01  -3.000906000000008e-01  3.13068910e-01  -4.96022738e+00   1.91182178e+00
C     1.228351671220000e+01   8.517614281440263e+00  -7.679100000000005e-02  1.88147299e+00   8.97747210e-01  -1.84994527e+00
C     8.584390995400000e+00   7.117917615480671e-01  -3.559385999999982e-01  1.19344429e+00  -1.95226640e+00  -6.92058200e-02
C     1.236675660700000e+00   2.069394606835556e+00  -1.134209999999989e-01  1.15173948e+00   1.83945725e+00  -1.09922426e+00
C     2.475163194999999e+00   2.811667988703975e+00   7.517100000000000e-03  1.03638437e+00  -1.29376870e-01   1.25930895e+00
C     3.790881989400000e+00   2.104553213976013e+00  -1.271228999999998e-01 -4.41978254e+00  -8.79935930e-01   6.42146330e-01
C     4.961501418199999e+00   2.807134798820352e+00  -8.800229999999942e-02  1.86896591e+00   8.95361350e-01  -7.69066850e-01
C     6.241954492900000e+00   2.088455215248803e+00  -3.230462999999979e-01 -3.34622670e+00   3.52217940e+00   4.67099640e-01
C     7.409190216200000e+00   2.828223080662179e+00  -3.715788000000018e-01  1.85517755e+00  -5.16169260e-01  -1.15394035e+00
C     8.650857896300000e+00   2.128445621469367e+00  -5.010155999999988e-01 -3.41544170e-01  -1.22083625e+00   1.89657767e+00
C     9.900441726699999e+00   2.771854425390451e+00  -2.034791999999968e-01 -2.44479714e+00   1.74564466e+00  -5.50558500e-02
C     2.439639981400000e+00   4.204736162388361e+00   4.021653000000000e-01  1.23526170e+00   1.30619406e+00  -1.38494186e+00
C     3.786576226000000e+00   4.995775747717955e+00   3.420894000000000e-01 -2.84958775e+00  -1.36054431e+00  -1.88840009e+00
C     4.948004754399999e+00   4.272690974029879e+00  -3.674610000000200e-02 -1.03697598e+00  -2.64779881e+00   2.14342300e-01
C     6.124338348999999e+00   4.861876890622752e+00  -4.423983000000007e-01  1.71436459e+00   4.25858886e+00   1.55172772e+00
C     7.394032388899999e+00   4.222501659082107e+00  -4.407882000000001e-01 -8.51564950e-01   1.97522530e-01   4.52947400e-01
C     8.603909407700000e+00   4.932026313347734e+00  -2.178099000000024e-01 -7.73412800e-02  -5.35575370e-01  -6.85996320e-01
C     9.762045090499999e+00   4.172154628610769e+00   1.268400000000000e-02  4.38995620e+00   1.74605040e+00   7.36623710e-01
C     1.105471421220000e+01   4.964183629084680e+00   3.496605000000000e-01 -8.39184470e-01  -1.40936392e+00  -5.54190740e-01
C     3.687569402400000e+00   6.382083757585536e+00   1.515480000000000e-02  2.67818077e+00   6.75131870e-01   1.14504565e+00
C     4.956215028500000e+00   7.135696774591185e+00  -2.647025999999997e-01 -5.41647970e-01  -3.97525684e+00  -1.25182100e-02
C     6.168104670499999e+00   6.334862944241030e+00  -3.541382999999989e-01  9.21346940e-01   8.12086320e-01  -1.54056794e+00
C     7.461974592299999e+00   7.066227484050935e+00  -5.100824999999993e-01 -2.11986751e+00   3.79666280e-01   1.02466882e+00
C     8.667824244799998e+00   6.327931573264101e+00  -2.970335999999989e-01  1.05865293e+00   2.96953298e+00   1.15017593e+00
C     9.961867406800000e+00   7.137119459127257e+00   2.923680000000000e-02 -4.75999563e+00  -1.81148690e+00  -1.45001259e+00
C     1.108346355650000e+01   6.428301749539269e+00   3.318285000000000e-01  2.45162712e+00  -2.36162985e+00  -6.39300940e-01
C     1.236114809110000e+01   7.093578788519423e+00   1.502889000000000e-01 -1.97119021e+00   1.11274511e+00   7.48037200e-02
