32
Lattice="9.86 0 0 4.93 8.53901048131456 0 0 0 30 " PBC="1 1 1" Properties=species:S:1:pos:R:3:force:R:3 Energy="-255.15162038"
C     9.709256622500000e+00   5.010811749711769e-01   3.713923200000000e+00  2.32702316e+00  -1.70329180e+00   3.42222880e-01
C     1.173068159800000e+00   1.167803953815699e+00   3.631614600000000e+00 -1.51601572e+00  -2.43042088e+00   1.18271150e+00
C     2.398252089100000e+00   4.595704833247528e-01   3.953682900000000e+00 -1.69386360e-01  -1.12585718e+00  -1.24457627e+00
C     3.612834398500000e+00   1.187764659323642e+00   3.782746800000000e+00  4.49053140e-01  -2.33724874e+00   1.54485160e+00
C     4.897030329200000e+00   4.750553810994992e-01   3.935263800000000e+00 -3.87756738e+00  -1.13999816e+00  -2.22236020e-01
C     6.086496753600000e+00   1.148368995183010e+00   3.869971800000000e+00  1.03010485e+00  -1.74451462e+00   4.03481820e-01
C     7.258207339299998e+00   3.890700218789384e-01   3.771474900000000e+00  2.76950422e+00   7.33521070e-01  -2.02947170e-01
C     8.485832752499999e+00   1.172425864018209e+00   3.679686000000000e+00  2.62742400e-01  -3.42914980e-01  -8.49045010e-01
C     1.101083469790000e+01   2.518519233250020e+00   3.414494400000000e+00  7.37768300e-01   3.86963277e+00  -2.49801430e-01
C     2.401311449900000e+00   3.292422903128559e+00   3.420330900000000e+00 -8.69729480e-01  -9.01648500e-02   3.75810950e-01
C     3.598944813700000e+00   2.579471031616679e+00   3.695550900000000e+00  7.97755620e-01   4.27854750e-01  -4.36048470e-01
C     4.858563018200000e+00   3.209348492580630e+00   3.904241100000000e+00 -2.61463300e-02   2.45763331e+00   4.61053250e-01
C     6.131598020500000e+00   2.512135127454753e+00   4.022274900000000e+00 -2.12941449e+00   2.78846595e+00  -1.67019518e+00
C     7.267902677300000e+00   3.301718811497507e+00   3.788702999999999e+00  2.31139676e+00  -7.70765610e-01  -1.72495100e-02
C     8.544516563799998e+00   2.594614539752435e+00   3.497765400000000e+00 -2.24257270e+00   3.63773510e-01   1.63716894e+00
C     9.767130779900000e+00   3.284825916284713e+00   3.419760000000000e+00  2.51516260e-01   5.36134670e-01   3.20831340e-01
C     1.226952187190000e+01   4.740476839337439e+00   3.394286100000000e+00 -1.80156473e+00  -1.86995959e+00   1.06943032e+00
C     3.595841674499999e+00   5.363580217897502e+00   3.739018800000000e+00  1.91194198e+00   2.17903095e+00   3.07170900e-02
C     4.800707989199999e+00   4.676319240266273e+00   3.974579400000000e+00  2.39205687e+00  -8.94377220e-01  -1.28468870e-01
C     6.069330395000000e+00   5.442788676840715e+00   4.137850500000000e+00 -2.05076667e+00   3.19371620e-01  -7.37652760e-01
C     7.267331931200000e+00   4.713177366662565e+00   3.924527700000001e+00  2.00406070e-01   2.96462470e-01   3.86325040e-01
C     8.517475020799999e+00   5.400449018056893e+00   3.861008700000000e+00  7.70210300e-01   1.06528706e+00   4.12144770e-01
C     9.744996065899999e+00   4.750112771103700e+00   3.616777500000000e+00  1.16432418e+00  -2.22313760e+00  -1.21381898e+00
C     1.101004816570000e+01   5.441149101438450e+00   3.511250100000000e+00 -8.08625720e-01  -4.73813530e-01   8.02430680e-01
C     1.355577563390000e+01   6.817773190300873e+00   3.791316000000000e+00 -3.21002307e+00  -5.69629120e-01  -5.19405910e-01
C     4.837896162400000e+00   7.587179619529911e+00   3.885667800000000e+00  6.63923100e-01   1.61371758e+00   4.26378960e-01
C     6.058370906400000e+00   6.942155405606220e+00   4.151576400000000e+00  3.41943340e-01  -4.20070709e+00  -4.98391890e-01
C     7.321613203200000e+00   7.502602428527607e+00   4.158576300000000e+00  3.31330070e-01   4.36017088e+00  -6.43355920e-01
C     8.562040150200000e+00   6.828223999837240e+00   4.077329700000000e+00 -6.97595320e-01  -3.63257880e-01  -4.18344290e-01
C     9.762306084699999e+00   7.580386238962337e+00   3.984239400000000e+00  2.00257369e+00  -9.25959590e-01  -5.11458400e-01
C     1.101704368780000e+01   6.811688035262510e+00   3.792603300000000e+00 -2.80991600e-02   1.54650686e+00  -5.13621170e-01
C     1.229029230700000e+01   7.506134334042344e+00   3.719707200000000e+00 -1.28806717e+00   6.48455000e-01   6.81058090e-01
