32
Lattice="9.86 0 0 4.93 8.53901048131456 0 0 0 30 " PBC="1 1 1" Properties=species:S:1:pos:R:3:force:R:3 Energy="-254.09621578"
C     9.627469845200000e+00   9.594611494548081e-01   3.857621100000000e+00  6.45647850e-01   7.82198150e-01  -1.26567732e+00
C     1.023880788900000e+00   1.657602705019862e+00   3.736357200000000e+00 -2.36835389e+00   2.88573942e+00   6.54535210e-01
C     2.236967878600000e+00   9.647471385023472e-01   3.804806700000000e+00  1.47463380e-01   1.53042866e+00  -1.20397783e+00
C     3.403585478500000e+00   1.702676213398961e+00   3.400473300000000e+00  1.66674500e-01  -2.02037900e-02   2.09023782e+00
C     4.631182642800000e+00   9.825062309382320e-01   3.476766900000000e+00 -1.48702123e+00  -1.56373740e+00  -2.09731730e-01
C     5.795452083699999e+00   1.673704717081998e+00   3.381340800000000e+00  5.18686333e+00  -1.95237380e-01   1.03736735e+00
C     7.119615327200000e+00   1.004050837500110e+00   3.599775000000000e+00 -3.71836686e+00  -1.80383660e+00  -9.70767940e-01
C     8.347181136700000e+00   1.596727586967313e+00   3.640611300000000e+00  2.34176284e+00   1.60687326e+00   7.64657370e-01
C     1.082383260010000e+01   3.164622948878591e+00   3.600269700000000e+00 -5.23398460e-01  -2.86271306e+00  -6.56215900e-01
C     1.204278042450000e+01   3.849552178918046e+00   3.429146700000000e+00  1.61710720e-01   1.17368440e-01   8.94689460e-01
C     3.403816596900000e+00   3.168371232918892e+00   3.439775100000000e+00  1.27950021e+00  -2.75736051e+00  -2.36881110e-01
C     4.676831386200000e+00   3.785459476326528e+00   3.577519200000000e+00 -6.57795780e-01   3.25280435e+00  -1.40553849e+00
C     5.900311211700000e+00   3.052821855444161e+00   3.447232200000000e+00 -2.16012961e+00   1.15625057e+00   8.23759280e-01
C     7.124418527600000e+00   3.696505359332386e+00   3.626824800000000e+00  6.70733340e-01   2.25544232e+00  -8.03943970e-01
C     8.369731942700000e+00   2.992255508010569e+00   3.608814300000000e+00 -1.21702741e+00   2.58496115e+00   1.62943900e-02
C     9.520511424599999e+00   3.821235880875213e+00   3.566858400000000e+00  3.10675431e+00  -2.77181698e+00  -4.84119190e-01
C     1.208086220950000e+01   5.257057940741807e+00   3.489669900000000e+00  3.48301176e+00   1.42525120e-01  -5.85902170e-01
C     1.332555789560000e+01   6.054637810368347e+00   3.613629300000000e+00 -6.13935220e-01  -1.61010855e+00   1.86977430e-01
C     4.684955976900000e+00   5.301929757693369e+00   3.640986000000000e+00  3.09111300e-02  -1.81819565e+00   7.25239000e-01
C     5.945690777099999e+00   5.946569716145459e+00   3.854118900000000e+00 -9.42853270e-01  -1.12542483e+00  -2.39319910e-01
C     7.122802818699999e+00   5.162307714214050e+00   3.712933200000000e+00  2.24026722e+00  -3.81965600e-02   9.23330110e-01
C     8.418462527699999e+00   5.877229193883247e+00   3.745534800000000e+00 -2.36709065e+00   1.72431399e+00  -5.98011600e-02
C     9.601652914200001e+00   5.191897691060080e+00   3.433314000000000e+00  1.11325765e+00   1.91886308e+00   8.50717160e-01
C     1.093475883260000e+01   5.903487590400401e+00   3.366658200000000e+00 -6.11427331e+00   3.20353439e+00   2.51822605e+00
C     1.326993857230000e+01   7.482531399004261e+00   3.724071300000000e+00  1.36787898e+00  -2.01875313e+00  -6.14333640e-01
C     4.728962981000000e+00   8.117203685132942e+00   3.828732900000000e+00 -1.82743473e+00  -2.09631810e+00   1.36310416e+00
C     5.919006757700000e+00   7.329483127786820e+00   4.080080100000000e+00  1.07884917e+00   3.12221816e+00  -1.58211122e+00
C     7.171759493499999e+00   8.138014705304483e+00   4.043002800000000e+00 -1.65895650e-01  -4.24202696e+00  -1.13618400e-01
C     8.392287087100000e+00   7.343241693812825e+00   3.947477700000000e+00  2.85973230e-01   5.07006430e-01  -1.60742424e+00
C     9.609250537200001e+00   8.084364017068539e+00   3.663901800000000e+00 -1.09976188e+00  -8.04490530e-01   1.01799351e+00
C     1.084899748930000e+01   7.370764120051332e+00   3.711096600000000e+00 -1.50678874e+00  -1.52933534e+00  -2.74745123e+00
C     1.198700496810000e+01   8.127623583451372e+00   3.624338700000000e+00  3.46286706e+00   4.67227850e-01   9.19687130e-01
