32
Lattice="9.86 0 0 4.93 8.53901048131456 0 0 0 30 " PBC="1 1 1" Properties=species:S:1:pos:R:3:force:R:3 Energy="-254.72980518"
C     4.988367798299999e+00   8.424730084872701e+00  -2.073356999999980e-01 -1.18257263e+00  -2.50316914e+00  -8.86377300e-02
C     1.282893128900000e+00   5.360605482816585e-01  -1.475624999999994e-01  1.45231102e+00   2.03031279e+00  -9.62566430e-01
C     7.476860924500000e+00   8.350995387817482e+00  -1.741016999999978e-01 -6.38935780e-01   2.70002491e+00   7.46657970e-01
C     3.770567184900000e+00   5.695191238256520e-01  -1.862861999999978e-01 -1.67719050e+00   1.27262093e+00  -1.93046159e+00
C     9.899579568299998e+00   8.392721945648841e+00  -3.591549000000001e-01 -6.73603290e-01  -1.39415236e+00   2.09066200e-01
C     6.168974470400000e+00   5.081655650159088e-01  -3.509372999999982e-01  1.87660221e+00   3.93215207e+00   1.45308765e+00
C     1.236003558730000e+01   8.348839800011911e+00  -2.691843000000027e-01  1.29012990e-01   4.31586650e+00  -8.27859400e-01
C     8.684208606799999e+00   5.797327196508848e-01  -1.727190000000007e-01 -7.00267000e-01  -8.98119900e-01  -2.99409740e-01
C     1.297993718900000e+00   2.014038422036441e+00  -3.540107999999975e-01 -3.72770676e+00  -2.29966513e+00   8.36292450e-01
C     2.452737512400000e+00   2.667767388633547e+00  -5.860338000000027e-01  2.53138937e+00   3.39942175e+00   2.24259880e-01
C     3.700715247400000e+00   2.047923521153911e+00  -4.455983999999980e-01 -4.34480020e-01  -3.85983878e+00   8.47961880e-01
C     4.892427484000000e+00   2.734007054630051e+00  -4.045439999999978e-01  2.47519430e+00   2.09325750e-01   5.72651340e-01
C     6.134400577599999e+00   2.037094177282965e+00  -1.997943000000006e-01  8.51551520e-01  -2.40073225e+00  -1.40903102e+00
C     7.387066643999999e+00   2.739859692413043e+00  -2.126838000000006e-01  6.28228740e-01  -2.03062107e+00   6.93735410e-01
C     8.671485952999999e+00   1.973037594705777e+00  -1.813140000000004e-01 -1.21311613e+00   2.70642728e+00  -6.70855500e-02
C     9.881274675500000e+00   2.761460400273775e+00  -2.981273999999985e-01  1.30598482e+00  -3.31835214e+00  -7.67748650e-01
C     2.505894054200000e+00   4.148197666198185e+00  -7.033157999999986e-01 -1.36620360e-01  -1.77870835e+00  -2.76223600e-02
C     3.715760473500000e+00   4.851751246605463e+00  -6.352854000000008e-01  7.83896580e-01  -5.18557840e-01   7.74747200e-02
C     4.935911858800000e+00   4.133720627830394e+00  -4.356338999999991e-01  1.67201535e+00   2.39894353e+00  -1.89821770e-01
C     6.233857460899999e+00   4.908457790521886e+00  -2.807913000000006e-01 -2.26739423e+00  -2.13453288e+00   8.29746580e-01
C     7.434230376400000e+00   4.138170476971731e+00  -1.708013999999984e-01  1.17532836e+00   1.52170773e+00  -1.06817836e+00
C     8.727151766199999e+00   4.845887935059372e+00  -3.171164999999974e-01 -2.28466166e+00   5.02699650e-01   2.02226140e-01
C     9.926377914400000e+00   4.127127828618995e+00  -5.437200000000004e-01 -5.34492860e-01   1.32703249e+00   9.89133870e-01
C     1.117372061610000e+01   4.858631639689828e+00  -6.986862000000009e-01 -2.36381067e+00  -1.76170644e+00   3.04344890e-01
C     3.716767031600000e+00   6.257745688964369e+00  -6.175737000000012e-01  3.70023100e-01   1.66806090e+00   6.54830880e-01
C     4.956150445500001e+00   6.929088584819201e+00  -3.499382999999980e-01 -6.67957550e-01   3.22536961e+00   7.18984170e-01
C     6.180857890300000e+00   6.325608535463017e+00  -1.078757999999986e-01  1.20667152e+00  -2.71151061e+00  -1.58476994e+00
C     7.464877179100000e+00   6.965143873450162e+00  -1.036953000000018e-01 -2.20808116e+00   1.03427013e+00   7.12431400e-02
C     8.650747267100000e+00   6.309394833143802e+00  -2.615966999999983e-01  1.09251948e+00  -4.15471067e+00  -4.54814480e-01
C     9.858916385999999e+00   6.943644267473513e+00  -4.595255999999992e-01  5.26083450e-01   1.81244037e+00   5.20449090e-01
C     1.103705460710000e+01   6.216266164706198e+00  -6.126962999999996e-01  3.93347776e+00   3.93764657e+00  -5.99483890e-01
C     1.236365829920000e+01   7.062465964544390e+00  -6.184641000000006e-01 -1.29939999e+00  -6.22994542e+00   3.25344650e-01
