32
Lattice="9.68 0 0 4.84 8.38312590863337 0 0 0 30 " PBC="1 1 1" Properties=species:S:1:pos:R:3:force:R:3 Energy="-257.30369895"
C    -1.328634217242435e-03  -1.349319151390897e-03   3.002059892492729e+00 -7.41833400e-02  -8.12058100e-02   7.92346000e-03
C     1.208672414233235e+00   6.945292261417748e-01   3.002974621532215e+00  2.80826100e-02   3.61521280e-01  -1.31666900e-02
C     2.420368128987902e+00   2.945867365102025e-03   2.999943377513754e+00  1.45106200e-02  -1.56403620e-01   1.68212600e-02
C     3.632562021046083e+00   7.003235180865554e-01   2.996810398858090e+00 -1.24208550e-01  -1.26374940e-01   1.53014600e-02
C     4.841822012814401e+00   1.221451866378500e-03   2.997178794571488e+00 -9.16900400e-02  -1.24231260e-01  -3.38792000e-03
C     6.051294364351853e+00   6.950400957609771e-01   2.999029310942950e+00 -1.18385100e-02   2.71289440e-01   3.06982800e-02
C     7.260088764010743e+00   1.183305788974237e-03   3.004407255708310e+00 -4.57684800e-02  -2.67520080e-01  -6.38168800e-02
C     8.466962294205235e+00   6.971188296405433e-01   2.998958377668334e+00  2.01971970e-01   1.70356270e-01   3.32061600e-02
C     1.209306865548162e+00   2.097511909777748e+00   3.002640681619902e+00 -5.52433000e-03  -1.92180350e-01  -4.53904000e-02
C     2.420725079871009e+00   2.794836601614276e+00   2.997161297995369e+00 -8.63651300e-02  -1.17425500e-02   4.07911100e-02
C     3.629034574084254e+00   2.093180512717209e+00   2.998334647101176e+00  1.64502990e-01   2.62096570e-01  -2.09162400e-02
C     4.842213154469252e+00   2.793729129865196e+00   2.998372216822407e+00 -8.17807200e-02   7.22039400e-02   3.41579600e-02
C     6.052419467053105e+00   2.095298674503706e+00   3.001027946399240e+00 -1.60069570e-01  -1.05680330e-01  -4.08025400e-02
C     7.258886358237972e+00   2.794929402464213e+00   2.997947575163937e+00  8.29057000e-02  -4.86252100e-02  -7.10649000e-03
C     8.469353609591746e+00   2.096881328224225e+00   2.996068284096974e+00 -6.34553400e-02  -1.15548530e-01   2.61685800e-02
C     9.677527001204391e+00   2.795268159459269e+00   2.998663629332547e+00  1.65639340e-01  -1.13879200e-01  -1.41438000e-03
C     2.421282837675231e+00   4.193697489225155e+00   2.997997716208133e+00 -6.18774900e-02  -1.24208930e-01  -9.57974000e-03
C     3.628135444913355e+00   4.890316913817576e+00   3.000395933354178e+00  1.84715650e-01  -2.79597000e-03  -1.15839900e-02
C     4.841739394466961e+00   4.194678476585478e+00   3.002603023425914e+00 -2.08972090e-01  -2.05928360e-01  -3.22143800e-02
C     6.047116205423400e+00   4.893007676614469e+00   3.001489103696089e+00  2.56588640e-01  -1.38373760e-01  -1.22838800e-02
C     7.256779474255827e+00   4.189447138365294e+00   2.997182886967888e+00  1.59392900e-01   2.68644130e-01   6.02166800e-02
C     8.470532320294241e+00   4.892365400204572e+00   3.003852548558256e+00 -6.35123400e-02  -2.73820850e-01  -6.77058500e-02
C     9.683220550634820e+00   4.188757113322345e+00   2.998494948862962e+00 -1.61730850e-01   3.56876960e-01   1.42225100e-02
C     1.089266799789281e+01   4.892870777090439e+00   2.996905904820743e+00 -1.15404620e-01  -1.47965380e-01   1.39216500e-02
C     3.628602088402638e+00   6.286255388919407e+00   2.998959609014682e+00 -5.30246100e-02   1.02948700e-02   3.35019700e-02
C     4.837438421555126e+00   6.983437566652269e+00   3.003502682312969e+00  1.63719810e-01   9.01456400e-02  -3.10490800e-02
C     6.053354940832206e+00   6.287782486163914e+00   3.001478690575044e+00 -3.83900270e-01   7.17616400e-02   3.88660800e-02
C     7.256239960595450e+00   6.987402009448185e+00   3.003547501538860e+00  2.67949890e-01   7.14890500e-02  -3.22169200e-02
C     8.467183214460476e+00   6.287592973273021e+00   3.002063920689782e+00  6.97076400e-02   7.89178100e-02   3.00521000e-03
C     9.677848540078958e+00   6.986607626266667e+00   2.997482410335801e+00  5.96022000e-02   1.63625000e-03   2.17681000e-02
C     1.089109726221977e+01   6.289581275247174e+00   2.998081514255721e+00 -2.37731500e-01  -8.89956000e-02  -3.35803000e-03
C     1.209733472966303e+01   6.983705487974897e+00   3.000269998006062e+00  2.11747830e-01   2.38246920e-01   5.42297000e-03
