32
Lattice="9.86 0 0 4.93 8.53901048131456 0 0 0 30 " PBC="1 1 1" Properties=species:S:1:pos:R:3:force:R:3 Energy="-255.40591086"
C     1.155586626300000e+00   9.198074364174696e-01   3.956881500000000e+00  6.86718150e-01   1.01863537e+00   9.89700480e-01
C     2.394786594900000e+00   1.628049872869420e+00   4.045710300000000e+00 -2.93135200e-01  -2.86097390e-01   3.10771810e-01
C     3.594306078100000e+00   9.014022824486680e-01   3.957945600000000e+00  3.82782590e+00   1.62117389e+00  -3.71614540e-01
C     4.909863562900000e+00   1.674623856170065e+00   3.897939300000000e+00 -9.30054830e-01  -1.67452421e+00   6.60436700e-02
C     6.170513517800000e+00   9.296222604532863e-01   3.735284100000000e+00 -3.73699319e+00   5.48207680e-01   1.35092633e+00
C     7.339215078000000e+00   1.687162453768792e+00   3.848922300000000e+00  1.36631229e+00  -3.71137702e+00   3.32617440e-01
C     8.566811305600000e+00   9.111870491675952e-01   3.910587900000000e+00  6.50121960e-01   9.76016790e-01   1.41238240e+00
C     9.804760040200000e+00   1.627438906669576e+00   4.139575499999999e+00 -1.42435518e+00  -5.95196970e-01  -1.99776277e+00
C     2.398169610200000e+00   3.051180743020010e+00   4.226716500000000e+00  4.46682890e-01  -5.86716380e-01  -6.74321270e-01
C     3.612928709400000e+00   3.787520622676190e+00   4.212674700000000e+00  1.90955743e+00  -1.27579277e+00  -1.23839724e+00
C     4.935270613700000e+00   3.099890247451598e+00   4.009280400000001e+00 -4.56050306e+00  -2.16438901e+00   1.18407710e-01
C     6.104072351499999e+00   3.746928130826681e+00   3.833347800000000e+00  1.51731854e+00   2.92621966e+00   1.29592801e+00
C     7.303211386599999e+00   3.032276569278757e+00   4.010142000000000e+00  2.21851691e+00   3.35470753e+00  -2.03019261e+00
C     8.601046852500000e+00   3.783045583453937e+00   3.941679600000000e+00 -2.40747178e+00  -3.66898429e+00   1.08128576e+00
C     9.768815755299999e+00   3.049903904782935e+00   4.079424600000000e+00  2.00132398e+00  -7.17875090e-01   2.70238970e-01
C     1.102708683730000e+01   3.729164085764717e+00   4.131155100000000e+00 -7.07596040e-01   8.70257860e-01   6.09169390e-01
C     3.625284965600000e+00   5.172734614521073e+00   4.042113600000000e+00 -4.56003800e-02   9.62719360e-01   9.36744850e-01
C     4.897580665100000e+00   5.864278247468440e+00   3.965514300000001e+00 -1.80820399e+00   2.70190809e+00  -7.80964500e-01
C     6.093470978099999e+00   5.228551308155375e+00   3.831448500000000e+00  2.00135908e+00  -3.56706155e+00  -8.25348900e-02
C     7.354773319900000e+00   5.852893697136086e+00   3.754371000000000e+00 -1.94447410e-01   2.24392932e+00   1.00631565e+00
C     8.617316937100000e+00   5.124713183553964e+00   3.869957700000000e+00 -2.76815418e+00   3.16900777e+00  -1.15599542e+00
C     9.784193657799999e+00   5.855510818458101e+00   3.808457100000000e+00  1.99598612e+00   6.33015860e-01   1.47332991e+00
C     1.100490563340000e+01   5.152081992993936e+00   4.104394200000000e+00  9.42076730e-01   8.15653330e-01  -1.55737826e+00
C     1.224461822340000e+01   5.878066443860811e+00   4.035810000000001e+00 -4.58520500e-02   1.46196913e+00  -6.50060560e-01
C     4.913560323400000e+00   7.319913544131988e+00   3.891599400000000e+00 -2.39072279e+00  -6.62954830e-01   7.51534130e-01
C     6.103261514399999e+00   8.058063010889091e+00   3.840315900000000e+00  6.17100250e-01  -1.38968458e+00   4.32688750e-01
C     7.323635094799999e+00   7.313839745977565e+00   3.849017400000000e+00  2.28712065e+00  -4.41436230e-01  -8.67433900e-01
C     8.632863001900001e+00   8.035354451808685e+00   3.849904200000000e+00 -3.87799657e+00  -8.32582470e-01  -5.21388800e-02
C     9.801478829400001e+00   7.281293649093464e+00   3.780802800000000e+00  1.14985948e+00   1.01722247e+00   3.76592700e-01
C     1.103602931500000e+01   8.036777990245804e+00   3.843906600000000e+00 -2.97052470e-01   2.75879560e-01  -1.45450293e+00
C     1.224462783690000e+01   7.364502122105929e+00   3.821531400000000e+00  1.22994965e+00  -3.32547007e+00   1.94591806e+00
C     1.349445417400000e+01   8.029017737521581e+00   3.981897600000000e+00  6.40309140e-01   3.03619190e-01  -1.84729825e+00
