32
Lattice="9.86 0 0 4.93 8.53901048131456 0 0 0 30 " PBC="1 1 1" Properties=species:S:1:pos:R:3:force:R:3 Energy="-255.80393278"
C     4.965508571500000e+00   8.292000047531999e+00  -5.324459999999931e-02 -7.40778810e-01  -5.05789790e-01  -3.17804060e-01
C     1.247755983600000e+00   4.560331982334128e-01  -5.322960000000165e-02  1.46848632e+00  -8.33243600e-02   2.26390930e-01
C     7.446481475700001e+00   8.311839584481232e+00  -1.692779999999772e-02  8.38948440e-01  -3.03481800e-01  -2.57017730e-01
C     3.785476836000000e+00   4.945181769063536e-01  -5.964569999999725e-02 -2.00916271e+00   9.77433600e-02  -1.40474758e+00
C     9.920130322599999e+00   8.300906150072537e+00  -2.276358000000016e-01 -3.20035530e-01  -1.37298438e+00   5.07594150e-01
C     6.206208837699999e+00   4.625581123114952e-01  -1.933632000000003e-01 -3.37281900e-01   8.09492340e-01   5.52627000e-03
C     1.236666076780000e+01   8.309286334957608e+00  -2.095626000000017e-01  1.46523740e-01   1.79201249e+00   9.74664000e-03
C     8.674946763700000e+00   4.813992681554056e-01  -9.450179999999975e-02 -5.10535150e-01  -9.21270000e-02  -1.74948270e-01
C     1.237295312400000e+00   1.863448446546087e+00  -1.726373999999993e-01  1.42723441e+00   8.20363050e-01  -9.47393590e-01
C     2.458842873700000e+00   2.603791499705396e+00  -4.488188999999991e-01  1.82840135e+00  -3.00971470e-01   1.48404989e+00
C     3.712186667199999e+00   1.923832059155406e+00  -2.885475000000000e-01  1.29619818e+00  -7.86924980e-01   7.97810090e-01
C     5.007002754600000e+00   2.626407666692410e+00  -2.053700999999997e-01 -3.15607411e+00  -1.76252272e+00  -9.23134530e-01
C     6.175525947400001e+00   1.887267503939418e+00  -1.250555999999996e-01  1.95505682e+00  -1.44715670e-01   1.19529600e-01
C     7.425546280000000e+00   2.608997307444528e+00  -7.745669999999905e-02 -9.45126910e-01  -4.79646030e-01  -1.35231720e-01
C     8.642448006499999e+00   1.913399352321257e+00  -1.011947999999983e-01  4.49002940e-01  -1.57821719e+00   5.12877320e-01
C     9.890451130999999e+00   2.566901010459385e+00  -1.590263999999983e-01 -7.99190410e-01   1.46465170e-01  -4.85930240e-01
C     2.581346471700000e+00   4.053711380484366e+00  -5.305487999999983e-01 -2.99716291e+00  -1.73521744e+00   6.05550000e-04
C     3.780687735400000e+00   4.763291282147799e+00  -4.436283000000003e-01  6.98606700e-02   1.77411490e-01  -4.61115140e-01
C     4.995196144099999e+00   3.996511110981990e+00  -3.204525000000018e-01 -5.75018620e-01   2.66709256e+00   5.62296700e-01
C     6.183541683700000e+00   4.719537477838383e+00  -1.391919000000001e-01 -3.82550100e-02   1.54846739e+00   7.28071900e-02
C     7.394886757900000e+00   4.018907740009563e+00  -5.807009999999835e-02  8.45658110e-01   5.92334310e-01  -2.46207970e-01
C     8.605132491399999e+00   4.744002340594316e+00  -1.346205000000005e-01  3.45778605e+00  -1.60866106e+00  -6.38504300e-01
C     9.872064548099999e+00   3.937689283389461e+00  -3.355907999999985e-01  6.46671400e-01   4.05863025e+00   4.18080030e-01
C     1.116376206540000e+01   4.686659298836715e+00  -5.268291000000005e-01 -1.38125352e+00   1.39184697e+00   6.98989110e-01
C     3.752417389900000e+00   6.217218776715346e+00  -4.226783999999988e-01 -2.14377931e+00  -1.81764609e+00   6.13302630e-01
C     4.940330962899999e+00   6.837483446631437e+00  -1.558892999999983e-01  1.43992492e+00   3.05896300e+00   1.48351750e-01
C     6.160496053599999e+00   6.168557603083076e+00  -7.112220000000136e-02  3.22597779e+00  -1.07148598e+00  -2.80058560e-01
C     7.498254117200000e+00   6.888991697137951e+00  -3.971040000000059e-02 -2.34776576e+00  -3.74419890e-01   2.70014470e-01
C     8.749025042300000e+00   6.162167776150786e+00  -1.235369999999989e-01 -4.58638912e+00  -1.48602455e+00  -1.13062600e-01
C     9.913831754599999e+00   6.811930372379932e+00  -3.182034000000016e-01  1.67900162e+00   3.53284966e+00   3.74323660e-01
C     1.113230989790000e+01   6.150961520357253e+00  -4.699428000000019e-01  1.01469448e+00  -6.11436900e-01   2.79122900e-02
C     1.234114155950000e+01   6.963179901039763e+00  -3.987432000000020e-01  1.09838253e+00  -4.57807474e+00  -4.65051970e-01
