32
Lattice="9.692 0 0 4.846 8.39351821347878 0 0 0 30 " PBC="1 1 1" Properties=species:S:1:pos:R:3:force:R:3 Energy="-257.28203594"
C    -4.150849245889744e-05   1.205368967133417e-02   2.998793302473115e+00 -2.24609040e-01  -1.03937809e+00   9.43000000e-03
C     1.208158949276788e+00   6.939235039220657e-01   2.995713545821014e+00  2.78127400e-02   8.40727730e-01  -7.92141700e-02
C     2.421829985437682e+00   1.311689113838869e-02   2.989480263042461e+00 -1.26419380e-01  -1.08776575e+00   1.64641830e-01
C     3.626910464848883e+00   7.045416763292870e-01   3.011944774508310e+00  1.63604770e-01  -2.67081440e-01  -1.57066700e-01
C     4.838253119606454e+00   4.602535688499380e-03   3.003534215580563e+00  4.55722980e-01   5.02327400e-02   4.98614100e-02
C     6.059131688305204e+00   7.059963815433922e-01   3.009768768352366e+00 -4.14565640e-01  -4.80300380e-01  -1.06770420e-01
C     7.264188630077595e+00  -6.194433698624921e-05   3.003826666079172e+00  3.46202170e-01   2.19491230e-01   3.40550000e-03
C     8.481556570084164e+00   7.113274190521531e-01   2.992216893612109e+00 -3.47143980e-01  -9.57230770e-01   5.57961600e-02
C     1.196301167580190e+00   2.101892569208972e+00   2.990581232876353e+00  1.49844977e+00  -1.97257500e-02   8.63779000e-03
C     2.435752525638218e+00   2.810435682944306e+00   2.986623777862134e+00 -1.36560009e+00  -1.00287093e+00   1.65748710e-01
C     3.621954892192096e+00   2.094226922088387e+00   3.004920493037702e+00  7.61076760e-01   4.87801510e-01  -9.47349300e-02
C     4.838071714842031e+00   2.794101490140238e+00   2.992103794197685e+00  6.05893900e-02   4.24547210e-01   7.73146100e-02
C     6.052410193321176e+00   2.097523353031927e+00   2.995403191574084e+00 -4.79032600e-02   3.58590990e-01   4.79065000e-02
C     7.259687041902673e+00   2.800240946360926e+00   2.995329225304312e+00  3.82503400e-01  -1.97939540e-01  -9.90174000e-03
C     8.470125554609552e+00   2.087431329622310e+00   2.990364343966795e+00  5.53181800e-01   1.47989215e+00   5.29273800e-02
C     9.703147413002261e+00   2.803220408034272e+00   2.997188491728257e+00 -1.34250999e+00  -3.24070040e-01  -6.52111300e-02
C     2.434988230267131e+00   4.191674629218071e+00   3.003875994826094e+00 -9.63397800e-01   8.48722860e-01  -6.57046000e-02
C     3.624976395950855e+00   4.901956219770351e+00   2.999645736811749e+00  9.53514510e-01  -2.70299650e-01   1.66530600e-02
C     4.848424171808072e+00   4.204557057645713e+00   2.992190717329073e+00 -5.97653600e-02  -3.30742600e-01  -3.53377100e-02
C     6.071725793642234e+00   4.899128294111244e+00   2.991766523673175e+00 -8.79384630e-01   1.21509680e-01   1.23202030e-01
C     7.272740844314923e+00   4.200216333352850e+00   3.002602722577379e+00 -9.56907000e-03  -1.78363960e-01  -5.68658000e-02
C     8.475776929444688e+00   4.902322394986219e+00   3.009716426748221e+00  6.37960050e-01  -4.79410800e-02  -9.73972500e-02
C     9.698492351228960e+00   4.198796555609793e+00   2.999538772232099e+00 -4.10082680e-01   3.91225870e-01   1.24586040e-01
C     1.090164344898491e+01   4.905303375757243e+00   3.010296337331460e+00  4.47628940e-01  -5.51937060e-01  -1.58708280e-01
C     3.629758161829933e+00   6.292899352396263e+00   3.005454288747656e+00  9.23390500e-02   3.36558970e-01   3.56427600e-02
C     4.844320341192855e+00   6.987997788398267e+00   3.008790333475502e+00 -2.07015180e-01   8.39044640e-01  -3.95346200e-02
C     6.056429916484895e+00   6.303136889653395e+00   3.006778437044247e+00  1.14068130e-01  -5.59511580e-01  -9.00826600e-02
C     7.267435010373845e+00   6.988814967644619e+00   2.997383220897838e+00  4.21242000e-03   1.20783684e+00   1.45003000e-02
C     8.477655015922243e+00   6.305958572926688e+00   3.000580607196235e+00  3.20790740e-01  -5.64828000e-01  -9.05411000e-03
C     9.699369207315840e+00   6.998031213805622e+00   2.992592813466947e+00 -7.60723820e-01   3.26247780e-01   4.06712500e-02
C     1.089870333077963e+01   6.300578701714720e+00   2.992993463919162e+00  4.80755840e-01  -1.11595470e-01   1.54198290e-01
C     1.211454947204316e+01   6.996979416161649e+00   3.007103810534055e+00 -1.41723520e-01   5.91518900e-02  -7.95395000e-02
