32
Lattice="9.86 0 0 4.93 8.53901048131456 0 0 0 30 " PBC="1 1 1" Properties=species:S:1:pos:R:3:force:R:3 Energy="-257.45761278"
C     4.974547282800000e+00   7.356432330251804e+00  -1.862910000000007e-01  5.20477850e-01  -3.37403040e-01  -1.11564500e-02
C     6.216057350800000e+00   8.064599964971951e+00  -1.876040999999979e-01  2.23326980e-01  -3.85904920e-01  -5.71566600e-01
C     7.453639145500000e+00   7.325785394688561e+00  -2.221340999999981e-01 -9.84368340e-01   1.17872060e-01   4.20874150e-01
C     8.652475626499999e+00   8.036702420003056e+00  -2.435571000000003e-01  1.54274311e+00   3.83503450e-01   6.39062030e-01
C     9.911974475699999e+00   7.334457272171630e+00  -1.971114000000007e-01 -8.95557070e-01   4.37191480e-01  -2.14001470e-01
C     1.111883803200000e+01   8.046775463715788e+00  -2.157581999999998e-01  1.26475286e+00   5.64482800e-01  -1.74185560e-01
C     1.237223063250000e+01   7.331886859236940e+00  -2.868768000000017e-01 -6.78900110e-01   1.27736100e-02   7.46470940e-01
C     1.358994467510000e+01   8.047407948222043e+00  -2.243427000000011e-01  7.85573640e-01   2.26933380e-01  -3.24433320e-01
C     1.310223471300000e+00   9.445473407009640e-01  -2.632292999999990e-01 -8.37064380e-01   3.39033940e-01   3.92679110e-01
C     2.537053576900000e+00   1.663319743316431e+00  -1.964958000000010e-01 -4.27659500e-01  -9.29501660e-01  -3.66710100e-01
C     3.758671440000000e+00   9.260085512181504e-01  -1.673060999999976e-01 -1.49251878e+00  -4.39869960e-01  -1.11281120e-01
C     4.947772304899999e+00   1.621055740165462e+00  -8.904119999999693e-02  2.07971729e+00   1.99805387e+00  -4.01153130e-01
C     6.195788000899999e+00   9.462233776779784e-01  -1.609989000000027e-01  5.82172640e-01  -6.83725370e-01  -2.15337080e-01
C     7.451611239299999e+00   1.659289501150081e+00  -2.362584000000005e-01 -6.44361490e-01  -5.92820950e-01   1.66057010e-01
C     8.699313436599999e+00   9.319774903238800e-01  -2.606585999999993e-01 -9.87411190e-01   6.98061610e-01   4.79080000e-03
C     9.916862620000000e+00   1.664873757833687e+00  -2.850222000000002e-01  6.95111700e-01  -2.57322710e-01   2.30713450e-01
C     2.514378337700000e+00   3.063631388810793e+00  -2.158427999999972e-01  5.70684000e-01   8.98439280e-01   5.02986380e-01
C     3.756757318200000e+00   3.785849879885673e+00  -1.413575999999992e-01 -8.41581550e-01  -1.39661760e-01  -7.82642000e-03
C     4.973084847600000e+00   3.090174305157139e+00  -9.337290000000209e-02 -3.37067290e-01  -1.42675533e+00  -4.68597400e-02
C     6.179849606699999e+00   3.806306360342085e+00  -1.286489999999993e-01  1.84335058e+00  -7.95078450e-01  -3.06833630e-01
C     7.422242193999999e+00   3.073593425387285e+00  -2.267255999999982e-01  8.72861460e-01   4.32871350e-01   5.44963120e-01
C     8.694160847099999e+00   3.777414618383006e+00  -1.976030999999985e-01 -1.52376021e+00   8.00316670e-01  -3.05736000e-02
C     9.924588225800001e+00   3.108793959069198e+00  -2.422113000000010e-01 -5.77131120e-01  -2.15520475e+00   1.14508500e-02
C     1.114686311000000e+01   3.779289528914099e+00  -2.082716999999974e-01  3.21009980e-01   7.39870820e-01  -3.81910080e-01
C     3.756039214400000e+00   5.193929633993901e+00  -1.507944000000023e-01  8.47805260e-01   1.15635544e+00  -5.19461940e-01
C     5.029905809100000e+00   5.933099768673677e+00  -1.667640000000006e-01 -1.77826703e+00  -3.37966210e-01   1.66106040e-01
C     6.260554199700000e+00   5.223504923741904e+00  -1.551732000000001e-01 -2.12808763e+00  -7.15817210e-01   2.61651430e-01
C     7.471274149900000e+00   5.893755423986030e+00  -1.455618000000030e-01 -1.65284610e-01   1.66615914e+00  -2.98931910e-01
C     8.671446660899999e+00   5.207331696332365e+00  -1.298421000000012e-01  1.84568969e+00  -6.35741900e-01  -4.17338280e-01
C     9.923646546499999e+00   5.929929404862663e+00  -1.758873000000030e-01 -1.13510537e+00  -8.88825160e-01  -1.46547180e-01
C     1.112432679820000e+01   5.205267390548825e+00  -2.379794999999980e-01  1.40180739e+00  -1.33882950e-01   4.39193370e-01
C     1.237703437520000e+01   5.902215277838880e+00  -2.413910999999977e-01  3.70411900e-02   3.83563420e-01   1.91089200e-02
