32
Lattice="9.86 0 0 4.93 8.53901048131456 0 0 0 30 " PBC="1 1 1" Properties=species:S:1:pos:R:3:force:R:3 Energy="-254.2706834"
C     9.609393260699999e+00   9.779551945227064e-01   3.068291700000000e+00  7.10230410e-01   2.21732524e+00   9.65370720e-01
C     1.081827303910000e+01   1.712533817877282e+00   3.286754400000000e+00 -4.91833360e-01   1.34749103e+00  -1.64084685e+00
C     2.170348936500000e+00   1.003579911072138e+00   3.297611700000000e+00  1.59270145e+00   2.75394999e+00  -2.81258020e-01
C     3.471059184000000e+00   1.716901607127907e+00   3.375275400000000e+00 -1.81413810e-01  -4.73965720e-01  -3.61854930e-01
C     4.715759849399999e+00   1.019977116726568e+00   3.303225000000000e+00  3.76341950e-01  -5.94081200e-02  -8.45321070e-01
C     5.975635892900000e+00   1.682542592928798e+00   3.287680800000000e+00  9.55358700e-02   4.18496562e+00   7.91613480e-01
C     7.260062448999999e+00   1.048363349265232e+00   3.268826700000000e+00 -3.72529538e+00   3.46122760e-01  -4.79049000e-01
C     8.429990741099999e+00   1.828627471880009e+00   3.150020700000000e+00  6.08936900e-02  -1.54863788e+00   1.14771240e-01
C     1.081661251650000e+01   3.181525066222703e+00   3.172473600000000e+00  4.06126809e+00  -1.43095571e+00   1.12246340e+00
C     2.283269945600000e+00   3.836379474401074e+00   3.353295000000000e+00 -2.17376609e+00   1.45540933e+00   1.53683340e-01
C     3.530967508700000e+00   3.124777705836186e+00   3.389702100000000e+00 -2.32877041e+00   1.03876944e+00   2.07195900e-01
C     4.706873672300000e+00   3.921375674647631e+00   3.375364200000000e+00  2.71033190e-01  -2.69602972e+00   1.40217810e-01
C     5.943349027099999e+00   3.227849710417332e+00   3.372306900000000e+00  9.59578830e-01  -1.71354897e+00  -7.56287620e-01
C     7.153967961599999e+00   4.008211690092209e+00   3.278857200000000e+00  1.83379102e+00  -2.28182340e+00   1.52995688e+00
C     8.426259322700000e+00   3.275328316488228e+00   3.204758700000000e+00 -1.03361970e+00  -1.09596578e+00  -9.57395870e-01
C     9.680214091100000e+00   3.946501371424612e+00   3.049720500000000e+00 -3.01886541e+00  -5.84588340e-01   1.17791372e+00
C     1.208316018110000e+01   5.331667544810808e+00   3.448723800000000e+00  1.83272620e-01  -3.25151854e+00  -2.19329893e+00
C     3.459315776100000e+00   5.989895289079302e+00   3.264641100000000e+00 -1.76978130e+00   2.84354717e+00  -6.08924460e-01
C     4.677734907300000e+00   5.297980977686997e+00   3.264153600000000e+00  3.80314250e-01   1.99832170e-01   6.42497230e-01
C     5.923939518499999e+00   5.953137239885836e+00   3.310542000000000e+00 -4.87351440e-01   3.68033695e+00  -9.41296600e-02
C     7.185130540899999e+00   5.427371066468551e+00   3.491704800000000e+00  5.19090140e-01  -2.70040220e+00  -1.82161390e+00
C     8.417914804700001e+00   6.142612075909910e+00   3.365511000000000e+00 -7.37057950e-01  -1.76404373e+00  -1.28641381e+00
C     9.623420934799999e+00   5.342448301712122e+00   3.115033500000000e+00 -1.97302755e+00   5.91565360e-01   1.09319290e+00
C     1.080600759350000e+01   5.984270301315706e+00   3.218052000000000e+00  4.19344028e+00   1.59342288e+00   4.43723470e-01
C     1.322897027230000e+01   7.477581505409216e+00   3.030454200000000e+00  4.07082407e+00  -3.95252781e+00   1.88741158e+00
C     1.452899041840000e+01   8.094910890472807e+00   3.054313500000000e+00 -7.25107250e-01   6.04196420e-01  -2.24547480e-01
C     5.912012615999999e+00   7.365058950979329e+00   3.159658200000000e+00 -1.15118077e+00   1.92612347e+00  -4.72291920e-01
C     7.090288729199999e+00   8.186833509070215e+00   3.104610300000000e+00  7.92516500e-01  -2.50048538e+00   1.67750179e+00
C     8.364077775000000e+00   7.549391594892347e+00   3.217530600000000e+00  3.65284630e-01  -2.12627003e+00  -4.54064210e-01
C     9.617114922499999e+00   8.158892073587456e+00   3.114864300000000e+00  1.33864306e+00  -9.38403400e-02   1.24920790e+00
C     1.086782811730000e+01   7.379906667792058e+00   3.179714100000000e+00 -2.27895844e+00   2.95076701e+00   2.45061550e-01
C     1.206475654040000e+01   8.150806569954048e+00   3.241041300000000e+00  2.71268830e-01   5.40186810e-01  -9.64485190e-01
