2
Lattice="2.471 0 0 1.2355 2.13994877275135 0 0 0 30 " PBC="1 1 1" Properties=species:S:1:pos:R:3:force:R:3 Energy="-16.12981632"
C     0.000000000000000e+00   0.000000000000000e+00   3.000000000000000e+00 -0.00000000e+00   0.00000000e+00   0.00000000e+00
C     1.235500000000000e+00   7.133162575837826e-01   3.000000000000000e+00  0.00000000e+00  -0.00000000e+00  -0.00000000e+00
