32
Lattice="10.132 0 0 5.066 8.77456939114393 0 0 0 30 " PBC="1 1 1" Properties=species:S:1:pos:R:3:force:R:3 Energy="-256.54377983"
C     7.093161702429601e-04  -4.287505622122105e-04   2.996936087181846e+00 -1.13296640e-01   1.34219810e-01   7.63685100e-02
C     1.264091930075382e+00   7.345261837790090e-01   3.002965167122042e+00  1.83007320e-01  -9.20301000e-02  -5.10157300e-02
C     2.531382294300541e+00   2.882676112181431e-03   3.001612437708048e+00  4.78145800e-02  -1.06516450e-01  -1.04165900e-02
C     3.799734574544126e+00   7.317295288307532e-01   2.998495051137354e+00  7.58999000e-03   1.40138700e-02   1.20508800e-02
C     5.067589436430726e+00  -1.295801331787512e-03   3.000832983088825e+00 -4.85650700e-02   3.34544900e-02  -2.28921700e-02
C     6.335359245024301e+00   7.305908468505690e-01   2.997185736791054e+00 -1.69892030e-01   5.23209000e-02   4.24198300e-02
C     7.595884585559656e+00   2.261993478499693e-04   2.996848320693135e+00  2.84731360e-01   3.63671900e-02   2.30674700e-02
C     8.867190887103396e+00   7.358324826674402e-01   2.998268240995011e+00 -1.40985150e-01  -3.21267700e-01   1.12257100e-02
C     1.271016713219808e+00   2.196281595224876e+00   2.999823333740500e+00 -2.63827160e-01  -8.72462600e-02   1.98590500e-02
C     2.535272291148499e+00   2.925743044229667e+00   2.997109032329033e+00  4.51311000e-03   2.58775300e-02   2.66832700e-02
C     3.799526664589296e+00   2.196326495932399e+00   2.995648070229458e+00  7.58811100e-02  -1.37296760e-01   4.57987800e-02
C     5.066795337435049e+00   2.924660314168454e+00   3.001300600616434e+00  2.14436000e-03   1.12170880e-01  -2.93915100e-02
C     6.334077323940192e+00   2.195982028620763e+00   3.001501162885176e+00  3.73809000e-03  -1.11776720e-01  -5.85351600e-02
C     7.601713866502944e+00   2.922434109835096e+00   2.996258747465892e+00 -1.03144820e-01   1.96952040e-01   9.43907600e-02
C     8.864644616792585e+00   2.191332063167061e+00   3.004028182352619e+00  6.39810100e-02   6.15294800e-02  -7.24829200e-02
C     1.012882787840580e+01   2.919990393212280e+00   3.003057438647704e+00  2.58328330e-01   2.38718840e-01  -3.62281200e-02
C     2.535887386008081e+00   4.386821771595237e+00   3.002271005526393e+00 -1.10450490e-01   4.44982000e-02  -3.30567200e-02
C     3.795793912539670e+00   5.121393986429916e+00   3.002553417035523e+00  2.00856840e-01  -1.32087520e-01  -4.30139500e-02
C     5.065854348170610e+00   4.388982104756769e+00   3.000443248536719e+00 -3.93737200e-02  -1.21057700e-02   5.88010000e-03
C     6.331286057456386e+00   5.119474781570568e+00   2.997911497562208e+00  1.32074650e-01  -7.95830000e-03   1.78268100e-02
C     7.603260305393535e+00   4.388654545375632e+00   2.999843955721217e+00 -1.45554390e-01  -6.88962200e-02  -2.35883700e-02
C     8.867650257513398e+00   5.119998939493296e+00   3.001433204729415e+00  4.25221400e-02  -4.61739900e-02  -7.13146900e-02
C     1.013517176605656e+01   4.385503598375206e+00   2.997205315913023e+00 -1.14060140e-01  -2.70494800e-02   6.81883700e-02
C     1.140118038362652e+01   5.116499305219920e+00   3.000205916999177e+00 -3.99555300e-02   5.43547400e-02  -3.70951000e-03
C     3.796087986736290e+00   6.580385488917240e+00   2.996249367164683e+00  1.30200210e-01   9.26789200e-02   9.56369700e-02
C     5.062798970065941e+00   7.313921019317468e+00   3.002662836160669e+00  1.43094580e-01  -8.12475000e-02  -9.79764800e-02
C     6.333970363078373e+00   6.583020480943190e+00   2.997745994328218e+00 -1.41418780e-01  -6.27950600e-02   4.38071500e-02
C     7.599794706226981e+00   7.310501376746772e+00   3.000098543826596e+00 -1.97446800e-02   1.97684750e-01  -3.23927700e-02
C     8.866858659929518e+00   6.582656748303760e+00   2.995277238440929e+00 -4.45916300e-02  -1.12103600e-01   9.00294700e-02
C     1.013190632135644e+01   7.309156703549352e+00   3.001832686933246e+00  7.04787500e-02   1.72827590e-01  -4.33149500e-02
C     1.139905188036073e+01   6.581649820903190e+00   3.000919148863074e+00  3.34838400e-02  -1.24650910e-01   9.96596000e-03
C     1.266688304145013e+01   7.311804670595921e+00   3.001172351472125e+00 -1.89580040e-01   6.35331000e-02  -5.38694600e-02
