32
Lattice="9.856 0 0 4.928 8.53554637969943 0 0 0 30 " PBC="1 1 1" Properties=species:S:1:pos:R:3:force:R:3 Energy="-258.07691583"
C    -1.471354451515226e-03   1.377539364017214e-03   3.001789419680787e+00  2.71813500e-02  -1.59851350e-01   2.73922800e-02
C     1.233650983196704e+00   7.088300267879272e-01   2.999792679752649e+00 -1.58086690e-01   2.39037400e-01   2.10619300e-02
C     2.462400092984113e+00   4.515302196315262e-04   2.997594729683116e+00  2.48428490e-01   4.53941900e-02   2.07810200e-02
C     3.698376960073140e+00   7.144666295670961e-01   2.996164690584997e+00 -1.86034490e-01  -1.35093740e-01   3.25621100e-02
C     4.926291185103864e+00  -3.579899558375290e-03   2.997281794143982e+00 -3.83663000e-03   1.23184250e-01   2.58272400e-02
C     6.157285139379017e+00   7.068308571049988e-01   2.998246599731840e+00  1.60764220e-01   1.68899270e-01   3.74973300e-02
C     7.391445019685803e+00  -2.457689522496014e-03   3.001173249545817e+00 -6.75646300e-02   2.30684400e-02  -4.59011000e-03
C     8.621503022777228e+00   7.114095881835083e-01   3.002855332647076e+00  8.03357200e-02  -2.28271000e-03  -1.55373800e-02
C     1.235071054093867e+00   2.135975628999942e+00   3.003975761572945e+00 -1.72961300e-01  -1.23275000e-01  -7.01320000e-02
C     2.465736986326990e+00   2.847752911630744e+00   2.996205650306340e+00 -4.40610100e-02  -1.70350160e-01   8.29012600e-02
C     3.696114690745284e+00   2.135621842479759e+00   3.000761678589166e+00  1.50363580e-01  -1.03388700e-02  -7.95456200e-02
C     4.931075284981416e+00   2.846125272864611e+00   2.997481313971380e+00 -2.50190900e-02  -1.01349650e-01   7.65946200e-02
C     6.163327986677702e+00   2.134406986387377e+00   3.003243999013615e+00 -1.54071730e-01  -1.91867190e-01  -8.79670400e-02
C     7.392943284001472e+00   2.845155761380747e+00   2.997740569285793e+00 -1.06797200e-02   5.23645600e-02   3.88865600e-02
C     8.623638835089348e+00   2.134593387575167e+00   3.000382051840685e+00 -3.10619700e-02  -6.91410400e-02   5.34098000e-03
C     9.853285160640535e+00   2.845425128659484e+00   3.002313193172516e+00  2.35740750e-01  -1.05014000e-01   1.16075600e-02
C     2.466314721618672e+00   4.265309776580719e+00   2.999634417416430e+00 -1.48567170e-01   2.55037700e-01   4.50763000e-03
C     3.695929222875139e+00   4.977405673134424e+00   3.001008541231946e+00  1.47109380e-01   4.17489700e-02  -2.68109500e-02
C     4.932155989834032e+00   4.265440494615783e+00   3.001810852356774e+00 -1.76501610e-01   1.93191740e-01  -2.99524800e-02
C     6.161380822913686e+00   4.980823476728036e+00   3.000508093661723e+00 -4.09291300e-02  -5.69072200e-02  -3.14270100e-02
C     7.390226927080307e+00   4.268340231653711e+00   2.997434885012443e+00  1.61101240e-01   6.49829600e-02   1.65235400e-02
C     8.623529143140390e+00   4.982988289409080e+00   2.999895514233268e+00  5.18588000e-03  -3.33968310e-01   6.12523000e-03
C     9.855803546559772e+00   4.264861487182726e+00   3.003176290264652e+00 -4.96437200e-02   2.79865380e-01  -1.59065400e-02
C     1.108713192830514e+01   4.979825295626084e+00   3.003264666891444e+00  1.19226030e-01  -7.84874500e-02  -4.04971900e-02
C     3.695847328588735e+00   6.402946186636733e+00   2.997764417201473e+00 -3.32753300e-02  -2.80507350e-01   7.30519200e-02
C     4.926078907499425e+00   7.109057894172269e+00   3.004700455572636e+00  7.66543500e-02   3.23087370e-01  -9.09128600e-02
C     6.159068879444098e+00   6.402909325604995e+00   2.997027234517823e+00  1.32947050e-01   5.85364000e-03   8.94006800e-02
C     7.394110944120088e+00   7.115915277859872e+00   3.002012758813153e+00 -1.24007900e-01  -1.57992500e-01  -5.97320800e-02
C     8.625832271903565e+00   6.400154266587132e+00   3.001392087807209e+00 -1.25001660e-01   1.45010770e-01   1.67057100e-02
C     9.854395164540001e+00   7.110681922195933e+00   3.003494824225481e+00  1.72781620e-01   5.99177900e-02  -6.63589400e-02
C     1.109172859999107e+01   6.404846298676623e+00   2.998179448885092e+00 -2.96980070e-01  -2.80660120e-01   6.93385200e-02
C     1.231955423113689e+01   7.109505095464666e+00   3.000572383499183e+00  1.30464190e-01   2.36442240e-01  -3.67359000e-02
