32
Lattice="9.86 0 0 4.93 8.53901048131456 0 0 0 30 " PBC="1 1 1" Properties=species:S:1:pos:R:3:force:R:3 Energy="-255.05417193"
C     4.936185424500000e+00   8.477435419258406e+00  -4.749027000000012e-01  1.23726492e+00   2.26329880e-01  -1.10798900e-02
C     1.263107559900000e+00   6.792828093595543e-01  -4.756160999999999e-01 -2.07523180e-01   1.02572300e-01  -1.38091900e-01
C     7.448517122000000e+00   8.484791862177030e+00  -5.369747999999994e-01 -1.85677282e+00   2.65264043e+00   3.73442960e-01
C     3.711466197000000e+00   7.228105006714591e-01  -4.090161000000023e-01  5.44407930e-01  -3.02861544e+00   1.23068342e+00
C     9.862021447899998e+00   8.494632815584916e+00  -2.040632999999978e-01  6.82276800e-01   1.58693600e-02  -2.92531630e-01
C     6.193140640199999e+00   6.199366011334496e-01  -1.924767000000003e-01 -1.86526340e-01   1.78114639e+00  -1.33445769e+00
C     1.236586526300000e+01   8.429867580527993e+00  -2.642099999999985e-01 -7.42729280e-01   2.36165347e+00   7.12182510e-01
C     8.655011569199999e+00   6.476383465920368e-01  -4.865135999999985e-01 -4.16802040e-01  -4.18804390e-01   1.06841420e+00
C     1.255025071400000e+00   2.123008064985808e+00  -2.493372000000029e-01 -1.95056620e-01  -5.21436750e-01   8.39448390e-01
C     2.481213734700000e+00   2.784066064277898e+00   1.176738000000000e-01 -1.16491943e+00   1.11814123e+00  -1.38660761e+00
C     3.701820109700000e+00   2.087022027729839e+00  -1.121037000000022e-01 -8.91737980e-01   1.13082774e+00  -1.30127220e-01
C     4.896178474500000e+00   2.810539387688833e+00  -2.037701999999975e-01  3.26881447e+00  -4.57718520e-01   3.71166900e-02
C     6.164177432500000e+00   2.086525057319903e+00  -3.694674000000013e-01 -6.14674500e-02  -6.99572350e-01   8.71626500e-02
C     7.404327658600000e+00   2.805724837409894e+00  -5.459288999999998e-01 -1.79351180e-01  -3.47591530e-01   1.50588025e+00
C     8.665585581100000e+00   2.066217753376577e+00  -4.473026999999981e-01 -1.12980222e+00   2.01241990e+00  -6.58679890e-01
C     9.855964055499999e+00   2.865099224370583e+00  -2.595609000000003e-01  1.05605489e+00  -2.22271047e+00   1.40020700e-01
C     1.231712910710000e+01   4.264899212356983e+00   3.089418000000000e-01  2.47652800e+00  -3.53224706e+00  -5.55418510e-01
C     3.701190006400000e+00   4.908164646292107e+00   1.560225000000000e-01  1.85382035e+00   1.72132857e+00   2.43864870e-01
C     4.973541020499999e+00   4.221114240659316e+00  -1.358880000000013e-01 -2.09506493e+00   8.84093250e-01   2.93717850e-01
C     6.167957805800000e+00   4.983825231770986e+00  -3.637287000000029e-01  4.59401910e-01  -1.82554188e+00  -7.15942590e-01
C     7.403368822899999e+00   4.245656210679884e+00  -4.637963999999997e-01  8.13972320e-01  -4.57229400e-01   2.61403790e-01
C     8.667131924899998e+00   4.953937755799832e+00  -2.749823999999990e-01 -2.03924231e+00   6.82556530e-01  -3.07586900e-02
C     9.875668131599999e+00   4.260026938367200e+00  -2.832899999999938e-02  3.65378330e-01  -5.40737000e-02  -1.14949680e-01
C     1.114259096920000e+01   4.956833590423915e+00   2.886942000000000e-01 -3.90736679e+00  -9.99388360e-01  -1.02549973e+00
C     3.738935910500000e+00   6.363673053259922e+00   1.738746000000000e-01  2.05092850e-01  -1.75573630e-01  -2.44657508e+00
C     4.942871835599999e+00   7.043172070364831e+00  -3.512309999999985e-01 -1.48408556e+00   8.06790010e-01   8.25954000e-01
C     6.156204389999999e+00   6.381024749505807e+00  -5.792496000000007e-01 -8.00818660e-01  -7.70335200e-01   1.70192413e+00
C     7.364793199799999e+00   7.090825213809937e+00  -5.588255999999987e-01  1.66426802e+00  -3.21655910e-01   1.03487180e-01
C     8.554898749400000e+00   6.393952128251688e+00  -2.804339999999996e-01  3.32501008e+00  -1.07845065e+00   1.33751000e-03
C     9.862469831399999e+00   7.064839126336992e+00  -8.740859999999984e-02 -2.10777482e+00   4.96185500e-02  -2.56008060e-01
C     1.105742901530000e+01   6.322562499644591e+00   1.787262000000000e-01  1.96295978e+00   3.75356775e+00  -6.75754500e-02
C     1.235258837860000e+01   7.098147073736119e+00   1.302153000000000e-01 -4.48209060e-01  -2.38861011e+00  -2.61737490e-01
