32
Lattice="9.872 0 0 4.936 8.54940278615998 0 0 0 30 " PBC="1 1 1" Properties=species:S:1:pos:R:3:force:R:3 Energy="-258.07477505"
C     3.525749520687845e-03  -3.495037601375838e-03   2.996111395619754e+00 -2.58619230e-01   2.03055300e-01   2.83234300e-02
C     1.233521980872875e+00   7.088409158685210e-01   2.998064819566275e+00  8.70045600e-02   2.57580750e-01   1.36975300e-02
C     2.466701306752998e+00  -1.863734036680619e-03   2.999356066192937e+00  1.67837930e-01   1.43166440e-01  -1.26995100e-02
C     3.703204755471097e+00   7.128552349348422e-01   2.999208472334228e+00 -1.35840750e-01   7.15064300e-02   2.50798600e-02
C     4.935282096547833e+00   3.597662632437557e-03   3.002135363876691e+00  4.87183200e-02  -3.39893460e-01  -5.27388000e-02
C     6.169903090728859e+00   7.113630104375784e-01   2.997859225337290e+00 -4.50375500e-02   1.33995310e-01   8.16935600e-02
C     7.402324130559225e+00   2.617485935268457e-03   3.001558781613689e+00  1.54550900e-01  -2.26023910e-01  -4.36718600e-02
C     8.640542301333980e+00   7.141881648198086e-01   2.997901845556727e+00 -1.16792960e-01  -1.93949850e-01   3.13186900e-02
C     1.234383717201947e+00   2.140294990372557e+00   3.002373746295196e+00  4.18522000e-03  -1.99098130e-01  -3.61627200e-02
C     2.472589612971170e+00   2.851321779428693e+00   2.999495533564215e+00 -2.14397740e-01  -6.07559600e-02   3.43600600e-02
C     3.704074759524672e+00   2.139869829602647e+00   2.999618752615632e+00  5.58091000e-03  -1.90095570e-01  -2.56587300e-02
C     4.938698937154936e+00   2.847261021216499e+00   2.997362708189475e+00 -1.76152530e-01   3.04678510e-01   4.61985600e-02
C     6.166423295592464e+00   2.137752760459522e+00   3.003672354533250e+00  2.32741990e-01  -1.34340500e-01  -7.65483500e-02
C     7.402134538844548e+00   2.846692065664855e+00   3.001439480893506e+00 -3.15471500e-02   1.62324930e-01   7.58939000e-03
C     8.635268049632487e+00   2.135743198597435e+00   3.002198020554048e+00  9.21165400e-02   3.53318900e-02  -2.36960600e-02
C     9.868948028880743e+00   2.849254590065283e+00   3.002222236792619e+00  1.17726590e-01   8.96341000e-03  -3.89224000e-03
C     2.469568008627870e+00   4.273681938803739e+00   3.002783303618705e+00 -7.29585200e-02   7.92336100e-02  -3.11633300e-02
C     3.701534011332707e+00   4.989513923470231e+00   3.001103243245022e+00  4.44703400e-02  -1.90580730e-01   2.20195000e-03
C     4.936861838445203e+00   4.277416198217962e+00   2.998671842091235e+00 -1.03179860e-01  -2.12914070e-01   1.22738800e-02
C     6.167456896908456e+00   4.985031321060948e+00   3.000712822037824e+00  1.41530770e-01   2.60084920e-01  -2.08909800e-02
C     7.402046319689576e+00   4.274149972419761e+00   2.998434679675868e+00  1.37673300e-02  -7.42100200e-02   3.43500000e-02
C     8.635657542632570e+00   4.988598594470528e+00   2.999858886398365e+00  2.57828900e-02  -2.02485630e-01  -1.96802800e-02
C     9.869571553126978e+00   4.273315192942988e+00   3.000072976848231e+00  7.26329000e-03   5.50197900e-02   1.58068400e-02
C     1.110472676481595e+01   4.984365716258195e+00   3.000675579441762e+00  8.28076200e-02  -5.66221300e-02   1.03438000e-03
C     3.700106554613510e+00   6.408879106832069e+00   3.001579332011227e+00  1.03339400e-02   2.28262600e-01  -5.04103000e-03
C     4.932682082843285e+00   7.125550987030764e+00   3.000095356830627e+00  1.67926830e-01  -1.75088460e-01  -1.15643500e-02
C     6.170175727411414e+00   6.415560424152935e+00   3.000761470670799e+00 -6.68882700e-02  -1.75496120e-01  -8.71077000e-03
C     7.405509150292215e+00   7.126340571608067e+00   2.998753268405437e+00 -6.65315800e-02  -1.58709100e-01   1.10180800e-02
C     8.638549509003470e+00   6.408555490177139e+00   2.998794242758174e+00  3.95836000e-02   2.49485060e-01   4.41196000e-03
C     9.873646315529152e+00   7.122253741084984e+00   2.999371206133408e+00 -1.44307900e-02   8.36310100e-02   7.15637000e-03
C     1.111036890567089e+01   6.408222609925774e+00   2.999072479808134e+00 -3.16908770e-01   7.82613200e-02   1.65876100e-02
C     1.233768706635864e+01   7.120859816353357e+00   3.000983844843238e+00  1.75356150e-01   2.35682380e-01  -9.83120000e-04
