2
Lattice="2.486 0 0 1.243 2.15293915380812 0 0 0 30 " PBC="1 1 1" Properties=species:S:1:pos:R:3:force:R:3 Energy="-16.12116163"
C     0.000000000000000e+00   0.000000000000000e+00   3.000000000000000e+00 -0.00000000e+00   0.00000000e+00  -0.00000000e+00
C     1.243000000000000e+00   7.176463846027048e-01   3.000000000000000e+00  0.00000000e+00  -0.00000000e+00   0.00000000e+00
