32
Lattice="9.86 0 0 4.93 8.53901048131456 0 0 0 30 " PBC="1 1 1" Properties=species:S:1:pos:R:3:force:R:3 Energy="-255.93977482"
C     1.181472084300000e+00   8.093597761441192e-01   3.428358300000000e+00  2.32206850e+00  -1.65241273e+00   1.00570259e+00
C     2.463575279300000e+00   1.498090915209689e+00   3.462868200000000e+00 -1.01203522e+00  -2.87340954e+00   3.20183170e-01
C     3.699187391100000e+00   7.665151202805096e-01   3.604044900000000e+00 -8.05729990e-01   8.92345880e-01  -8.95276200e-02
C     4.900599156200000e+00   1.510144667793362e+00   3.578392800000000e+00  9.87588760e-01  -1.33399572e+00  -1.10456430e-01
C     6.127119756399999e+00   7.845301268604800e-01   3.543787200000000e+00  9.34550060e-01   9.95429910e-01   1.14490108e+00
C     7.390583706000000e+00   1.528368282399359e+00   3.624576000000000e+00 -1.14192575e+00  -1.26022527e+00  -7.02383660e-01
C     8.625482249599999e+00   7.559995850447040e-01   3.617799600000000e+00 -2.53629052e+00  -6.67153020e-01   6.68712900e-02
C     9.801905175799998e+00   1.467670775764794e+00   3.472065300000000e+00  1.69344675e+00  -4.71521890e-01   6.04812100e-01
C     2.444451217700000e+00   2.852042735786244e+00   3.478636800000000e+00  1.19715655e+00   3.54988426e+00  -2.11254530e-01
C     3.695727467799999e+00   3.609281416641701e+00   3.487663500000000e+00 -1.93682696e+00   1.53734590e+00   3.20208500e-01
C     4.904314157699999e+00   2.898935907298631e+00   3.558028500000000e+00  7.34699910e-01   3.20128311e+00  -3.24946070e-01
C     6.126068433900000e+00   3.736217820761826e+00   3.564851700000000e+00  6.25260230e-01  -5.39307480e+00   2.60946780e-01
C     7.362507405300000e+00   2.982411053608386e+00   3.575979600000000e+00 -6.19534420e-01  -2.47697532e+00  -7.26474300e-02
C     8.609657491900000e+00   3.574834792195066e+00   3.540149400000000e+00  7.15769490e-01   1.66247665e+00   9.55444640e-01
C     9.864305714099999e+00   2.849906446144358e+00   3.562234800000000e+00 -1.58763824e+00   2.35410931e+00  -9.15871690e-01
C     1.107853424670000e+01   3.573387942259335e+00   3.504795300000000e+00  4.30624000e-01   7.85241380e-01  -1.90747700e-01
C     3.643685697600000e+00   5.117145485516064e+00   3.502384800000000e+00  9.34431710e-01  -2.93714579e+00   2.13162450e-01
C     4.926489001900000e+00   5.743032154542083e+00   3.551572800000000e+00 -1.25423552e+00   2.06626568e+00   5.17400830e-01
C     6.174177493800000e+00   5.082524750645742e+00   3.625769400000000e+00 -1.77524436e+00   8.20704520e-01  -1.06737736e+00
C     7.396375470000000e+00   5.754527968180992e+00   3.574572000000000e+00 -5.22479800e-02   8.53518010e-01   1.33166149e+00
C     8.570832755900000e+00   4.996479447571612e+00   3.641658300000000e+00  2.98913555e+00   7.92765020e-01  -1.23008741e+00
C     9.852597752900000e+00   5.701925358091363e+00   3.564264600000000e+00 -1.12575549e+00   1.00993240e+00   1.02635585e+00
C     1.109354111740000e+01   5.034365243879171e+00   3.487051800000000e+00 -1.99765085e+00  -1.55998472e+00   3.90399890e-01
C     1.223469423200000e+01   5.816310783047565e+00   3.528710100000000e+00  2.94745000e+00  -1.69932533e+00  -4.00690580e-01
C     4.905561201200000e+00   7.176124975879059e+00   3.610559700000000e+00  1.46769327e+00  -5.28147790e-01   5.89651400e-02
C     6.175528905399999e+00   7.931922527935806e+00   3.597576000000000e+00 -1.64715647e+00  -1.16805304e+00  -4.48138660e-01
C     7.391671017499999e+00   7.175683935987767e+00   3.663519000000000e+00  7.91445850e-01   1.38146002e+00  -2.08169670e-01
C     8.646635351299999e+00   7.911060615261804e+00   3.741355500000000e+00 -7.16727350e-01  -2.06282586e+00  -8.17718960e-01
C     9.877240407199999e+00   7.145899098922584e+00   3.710030400000000e+00 -1.67291793e+00   2.04360040e-01  -8.45395750e-01
C     1.105072594080000e+01   7.904148542448558e+00   3.599037000000000e+00  6.69941960e-01   5.39059610e-01   1.54170100e-02
C     1.227314976030000e+01   7.210890105416597e+00   3.564740400000000e+00 -2.72234780e-01  -9.03684620e-01   5.65652110e-01
C     1.352182933010000e+01   7.803420581634277e+00   3.682915800000000e+00  7.12889240e-01   4.34175373e+00  -1.16267137e+00
