32
Lattice="9.86 0 0 4.93 8.53901048131456 0 0 0 30 " PBC="1 1 1" Properties=species:S:1:pos:R:3:force:R:3 Energy="-254.64432229"
C     4.921427420200000e+00   8.294317108025748e+00  -1.836240000000018e-01  2.64907361e+00   7.66413730e-01  -2.93419570e-01
C     1.311115160400000e+00   4.791436885371136e-01  -2.125191000000015e-01 -3.00573879e+00  -3.37634720e-01  -4.78179690e-01
C     7.413373814200000e+00   8.251962591363691e+00  -1.813952999999984e-01 -3.97131110e-01   6.86668950e-01  -4.33136640e-01
C     3.672117993600000e+00   4.367401579549008e-01  -2.945349000000022e-01  1.81409249e+00   1.16273483e+00   1.36783476e+00
C     9.868837912400000e+00   8.400009564142998e+00  -2.192936999999979e-01  1.25476139e+00  -4.52120734e+00  -1.03945365e+00
C     6.202518979200000e+00   5.214162306985632e-01  -3.408912000000015e-01 -1.37816683e+00  -7.49866890e-01   8.05254230e-01
C     1.235049130450000e+01   8.251945598732837e+00  -3.212108999999970e-01 -9.75479900e-01   2.83477432e+00   2.76891500e-01
C     8.618457443299999e+00   4.197465878085480e-01  -2.156205000000000e-01  2.08255570e+00   2.69832845e+00   8.21178000e-03
C     1.330304741700000e+00   1.892070611944313e+00  -3.944282999999977e-01 -1.14285780e+00   1.37041790e-01   2.13617354e+00
C     2.563389735499999e+00   2.601549838674186e+00  -2.221976999999988e-01 -3.01803674e+00  -5.93834000e-01  -1.07905570e+00
C     3.719301544600000e+00   1.824675532439760e+00  -1.727409000000009e-01  1.71298583e+00   3.78631882e+00  -1.09969943e+00
C     5.012894794799999e+00   2.655999095170221e+00  -2.231018999999996e-01 -3.79950419e+00  -1.97490151e+00   5.77847570e-01
C     6.159887247900000e+00   1.954023182339228e+00  -2.952003000000012e-01  5.47073702e+00  -1.57570487e+00   3.97702860e-01
C     7.503641818399999e+00   2.621514813687370e+00  -2.265063000000005e-01 -2.46097123e+00   7.03363630e-01  -2.78769270e-01
C     8.724919363600000e+00   1.931296862117023e+00  -1.591088999999997e-01 -2.06713528e+00  -2.55015027e+00  -1.22150195e+00
C     9.913055328900001e+00   2.635007731097342e+00  -2.964696000000018e-01  2.51123056e+00  -7.54415170e-01   6.73423470e-01
C     2.431153627300000e+00   4.029330968542079e+00  -3.059466000000022e-01  6.35422350e-01  -1.32361177e+00   5.98809200e-01
C     3.607288493600000e+00   4.652639710304185e+00  -3.795782999999986e-01  7.02886714e+00   5.18953117e+00   1.89624084e+00
C     4.952544347700000e+00   4.045388748529929e+00  -1.609607999999980e-01 -1.01974591e+00   2.00217640e-01  -1.52553773e+00
C     6.211632034899999e+00   4.760161137076144e+00  -1.956249000000021e-01 -8.73847960e-01  -1.18478621e+00  -5.50108560e-01
C     7.465811512700000e+00   4.044525625350611e+00  -2.932220999999977e-01  4.09223200e-02   5.87897470e-01   5.77805850e-01
C     8.694775223699999e+00   4.800072472059665e+00  -3.232757999999976e-01  1.63196630e-01  -3.03352944e+00   1.13574064e+00
C     9.954894069700000e+00   4.050437011525704e+00  -1.585821000000003e-01 -3.37829572e+00   7.18617180e-01  -1.59663440e+00
C     1.111690897230000e+01   4.794470198063946e+00  -1.959069000000007e-01  3.20738760e-01  -1.33538596e+00  -6.55947350e-01
C     3.791866066700000e+00   6.176883394471390e+00  -2.863223999999995e-01 -3.26926284e+00  -2.16866775e+00  -6.89348900e-01
C     5.012825626900000e+00   6.889721184803257e+00  -2.350361999999997e-01 -2.22309975e+00  -6.38822420e-01   2.15931120e-01
C     6.194613231200000e+00   6.158698120022447e+00  -2.124621000000033e-01  1.57269700e+00   1.69866460e-01   2.31164920e-01
C     7.417059975200000e+00   6.856583932223626e+00  -1.738673999999989e-01  4.37486970e-01  -2.17360260e-01  -7.23162040e-01
C     8.673636123200000e+00   6.183242139405531e+00  -2.954490000000014e-01 -1.25523147e+00   1.27238270e-01   8.67718970e-01
C     9.863967417500000e+00   6.864778052070339e+00  -2.131845000000006e-01  2.31247691e+00   3.74664637e+00  -5.32569520e-01
C     1.111739965520000e+01   6.187552973456254e+00  -2.706995999999968e-01  1.59234250e-01   2.94435920e-01   3.52101930e-01
C     1.238091887010000e+01   6.869831950813031e+00  -3.129641999999997e-01  9.80265600e-02  -8.50216440e-01   7.76712100e-02
