32
Lattice="9.86 0 0 4.93 8.53901048131456 0 0 0 30 " PBC="1 1 1" Properties=species:S:1:pos:R:3:force:R:3 Energy="-254.21535308"
C     9.848200685900000e+00   1.761554313070552e-01   4.065229800000000e+00 -1.17630123e+00  -2.88916043e+00  -1.52424850e-01
C     1.215130131000000e+00   7.752775966647713e-01   4.014165299999999e+00 -8.89270490e-01   5.35884617e+00  -8.54478760e-01
C     2.409152614900000e+00   1.676466489241544e-01   4.015309800000000e+00  2.93269354e+00  -2.61663119e+00   1.13874920e-01
C     3.655475743300000e+00   8.617573645921239e-01   3.954240900000000e+00  1.12142950e-01   8.73958880e-01   6.17983590e-01
C     4.843542787200000e+00   9.788558039580321e-02   4.102745400000000e+00  1.57734704e+00   2.72048180e-01  -6.68317950e-01
C     6.071475142200000e+00   8.048821752187215e-01   4.084127100000001e+00  2.38043642e+00   1.26759496e+00  -1.03917806e+00
C     7.366015790500000e+00   1.265468544620280e-01   3.956830200000000e+00 -4.87073810e-01   2.91913324e+00  -1.89153980e-01
C     8.675700905799999e+00   8.966591182973424e-01   3.859442700000000e+00 -4.25378133e+00  -1.70522286e+00   1.45250575e+00
C     1.105286516640000e+01   2.263549076772984e+00   3.815477400000000e+00 -2.84177580e-01  -6.77765100e-01   5.40253830e-01
C     2.376369002300000e+00   3.027119433899361e+00   3.677425800000000e+00  3.36402839e+00  -3.14847464e+00   1.63321658e+00
C     3.744351071800000e+00   2.333078823507432e+00   3.921361200000000e+00 -5.11622695e+00  -3.22418392e+00  -5.50982470e-01
C     4.924695960899999e+00   2.933141646259625e+00   4.184938500000000e+00  3.72111000e-01   3.01777118e+00  -1.68272005e+00
C     6.125958149800000e+00   2.230957381572920e+00   4.000115700000000e+00  1.39266144e+00   1.14961951e+00   1.69516240e+00
C     7.399530275599999e+00   3.047873584261106e+00   3.984521100000000e+00 -2.73668582e+00  -2.36183424e+00  -3.98510320e-01
C     8.566480551900000e+00   2.290678793919516e+00   3.921909000000000e+00  1.61494446e+00   3.48145770e-01  -9.68945600e-02
C     9.806151680599999e+00   2.986022115750274e+00   3.926989500000000e+00  8.23871260e-01  -1.78120584e+00  -1.28758609e+00
C     1.228655300060000e+01   4.387731255699792e+00   3.739982400000000e+00  1.66877765e+00   3.22168514e+00   5.86248550e-01
C     3.739108214000000e+00   5.172772186167186e+00   3.876546900000000e+00 -3.39494386e+00  -1.96403533e+00   3.51521470e-01
C     4.895778996599999e+00   4.403214360282337e+00   4.149888900000001e+00 -1.04439689e+00  -4.20915420e-01  -6.49527970e-01
C     6.063645266899999e+00   5.100000433323795e+00   4.163334900000000e+00  4.45163020e+00   2.11904340e+00  -6.43546610e-01
C     7.367403979900000e+00   4.467671849401561e+00   4.007257800000000e+00 -1.63995727e+00  -1.54499837e+00   1.11987988e+00
C     8.580053285600000e+00   5.145679784496451e+00   4.044588300000000e+00  1.32011093e+00  -5.82312520e-01  -7.06944400e-01
C     9.792146142200000e+00   4.347222702323301e+00   3.836308800000000e+00  1.55493888e+00   4.21069364e+00   1.80362655e+00
C     1.109617260350000e+01   5.093890942105565e+00   3.908695800000000e+00 -2.54594921e+00  -4.33050240e-01  -8.60493200e-01
C     1.350547321700000e+01   6.601584657720853e+00   3.899939100000000e+00 -5.61014960e-01  -1.50746668e+00   7.37295630e-01
C     4.847120734700000e+00   7.242932059121959e+00   4.162384500000000e+00  2.85526068e+00   2.12077426e+00  -1.50937902e+00
C     6.166256462800000e+00   6.540278831979693e+00   4.107722700000000e+00 -2.98982838e+00  -1.23032730e-01   9.74566190e-01
C     7.395439706700000e+00   7.256057372130767e+00   4.111086000000000e+00 -5.13999050e-01   6.58129600e-01   9.23003800e-02
C     8.631998575699999e+00   6.561638227404260e+00   4.157506200000000e+00 -9.37152120e-01  -1.32737536e+00  -9.79707530e-01
C     9.872406443599999e+00   7.196184648518465e+00   4.062424200000000e+00 -3.02611718e+00   2.27636986e+00   1.07291784e+00
C     1.104445650910000e+01   6.510657602355306e+00   4.027658700000000e+00  1.63353309e+00  -5.78434700e-02  -9.04329300e-01
C     1.220219483390000e+01   7.317612024637314e+00   3.899668800000000e+00  3.54238816e+00  -3.44830544e+00   3.82821560e-01
