32
Lattice="9.86 0 0 4.93 8.53901048131456 0 0 0 30 " PBC="1 1 1" Properties=species:S:1:pos:R:3:force:R:3 Energy="-253.88807699"
C     1.058445364000000e-01   9.333924043604160e-02  -8.786850000000257e-02 -7.98007780e-01  -3.82054885e+00   2.76145430e-01
C     1.303772319800000e+00   7.340893380540719e-01  -6.682139999999848e-02  3.40916848e+00   1.32067646e+00  -5.53261140e-01
C     7.526606202100000e+00   8.501626094387825e+00   1.423167000000000e-01 -7.42667270e-01   4.61062123e+00  -9.28575280e-01
C     3.854336956100000e+00   7.627451471535895e-01   2.906460000000000e-02 -1.22414869e+00  -2.54970127e+00  -1.25388340e-01
C     5.057070109100000e+00   1.814292095696080e-02   9.471480000000000e-02  2.37930277e+00  -1.89344645e+00  -1.93232361e+00
C     6.350856565999999e+00   6.799328842273968e-01  -7.089750000000095e-02 -4.15340343e+00   1.67516875e+00   1.62382674e+00
C     7.527913391599999e+00   3.978495762841600e-03  -6.947759999999903e-02  1.45015607e+00  -2.55923580e+00  -1.43488010e+00
C     8.709094803099999e+00   7.583576327887560e-01  -8.265779999999978e-02  1.92743124e+00  -1.00209665e+00  -2.74210180e-01
C     1.314540179300000e+00   2.146619026693742e+00  -4.479672000000008e-01  4.17118113e+00  -7.12495010e-01   1.05097707e+00
C     2.695921643700000e+00   2.870304092818562e+00  -5.628171000000002e-01 -4.85102522e+00  -5.78830260e-01  -2.69258070e-01
C     3.853540662499999e+00   2.141202049225440e+00  -3.261974999999993e-01  7.74380210e-01   2.43894460e-01   7.23182130e-01
C     5.062724326100000e+00   2.873884499912826e+00  -2.455719000000016e-01  1.92374942e+00  -1.51713877e+00   5.46592810e-01
C     6.304405662300000e+00   2.109869516510756e+00   1.484130000000000e-02  8.25511130e-01   1.62163381e+00  -9.31963540e-01
C     7.583237802299999e+00   2.832551590464596e+00   2.986260000000000e-02 -2.82183800e+00   1.87347582e+00  -4.88622600e-01
C     8.779105289400000e+00   2.153220621085934e+00  -1.195118999999991e-01 -4.93707300e-01  -7.27764800e-02   7.20510500e-02
C     9.986358857999999e+00   2.843933152143283e+00  -4.076532000000022e-01 -5.66768470e-01   3.59638740e-01   5.46845000e-02
C     2.613170114700000e+00   4.277156620340604e+00  -7.758785999999986e-01  6.92180850e-01   6.91032120e-01   4.08295080e-01
C     3.910245966200000e+00   5.029524820398478e+00  -6.802808999999996e-01 -1.43700357e+00  -9.57055870e-01   1.20614807e+00
C     5.096067838800000e+00   4.293063857573691e+00  -3.283254000000007e-01 -1.73870983e+00  -8.51055530e-01  -1.00440745e+00
C     6.275727605800000e+00   4.964128979417608e+00  -8.662170000000202e-02  1.88401078e+00   1.45715911e+00   1.79463636e+00
C     7.539326637399999e+00   4.305377793806690e+00   2.040330000000000e-02 -1.66314451e+00  -2.88768037e+00  -6.53109670e-01
C     8.708168702599998e+00   4.985844024628666e+00  -1.833714000000022e-01  3.47758188e+00   7.95784170e-01   2.21274720e-01
C     9.950740741899999e+00   4.252138856656090e+00  -5.033531999999994e-01 -4.88164030e-01   1.40128228e+00   2.16288780e-01
C     1.115109364160000e+01   4.972291419535440e+00  -7.364232000000008e-01  2.91532197e+00   1.20771070e-01   8.60053390e-01
C     3.918239813300000e+00   6.444580860678760e+00  -4.842984000000001e-01 -9.76128980e-01  -5.32734190e-01   5.55075700e-02
C     5.104971763900000e+00   7.140615073847456e+00  -1.339070999999983e-01 -3.44267580e-01   6.55198400e-01   8.33109570e-01
C     6.279364811899999e+00   6.364910868219103e+00   1.968342000000000e-01  3.22375960e-01   2.19862621e+00  -2.36053381e+00
C     7.526306753899999e+00   7.152171599850877e+00   2.562201000000000e-01  1.81975836e+00  -3.70760579e+00  -4.50590400e-01
C     8.856347839200000e+00   6.393285914654038e+00   2.899170000000000e-02 -2.63122411e+00  -6.04608800e-02  -1.62472830e-01
C     1.010536802270000e+01   7.025802271416729e+00  -1.251405000000005e-01 -3.42634722e+00   4.55652848e+00   1.32442303e+00
C     1.128820823130000e+01   6.414296235330183e+00  -4.829949000000013e-01 -7.43974530e-01  -2.48994332e+00  -4.16374000e-01
C     1.250140831660000e+01   7.083505744806691e+00  -4.090247999999974e-01  1.12842027e+00   2.61131435e+00   7.18774730e-01
