32
Lattice="9.86 0 0 4.93 8.53901048131456 0 0 0 30 " PBC="1 1 1" Properties=species:S:1:pos:R:3:force:R:3 Energy="-257.61134751"
C     1.216067274700000e+00   7.391694515589383e-01   3.535030500000000e+00  5.20727820e-01  -5.05889400e-01   1.69046100e-02
C     2.467932955600000e+00   1.435544627416099e+00   3.591613500000000e+00  5.45604100e-02   3.08009380e-01  -1.04303790e-01
C     3.717211717600000e+00   7.227850544202288e-01   3.472411200000000e+00 -1.23857151e+00   7.48675800e-01   2.12010090e-01
C     4.918553476700000e+00   1.478967118118891e+00   3.464186100000000e+00 -5.74944900e-02  -4.84737970e-01   1.10631980e-01
C     6.133536052799999e+00   7.678040839124657e-01   3.403046700000000e+00  1.27589380e+00  -1.24692675e+00   1.15097320e-01
C     7.400554384499999e+00   1.438393497482542e+00   3.414876300000000e+00 -1.33885595e+00   1.11690900e+00   4.65173090e-01
C     8.618711091800000e+00   7.502939890221777e-01   3.460901100000000e+00 -4.05147670e-01  -1.50330400e+00   3.28687530e-01
C     9.827678821399999e+00   1.434983614427563e+00   3.567726900000000e+00  1.51130815e+00   8.15639750e-01  -3.23386810e-01
C     2.472046991300000e+00   2.869485030933321e+00   3.701955000000000e+00 -9.00049500e-01  -5.70100860e-01  -2.22444460e-01
C     3.683885459900000e+00   3.600214439143723e+00   3.664128900000000e+00  1.75953790e-01  -1.71539600e-01  -3.46473660e-01
C     4.909597786600000e+00   2.890038343768576e+00   3.549645300000000e+00  7.44906390e-01   4.17470870e-01   9.46261500e-02
C     6.171743404899999e+00   3.594567079172670e+00   3.508317000000000e+00 -8.01236990e-01  -4.97026600e-01  -2.77478650e-01
C     7.394232497600000e+00   2.874399829195294e+00   3.485414400000000e+00  7.28298100e-02  -6.74281840e-01  -4.15189780e-01
C     8.624903270400001e+00   3.568243786175869e+00   3.487261200000000e+00 -5.67154600e-02   9.79941750e-01   4.14417200e-02
C     9.859809800599999e+00   2.866075489438762e+00   3.585387900000000e+00 -8.84745590e-01  -5.64286960e-01   1.22998440e-01
C     1.106900534550000e+01   3.562660554173521e+00   3.696993900000000e+00  1.37665284e+00   3.00350230e-01  -2.50399560e-01
C     3.666039845899999e+00   5.018199786969168e+00   3.597406800000000e+00  6.92824140e-01   2.12437410e-01   3.84997700e-02
C     4.917500428699999e+00   5.726933216523719e+00   3.502275900000000e+00  2.61820000e-03  -6.23547470e-01  -9.66418900e-02
C     6.167338548500000e+00   5.000886260100130e+00   3.437853900000000e+00 -4.86047620e-01   1.16072555e+00   2.50804340e-01
C     7.399133114800000e+00   5.741014813316182e+00   3.363526800000000e+00 -2.96478740e-01  -1.84402794e+00   2.81922900e-01
C     8.615269113699998e+00   5.005358652229136e+00   3.407939100000000e+00  7.16124380e-01  -4.66943340e-01   3.31377410e-01
C     9.869198246100000e+00   5.691560024049901e+00   3.460515300000000e+00 -8.52225040e-01   3.20701340e-01   4.97108000e-02
C     1.108580545440000e+01   4.987935399075429e+00   3.639411300000000e+00 -8.34798170e-01  -1.83349870e-01  -6.38698050e-01
C     1.228127962610000e+01   5.712059284948817e+00   3.565693500000000e+00  1.46273704e+00   3.37389650e-01   3.24158510e-01
C     4.922253244500000e+00   7.147432278254269e+00   3.473513400000000e+00  2.32330880e-01  -7.37341300e-02   1.09566000e-03
C     6.170155550499999e+00   7.849589986618380e+00   3.420548100000000e+00 -4.61115590e-01   2.29895020e-01   5.00177860e-01
C     7.406552764799999e+00   7.129119601768966e+00   3.392517000000000e+00 -5.86953570e-01   1.55609002e+00  -1.80473190e-01
C     8.630703316800000e+00   7.850261750572842e+00   3.401702400000000e+00  4.50586170e-01  -6.05026920e-01  -2.14429490e-01
C     9.857272428199998e+00   7.113380326872019e+00   3.377978100000000e+00  2.95486180e-01   7.52266410e-01   4.62986840e-01
C     1.107773686850000e+01   7.857725785023515e+00   3.424622400000000e+00 -4.10793400e-02   1.99191550e-01  -2.47324250e-01
C     1.231460129890000e+01   7.136507468246156e+00   3.478872000000000e+00 -5.34256180e-01   4.43577970e-01   2.01449420e-01
C     1.354422311560000e+01   7.852162534305689e+00   3.511807200000000e+00  1.90231400e-01   1.15451960e-01  -6.32510880e-01
