26
Lattice="8.88768389401873 1.33226762955019e-15 0 4.44384194700937 7.69696003302603 0 0 0 30 " PBC="1 1 1" Properties=species:S:1:pos:R:3:force:R:3 Energy="-208.62071542"
C     1.307658578254866e+01   7.397595159319582e+00  -9.021990000000102e-02 -1.36790769e+00  -1.56662761e+00  -1.52449380e-01
C     9.293825229657628e+00   7.090945654757972e+00  -8.397539999999992e-02 -7.99731600e-02   2.32628958e+00  -1.30349312e+00
C     1.066068835354278e+01   6.743936216643853e+00  -3.139055999999982e-01  7.57013800e-02  -4.46636380e-01   1.38047135e+00
C     1.102829442343825e+01   5.347477528096957e+00  -2.916720000000019e-01 -1.34600385e+00   5.31265290e-01   4.58844080e-01
C     6.901326494974696e+00   6.543354977654059e+00   1.880160000000000e-02  3.78801500e-01   1.34887267e+00  -7.82218120e-01
C     8.245472032218164e+00   6.130835866059008e+00  -1.091991000000014e-01  1.03242566e+00   3.31835100e-02   5.47919050e-01
C     8.580270239122644e+00   4.742534492721505e+00  -1.821209999999986e-01  6.21039160e-01   1.34212377e+00  -3.57079920e-01
C     9.954083220712340e+00   4.351646301837962e+00  -2.611902000000015e-01  1.12223282e+00   1.50512863e+00   7.61456040e-01
C     1.031305575007887e+01   3.017114351878034e+00  -5.544869999999946e-02  3.12308730e-01  -1.12390819e+00  -5.28339260e-01
C     4.505100932228291e+00   5.970675212666759e+00  -1.742057999999993e-01  4.99711010e-01   2.16507078e+00   8.29141780e-01
C     5.873632363247443e+00   5.609819559215471e+00  -1.376267999999996e-01 -8.64342760e-01  -1.14379314e+00   5.63208750e-01
C     6.183148620122525e+00   4.225389679803459e+00  -1.420539000000005e-01  2.40270720e-01  -8.42487700e-01  -5.64552700e-02
C     7.536090075927451e+00   3.824604044986940e+00  -1.566477000000006e-01  6.90054580e-01  -2.34836585e+00  -4.15994900e-02
C     7.918564929884149e+00   2.400736250864412e+00  -1.505478000000018e-01 -1.02335408e+00   1.23173881e+00  -3.30152840e-01
C     9.280893735188284e+00   2.032144998643775e+00  -7.848720000000142e-02  6.54805160e-01  -3.86805350e-01   9.65737580e-01
C     3.506436509049953e+00   4.997525157315367e+00  -1.276137000000013e-01 -1.03395483e+00  -1.36055933e+00  -1.10980304e+00
C     3.829488352967916e+00   3.591184803603555e+00  -8.969730000000098e-02 -7.11988800e-01   5.52188070e-01   4.98516710e-01
C     5.174123512729830e+00   3.198593891222176e+00  -1.094127000000000e-01  4.17260250e-01   1.71466124e+00  -5.96685810e-01
C     5.506117299889837e+00   1.856747520145738e+00  -2.149371000000002e-01  9.23149790e-01  -1.81353346e+00   7.67799830e-01
C     6.875901894297037e+00   1.433635005491797e+00  -2.329892999999998e-01  2.16546070e-01   5.69679330e-01   5.73859990e-01
C     7.218292182989540e+00   7.163730033041660e-02  -1.801041000000012e-01  1.19869798e+00  -9.58569160e-01  -6.84267630e-01
C     2.807076482815051e+00   2.610888274803509e+00   1.762020000000000e-02 -3.65965280e-01   3.29161620e-01  -2.15744660e-01
C     3.178289663662894e+00   1.225511900216607e+00   9.352200000000001e-02 -8.31020190e-01   7.62218130e-01  -5.86392020e-01
C     4.513648347817103e+00   8.545693806460061e-01  -6.373049999999836e-02  8.00175140e-01  -2.01613127e+00   6.51250600e-02
C     7.733670134084928e-01   6.543449727232029e-01   7.437330000000000e-02  1.32560450e-01   1.56744650e-01  -1.18997162e+00
C     2.167909006756758e+00   2.502267851224946e-01   7.431630000000000e-02 -1.69122977e+00  -5.60908620e-01   5.22571970e-01
