32
Lattice="9.86 0 0 4.93 8.53901048131456 0 0 0 30 " PBC="1 1 1" Properties=species:S:1:pos:R:3:force:R:3 Energy="-257.04107571"
C     9.823337463400000e+00   1.801910530500080e-01   8.779560000000000e-02 -1.10258806e+00  -1.43490640e-01  -2.53116000e-02
C     1.162963089500000e+00   8.934773976023896e-01   4.410000000000000e-02  1.75769057e+00  -1.44992780e-01  -4.55085000e-02
C     2.394586634100000e+00   1.576679612772264e-01   1.707819000000000e-01  1.02407886e+00   1.42752870e+00  -3.21439860e-01
C     3.661188479400000e+00   8.854892386884544e-01   1.006350000000000e-01 -6.26716570e-01  -9.09690900e-02   3.03074080e-01
C     4.897578150800000e+00   1.691839269808688e-01   1.848741000000000e-01 -2.21193100e-01  -3.01641500e-02  -8.47460220e-01
C     6.137828357300000e+00   8.699715511134648e-01   8.459010000000000e-02 -7.97913550e-01  -2.71645730e-01   4.64207400e-01
C     7.346657948300000e+00   1.808956068047128e-01   6.562110000000000e-02  1.54597658e+00  -7.63035620e-01   2.05607540e-01
C     8.588019573999999e+00   8.932935527067551e-01   1.045617000000000e-01 -1.27369800e-01  -5.26144580e-01  -3.39917960e-01
C     1.106503260360000e+01   2.311764941008723e+00  -1.587930000000028e-01 -1.27326290e-01  -4.32505110e-01   3.79081830e-01
C     2.431190454400000e+00   3.026302677546949e+00  -2.231895000000002e-01  8.55096870e-01  -6.32621600e-02   2.63188770e-01
C     3.680753677399999e+00   2.322733641530702e+00  -5.330400000000068e-02 -5.44086800e-01  -9.41084710e-01  -1.81197790e-01
C     4.931485310400000e+00   3.007420534452735e+00  -1.251090000000232e-02 -6.27545730e-01  -9.39673180e-01  -1.12128000e-01
C     6.174148061700000e+00   2.269687002896112e+00   8.665860000000000e-02 -2.34066314e+00   9.15743520e-01   3.40961000e-02
C     7.351030168099999e+00   2.977668999528423e+00   1.330443000000000e-01  1.93964124e+00   2.40508953e+00  -1.26973010e-01
C     8.591904068900000e+00   2.301960534565692e+00   9.879570000000000e-02  5.72677040e-01  -2.02490410e-01  -6.84834480e-01
C     9.831119616299999e+00   2.999699305006404e+00  -1.219158000000000e-01 -1.19361158e+00   7.26735230e-01   1.11096170e+00
C     1.229489904690000e+01   4.466707965898578e+00  -2.927268000000005e-01 -7.09290850e-01  -1.54759932e+00   1.40456820e-01
C     3.651322908500000e+00   5.144267005212535e+00  -2.268323999999993e-01  1.80210045e+00   7.22457750e-01   1.07698269e+00
C     4.884153169200000e+00   4.401369080117609e+00  -5.766300000000157e-02  7.85795070e-01   1.60671372e+00   2.75497410e-01
C     6.124056747400000e+00   5.122778670729720e+00   1.677885000000000e-01 -7.47328740e-01   1.13107639e+00  -5.74581260e-01
C     7.374064804300000e+00   4.453804325601831e+00   1.570026000000000e-01 -1.74159382e+00  -1.73461791e+00   9.25861500e-02
C     8.561655758099999e+00   5.175517221866191e+00   1.114305000000000e-01  1.81920052e+00  -7.68355030e-01   7.77626800e-02
C     9.785560746799998e+00   4.417867643826437e+00  -3.573689999999985e-02  1.54103205e+00   1.16680795e+00  -9.70931730e-01
C     1.105739918880000e+01   5.136652513397205e+00  -2.026995000000014e-01 -1.44309712e+00   9.35359730e-01   6.25809990e-01
C     1.356195469870000e+01   6.580562894770665e+00  -4.731960000000157e-02 -1.99854436e+00  -7.32139040e-01  -5.77877780e-01
C     4.885037808400000e+00   7.291669059167293e+00   7.486740000000000e-02  1.53395484e+00   1.66714850e-01   5.91674920e-01
C     6.108080194999999e+00   6.574278610007909e+00   2.253063000000000e-01  5.45510220e-01  -7.85825720e-01  -4.92449250e-01
C     7.351725347399999e+00   7.288431578733905e+00   2.771310000000000e-01 -2.59559350e-01  -1.94158740e-01  -4.33859220e-01
C     8.602345907500000e+00   6.593759935467505e+00   1.851807000000000e-01 -8.73747480e-01  -4.90250510e-01   2.06820060e-01
C     9.830178035599999e+00   7.276378936221595e+00   1.302441000000000e-01  6.50142520e-01   5.59324840e-01  -2.42911550e-01
C     1.106721072690000e+01   6.573381586956985e+00  -7.539389999999813e-02  2.76028530e-01  -1.06628270e-01   4.19098070e-01
C     1.232481182190000e+01   7.301419669844300e+00  -2.006940000000057e-02 -1.16674900e+00  -8.54519510e-01  -2.89524000e-01
