26
Lattice="8.88768389401873 1.33226762955019e-15 0 4.44384194700937 7.69696003302603 0 0 0 30 " PBC="1 1 1" Properties=species:S:1:pos:R:3:force:R:3 Energy="-207.13213092"
C     9.890926544254128e-01   1.228825672418323e+00   3.293058600000000e+00 -6.86065760e-01  -4.00932300e-02  -5.63996820e-01
C     3.373231010759753e+00   6.314372033123166e-01   3.366692400000000e+00 -1.25412968e+00  -2.91104320e-01  -3.86323450e-01
C     4.711915111194329e+00   9.933758190398240e-01   3.615214500000000e+00 -4.92919370e-01   1.41836300e-02  -9.41946210e-01
C     1.011438646661328e+01   7.673526635188664e+00   3.847467300000000e+00  2.55358454e+00   1.08091354e+00  -6.55130190e-01
C     7.078131319647960e+00   3.940400960158275e-01   3.744354600000000e+00  7.91242320e-01  -6.18042570e-01  -1.07025436e+00
C     1.263509657311480e+01   7.078394837793853e+00   3.563536800000000e+00 -1.83444226e+00   4.54069638e+00   3.31275290e-01
C     5.073970649887221e+00   7.510016264791360e+00   3.223643400000000e+00 -2.36713410e-01   6.60386700e-01   9.51059550e-01
C     6.068589531386312e+00   6.500774317193695e+00   3.165458100000000e+00  1.10673144e+00   1.31823748e+00   9.75289960e-01
C     7.437928142374307e+00   6.937250293851722e+00   3.345345000000000e+00  3.07590500e-02  -4.47741530e-01  -5.27784910e-01
C     8.432626924153324e+00   5.930708901650184e+00   3.520429200000000e+00  1.40007788e+00  -1.11723215e+00   1.34415128e+00
C     9.817335051295876e+00   6.313552075971169e+00   3.833610600000000e+00 -2.80695420e-01  -1.14641033e+00  -5.06768590e-01
C     1.094863051320969e+01   5.331290744184266e+00   3.852979200000000e+00 -3.21414056e+00   2.63059992e+00  -6.88146220e-01
C     3.385234097830469e+00   5.783403864839242e+00   3.717600000000000e+00  8.50613750e-01  -2.71778710e+00  -4.67118700e-01
C     4.396282262958040e+00   4.792693810936208e+00   3.500183700000000e+00 -1.69035544e+00  -1.09058899e+00  -3.04229600e-02
C     5.716683864357860e+00   5.136171268031760e+00   3.318957900000000e+00  8.59650490e-01   9.48122620e-01  -5.73786800e-01
C     6.686921473716441e+00   4.136151587033241e+00   3.325107300000000e+00  3.44493509e+00   1.47038700e-02   1.48979820e+00
C     8.109521841163982e+00   4.497060657387135e+00   3.552753600000000e+00 -1.92041163e+00   2.63947066e+00  -1.26370501e+00
C     9.145348646824964e+00   3.568212841546019e+00   3.606197100000000e+00  1.49021295e+00   5.29358240e-01  -5.73333520e-01
C     1.056313580026088e+01   4.045865553154938e+00   3.586069500000000e+00 -6.80909950e-01  -3.82246663e+00   8.68247730e-01
C     2.711521527383464e+00   3.021168571634635e+00   3.472517400000000e+00 -2.26500838e+00   3.81025300e-01  -1.24894596e+00
C     4.029047474258938e+00   3.421115468716685e+00   3.432401100000000e+00  2.13747980e+00  -1.46697416e+00   1.10756870e-01
C     5.061995025751485e+00   2.345365782830998e+00   3.381246900000000e+00 -1.58459142e+00   1.82291240e+00   1.53664218e+00
C     6.383300193592440e+00   2.778833864478901e+00   3.479892300000000e+00  4.12728900e-02  -1.01487390e+00  -1.05486020e+00
C     7.375605699849068e+00   1.765380140352821e+00   3.502600200000000e+00  2.77397944e+00   3.33242250e-01   1.18746165e+00
C     8.814471462074023e+00   2.206188350963734e+00   3.486317400000000e+00 -3.46054830e-01  -1.91176975e+00  -4.71057440e-01
C     2.375515837962104e+00   1.663834069707431e+00   3.171288600000000e+00 -9.94101500e-01  -1.22876834e+00   2.22889861e+00
