32
Lattice="9.86 0 0 4.93 8.53901048131456 0 0 0 30 " PBC="1 1 1" Properties=species:S:1:pos:R:3:force:R:3 Energy="-248.29939142"
C     9.844793710799999e+00   1.106212242003669e+00   3.570213900000000e+00  3.64926037e+00  -9.60897310e-01  -9.00133870e-01
C     1.236798614900000e+00   1.879632689279145e+00   3.508603200000000e+00  2.21997772e+00  -9.33060250e-01   2.30514786e+00
C     2.549202033600000e+00   1.065120644991603e+00   3.518999100000000e+00 -9.20553850e-01   2.16789696e+00   1.20676591e+00
C     3.705913685900000e+00   1.849245766585017e+00   4.164406200000000e+00 -1.42779995e+00  -1.89265758e+00  -1.87646641e+00
C     4.885787414899999e+00   1.066971304732934e+00   4.449186900000000e+00 -1.06406000e-02   1.07267026e+00  -4.55803899e+00
C     6.193545984800000e+00   1.871296992638674e+00   4.098128400000000e+00 -9.24663230e-01  -7.65072730e+00   8.67408090e-01
C     7.310956416600000e+00   1.096490237011770e+00   3.703983900000000e+00  4.26326794e+00  -5.82592160e-01  -6.25818040e-01
C     8.713901553099999e+00   1.801295807135625e+00   3.686751300000000e+00 -5.70129004e+00   1.14865579e+00  -1.09313370e-01
C     1.116071148000000e+01   3.315698964845467e+00   4.016280900000000e+00 -4.00355903e+00  -1.89999679e+00  -1.49842500e+00
C     2.455873781200000e+00   4.030066775075141e+00   4.119746100000000e+00  3.36111586e+00  -1.10525080e+00   1.05540000e-03
C     3.702557637700000e+00   3.275652457326049e+00   4.121379600000000e+00  2.00592275e+00   4.70500850e-01   1.34840579e+00
C     5.061252030900000e+00   3.939964929682382e+00   4.211203500000000e+00 -2.07628043e+00   1.35805326e+00  -1.61765054e+00
C     6.272843703700000e+00   3.177223454303298e+00   4.068263099999999e+00  2.27121070e-01   6.36950889e+00   8.94805640e-01
C     7.565898154200000e+00   3.922770863569958e+00   3.991750800000000e+00 -4.31897304e+00   1.55398350e+00  -3.33058609e+00
C     8.731523887400000e+00   3.243054187087915e+00   3.768045300000000e+00  6.28366800e-01  -7.46126970e-01   2.39906463e+00
C     9.860542004199999e+00   4.040826269840360e+00   4.123388100000001e+00  2.52610728e+00  -8.61233440e-01  -1.71642990e+00
C     1.239290222110000e+01   5.417458299982528e+00   4.178611800000000e+00 -1.60214184e+00   2.50507302e+00   2.86315350e-01
C     3.786554287500000e+00   6.120577330146480e+00   4.171740900000000e+00  1.13514894e+00  -3.05026381e+00  -2.19462298e+00
C     5.043490424100000e+00   5.403730986734881e+00   3.936831000000000e+00  5.89414680e-01  -1.17351538e+00   1.70507403e+00
C     6.243638827400000e+00   6.134368771362832e+00   3.577534200000000e+00 -4.25913730e-01  -1.73221448e+00  -8.79120310e-01
C     7.526365766000000e+00   5.353013448598817e+00   3.505211400000000e+00 -4.42393718e+00  -1.42100208e+00   2.83708779e+00
C     8.642623662400000e+00   6.094786017502582e+00   3.672642000000000e+00  2.97138485e+00  -9.89529170e-01  -5.02149010e-01
C     9.808621857100000e+00   5.486570147544086e+00   4.122282300000000e+00  4.31211922e+00  -1.73487717e+00  -5.27142600e-02
C     1.117536437670000e+01   6.228292677846439e+00   4.114597500000000e+00 -2.71820509e+00  -3.78946242e+00   4.07907200e-01
C     1.368804048400000e+01   7.389735325024852e+00   3.722397000000000e+00 -4.57565427e+00   4.61952565e+00  -5.41376470e-01
C     4.969281747000000e+00   8.191611597774404e+00   3.574788000000000e+00 -1.67050000e-04   1.77706880e+00  -1.23596053e+00
C     6.175477978500000e+00   7.576754768585403e+00   3.292611900000000e+00  2.72964491e+00  -3.50863177e+00   1.16115952e+00
C     7.503933230700000e+00   8.145616644774408e+00   3.208849200000000e+00 -1.28397642e+00   3.71015046e+00   1.42193928e+00
C     8.734963597699998e+00   7.428172741409420e+00   3.408762000000000e+00 -2.99995469e+00   4.02716782e+00   1.30786984e+00
C     9.729289283100000e+00   8.228749718324336e+00   3.976043100000000e+00  5.05762612e+00   1.22591150e+00   3.56893730e-01
C     1.110908811890000e+01   7.607197024067441e+00   3.914292900000000e+00 -2.59298812e+00  -2.63589563e+00   1.29285900e-02
C     1.226492509060000e+01   8.125732107239946e+00   3.474974100000000e+00  4.33022005e+00   4.66176779e+00   3.11897712e+00
