26
Lattice="8.88768389401873 1.33226762955019e-15 0 4.44384194700937 7.69696003302603 0 0 0 30 " PBC="1 1 1" Properties=species:S:1:pos:R:3:force:R:3 Energy="-206.7920821"
C     1.211076913359807e+00   1.493850094107294e+00   3.810278400000000e+00 -8.23734950e-01  -3.09765210e+00  -1.53673007e+00
C     3.554855941604194e+00   8.378000138286450e-01   3.801944700000000e+00  1.00225007e+00   1.55608760e-01  -2.01543290e-01
C     4.916644331842360e+00   1.320433043424976e+00   3.750300300000000e+00 -3.65011930e-01  -4.43266829e+00   3.47638300e-02
C     5.908461370926792e+00   2.059935103740891e-01   3.694806600000000e+00 -7.19368370e-01   2.95548604e+00   6.31002160e-01
C     7.274777902734002e+00   5.998768193141055e-01   3.681134400000000e+00 -2.52805880e-01   5.88591740e-01  -1.73015870e-01
C     1.277521944199767e+01   7.356243703376009e+00   3.753619200000000e+00  8.06210200e-01  -1.51931200e-02  -7.16741660e-01
C     5.246504146674027e+00   7.694125393560151e+00   3.737976600000000e+00  6.10880560e-01   5.25196437e+00   8.95978650e-01
C     6.250653691614735e+00   6.778161903961252e+00   3.782506500000000e+00  1.75388830e+00  -2.89089625e+00  -4.94400350e-01
C     7.633659249559750e+00   7.109975541766544e+00   3.828166200000000e+00  5.17919880e-01   2.56792240e+00  -4.41994390e-01
C     8.698599841276465e+00   6.168023112687149e+00   3.770559000000000e+00 -5.83297175e+00  -2.33706682e+00   3.68238650e-01
C     9.952688433470444e+00   6.552024217675049e+00   3.756854100000000e+00  6.59330685e+00   8.26197010e-01  -7.02628730e-01
C     1.108462754147143e+01   5.600329207498482e+00   3.676881000000000e+00  7.29611070e-01   1.93464945e+00   2.97466690e-01
C     3.639959339904213e+00   5.993525562755821e+00   3.697093200000000e+00 -4.78665119e+00  -4.73852860e-01  -8.88480000e-02
C     4.593990302124841e+00   4.988951359598750e+00   3.635753100000000e+00  3.44424110e-01   1.47145509e+00   3.09901770e-01
C     5.925481955505517e+00   5.367702445119786e+00   3.663518400000000e+00  1.43929521e+00   1.08488266e+00  -7.75293900e-02
C     6.925607112693974e+00   4.377171499476650e+00   3.604918800000000e+00  9.77483670e-01   4.08851990e-01   1.82564047e+00
C     8.316395837646430e+00   4.759588877968776e+00   3.748595700000000e+00  4.25099230e-01   4.33516680e-01  -9.16375110e-01
C     9.372314008189845e+00   3.824520302061813e+00   3.718429500000000e+00 -1.01290110e-01  -1.32144093e+00  -6.36523850e-01
C     1.078989039017941e+01   4.266926555514154e+00   3.664322100000000e+00 -2.72719692e+00  -2.11086475e+00   1.37551936e+00
C     2.909766027207858e+00   3.306697309995525e+00   3.856548600000000e+00 -1.47320620e-01  -2.48952486e+00  -2.24413201e+00
C     4.245153241303283e+00   3.668397012083700e+00   3.697860600000000e+00 -1.12603282e+00  -9.90555110e-01   7.76384880e-01
C     5.226804369884883e+00   2.683617850731783e+00   3.744989700000000e+00 -2.08797772e+00  -1.73259106e+00   1.73657200e-02
C     6.508984620028313e+00   3.022931637299107e+00   3.767159400000000e+00  6.37721392e+00  -3.00134020e-01  -2.28714194e+00
C     7.571198648016406e+00   1.981155486320236e+00   3.587522400000000e+00  1.42489759e+00   1.46783851e+00   1.69194275e+00
C     9.021660615769601e+00   2.380036046559730e+00   3.646646100000000e+00 -9.48127320e-01   2.23886214e+00   7.01710130e-01
C     2.612800777936339e+00   1.870627448167837e+00   3.749207700000000e+00 -3.08399108e+00   8.06613330e-01   1.59168958e+00
