26
Lattice="8.88768389401873 1.33226762955019e-15 0 4.44384194700937 7.69696003302603 0 0 0 30 " PBC="1 1 1" Properties=species:S:1:pos:R:3:force:R:3 Energy="-204.70805881"
C     1.199910840012837e+01   5.934978174470023e+00   4.633620000000000e-02  1.65581487e+00   8.21320420e-01  -1.18712350e-01
C     8.327539083072004e+00   5.805684332007683e+00   1.364526000000000e-01 -9.47886250e-01   3.78298011e+00  -1.37981999e+00
C     9.621162492425238e+00   5.484464559078883e+00  -2.757627000000014e-01  2.62329066e+00  -3.47921776e+00   1.80155995e+00
C     1.000534475927354e+01   3.967466473438166e+00  -6.838980000000205e-02  2.66743844e+00   4.99998537e+00  -3.09835882e+00
C     5.817845793248343e+00   5.223442017818311e+00   4.458093000000000e-01  3.31535344e+00  -2.11876137e+00  -1.46592061e+00
C     7.289646867365673e+00   4.908572775701463e+00   1.287660000000000e-01 -3.55180442e+00  -2.80555375e+00   2.73199439e+00
C     7.593424435617505e+00   3.505184514039557e+00   1.926609000000000e-01  1.42304790e-01   7.52542700e-01  -2.80989928e+00
C     8.976400219358789e+00   3.124723317939055e+00  -9.035639999999745e-02 -3.69907223e+00  -4.80700933e+00   3.15680360e+00
C     9.203402730148795e+00   1.697649278146430e+00   2.014989000000000e-01  2.57370868e+00  -1.45347739e+00  -1.01158150e-01
C     3.519971873642763e+00   4.578492416325327e+00   2.246820000000000e-02 -9.81625270e-01  -2.08471779e+00  -3.74306900e-02
C     4.877772403953915e+00   4.131346605795312e+00   2.682660000000000e-01 -1.21859646e+00   3.63599304e+00  -1.80752158e+00
C     5.202387236034728e+00   2.838851987887230e+00  -1.600190999999995e-01 -5.65447620e-01  -1.36402748e+00   3.46946275e+00
C     6.562989475469194e+00   2.533715474758718e+00   4.089000000000000e-02  1.01749950e+00  -3.61174241e+00   1.08707200e-02
C     6.906065137810677e+00   1.026711583838555e+00   8.446470000000000e-02 -3.63951790e-01   3.25092428e+00  -6.60224760e-01
C     8.236792183229223e+00   6.094855502763569e-01   2.869071000000000e-01  1.67803130e-01   2.06420490e+00  -5.83311870e-01
C     2.518120282534817e+00   3.531088786959722e+00  -2.195280000000004e-01 -2.05277752e+00   1.60692258e+00   2.53027102e+00
C     2.722343126281975e+00   2.147511037992631e+00   9.720239999999999e-02  4.79586034e+00   3.01808074e+00  -1.06430317e+00
C     4.152549573125553e+00   1.774089327596366e+00   8.264370000000000e-02 -9.91307840e-01   5.90415671e+00  -1.40113495e+00
C     4.485724000267091e+00   5.147286601950283e-01   7.611150000000000e-02  2.10462401e+00  -5.12728539e+00  -6.95484050e-01
C     5.907034231019732e+00   1.037407048587442e-01  -1.543380000000028e-01 -1.33532719e+00  -8.09557540e-01   8.45181250e-01
C     1.071669760399620e+01   6.413650194495716e+00  -2.990145000000020e-01 -2.48729711e+00  -9.09216700e-02   1.31595918e+00
C     1.737568642178870e+00   1.268916751156984e+00   3.134421000000000e-01 -3.83640614e+00  -2.66258879e+00   3.90854190e-01
C     6.503586021578416e+00   7.544104484402623e+00   5.166282000000000e-01  1.86306637e+00   1.66540028e+00  -1.34482243e+00
C     7.921163558471377e+00   7.223729221928314e+00   2.474148000000000e-01 -8.97467270e-01  -1.78077997e+00   6.76823470e-01
C     4.102999627820955e+00   6.919718235264989e+00   3.797118000000000e-01  4.39403940e-01   7.69254390e-01  -3.28244550e-01
C     5.475320500626315e+00   6.568143114400275e+00   5.381876999999999e-01 -4.37201070e-01  -7.61248900e-02  -3.34333000e-02
