32
Lattice="9.86 0 0 4.93 8.53901048131456 0 0 0 30 " PBC="1 1 1" Properties=species:S:1:pos:R:3:force:R:3 Energy="-250.44117643"
C     1.128989522800000e+00   9.474575208626528e-01   3.873770400000000e+00 -5.39957370e-01   8.21154157e+00   1.81826260e+00
C     2.355389781700000e+00   1.818682769494791e+00   4.086374699999999e+00  8.34940300e-02  -2.88751155e+00  -2.06359658e+00
C     3.510176712700000e+00   1.141728633683238e+00   3.511584600000000e+00  2.32461430e-01  -1.08150532e+00   8.48553360e-01
C     4.741586886900000e+00   1.806284126277831e+00   3.564786900000000e+00  8.62038950e-01   2.54804250e+00  -7.75100800e-02
C     5.992004676100001e+00   1.138125683601307e+00   3.389204100000000e+00  1.04532409e+00   2.27213129e+00   3.62701420e-01
C     7.290928883199999e+00   1.887985122380157e+00   3.475688700000000e+00  2.17012510e-01  -3.65074135e+00   3.38187320e-01
C     8.556386820600000e+00   1.173259015270743e+00   3.553390200000000e+00 -7.44982800e-02   2.48163120e-01   1.29818509e+00
C     9.755079937199998e+00   1.813773948540154e+00   4.047449100000000e+00 -9.95944380e-01   7.58166990e-01  -2.23011249e+00
C     2.422473573500000e+00   3.217300275309921e+00   4.434932700000000e+00 -6.20207660e-01   1.47414016e+00  -8.88502520e-01
C     3.631413497900000e+00   4.028719916952130e+00   4.287801600000000e+00  6.18028800e-02  -1.90592665e+00  -2.04043002e+00
C     4.766310491800001e+00   3.299158389205079e+00   3.782703300000000e+00  1.31360847e+00  -1.55465047e+00   1.59722000e-03
C     6.030399121700000e+00   3.947791957468560e+00   3.446086200000000e+00 -2.04170190e-01  -6.24094500e-02   1.08972636e+00
C     7.345516456099999e+00   3.232393147113530e+00   3.547095000000000e+00 -2.93519339e+00   4.16973294e+00  -9.16847810e-01
C     8.503355796600001e+00   4.073108852861048e+00   3.655631400000000e+00  2.23471283e+00  -4.28088437e+00   1.54635205e+00
C     9.712356507899999e+00   3.370430691808180e+00   4.127116500000001e+00  2.49330798e+00  -2.53963411e+00  -6.44022260e-01
C     1.109113389700000e+01   4.020951381387741e+00   4.339833600000000e+00 -4.60369850e+00  -1.35556174e+00  -1.39612610e-01
C     3.616360728900000e+00   5.465232355816033e+00   4.050233700000000e+00 -4.78593484e+00  -2.35203045e+00   1.65755174e+00
C     4.716556389500000e+00   6.006422373083132e+00   3.578936400000000e+00  4.29553324e+00   6.11737241e+00  -1.96108368e+00
C     5.956134834200000e+00   5.366849207279561e+00   3.291167700000000e+00  2.38956101e+00  -8.00333490e-01   6.89589170e-01
C     7.233953859200000e+00   6.066227638512641e+00   3.113344800000000e+00  5.64720510e-01   2.49199552e+00   7.61668160e-01
C     8.567005942000000e+00   5.412879084832420e+00   3.379643100000000e+00 -2.92561544e+00   1.81452531e+00  -5.26017210e-01
C     9.796546610899998e+00   6.098379318502671e+00   3.517269000000000e+00 -3.03611900e-02   1.07090047e+00   5.99419060e-01
C     1.097155408480000e+01   5.422526458872722e+00   4.182456300000000e+00  9.38141300e-01   2.56299067e+00  -2.49588982e+00
C     1.219368782310000e+01   6.206792132578637e+00   4.071626400000000e+00  1.15845922e+00   1.28749433e+00  -4.70799490e-01
C     4.750010284900000e+00   7.547962762268728e+00   3.447259500000000e+00  3.73835565e+00  -4.01790848e+00  -6.49786900e-01
C     6.029585523800000e+00   8.258203241782894e+00   3.322005900000000e+00 -1.89708516e+00  -1.65447791e+00   1.08946122e+00
C     7.243260466699999e+00   7.632556348171154e+00   3.139524300000000e+00 -1.15702273e+00  -7.34756480e+00  -1.00699555e+00
C     8.442952499900001e+00   8.200203806289695e+00   3.106437900000000e+00  3.41281026e+00   4.45954702e+00   1.48026621e+00
C     9.746423251600000e+00   7.547862599675798e+00   3.161578800000000e+00  4.60275200e-01  -1.88458101e+00   2.38740937e+00
C     1.093999907750000e+01   8.293313176563615e+00   3.447793500000000e+00  1.31706129e+00  -7.42230300e-01  -5.63256830e-01
C     1.225408244300000e+01   7.682326056143939e+00   3.722886900000000e+00 -3.79092651e+00  -5.11015919e+00  -1.46596020e-01
C     1.348882342380000e+01   8.248987429332249e+00   3.490437600000000e+00 -2.25806523e+00   3.74136633e+00   8.52129540e-01
