32
Lattice="9.86 0 0 4.93 8.53901048131456 0 0 0 30 " PBC="1 1 1" Properties=species:S:1:pos:R:3:force:R:3 Energy="-256.88461424"
C     5.018588698299999e+00   6.707364980255940e+00  -3.555203999999996e-01  2.20199204e+00  -2.90161960e-01  -2.83100390e-01
C     6.258938983799999e+00   7.445212592992574e+00  -2.960436000000009e-01  1.18805250e-01  -1.12289650e+00   3.38656750e-01
C     7.490576430999999e+00   6.709537048351738e+00  -2.714813999999990e-01  1.64042172e+00   8.44558900e-01  -6.62310590e-01
C     8.792250296299999e+00   7.396283123651021e+00  -3.555633000000000e-01 -1.02107259e+00   3.12968160e-01   9.42312590e-01
C     1.006031497120000e+01   6.694292011381374e+00  -3.831369000000002e-01 -2.52248179e+00  -2.27816620e-01  -1.00100780e-01
C     1.127484546630000e+01   7.435386668243133e+00  -4.503303000000010e-01 -1.51080689e+00  -7.26359080e-01  -2.32059240e-01
C     1.246766951650000e+01   6.711739002984215e+00  -5.784734999999976e-01  1.13862995e+00   2.22361330e-01   1.12626530e+00
C     1.371569270610000e+01   7.435460445293680e+00  -4.451327999999997e-01 -2.17868982e+00   4.25762780e-01  -2.23407310e-01
C     1.326450270500000e+00   3.185243036775800e-01  -2.567691000000032e-01  4.08587490e-01  -1.47006500e-02  -6.11399720e-01
C     2.572373921000000e+00   9.877881212607408e-01  -2.834535000000002e-01  9.01922340e-01   1.23785597e+00   6.24866470e-01
C     3.792271559200000e+00   2.790205356642704e-01  -2.513258999999977e-01  2.53913016e+00   5.53191800e-01  -8.33998070e-01
C     5.103161221399999e+00   1.042867129779675e+00  -2.731349999999999e-01 -2.65184890e+00  -2.06893634e+00  -5.05425900e-01
C     6.292581303800000e+00   3.099655680833712e-01  -3.966384000000005e-01  1.01989892e+00   2.69123020e-01   1.76251140e-01
C     7.531418473700000e+00   1.023898828069718e+00  -4.167437999999990e-01 -6.42810940e-01   4.63310740e-01   6.42501830e-01
C     8.755563454799999e+00   3.425417222843616e-01  -3.460710000000020e-01  4.20849480e-01  -1.22042035e+00  -1.00056650e+00
C     9.976884876999998e+00   1.054407431663186e+00  -3.205089000000001e-01 -3.09397600e-02  -4.38219900e-02   1.22295116e+00
C     2.665006106700000e+00   2.441179536750354e+00  -2.852246999999970e-01 -3.17926697e+00  -1.00861576e+00  -2.81686000e-03
C     3.851970358900000e+00   3.128782330971097e+00  -3.819015000000014e-01  8.61425160e-01   8.36884620e-01   2.06706710e-01
C     5.085746883800000e+00   2.435617993834625e+00  -3.277163999999999e-01  1.62037330e-01   5.90283970e-01   6.04367430e-01
C     6.298645105200000e+00   3.164334586494681e+00  -2.237171999999994e-01  6.73323300e-02  -4.03177880e-01  -1.20073227e+00
C     7.518765283599999e+00   2.443946944656818e+00  -3.217448999999988e-01  1.83735810e-01  -4.63110800e-02   5.41253730e-01
C     8.744209615499999e+00   3.153558952999655e+00  -2.459342999999983e-01  4.24809490e-01  -1.88770580e-01  -5.10242000e-03
C     9.982487230400000e+00   2.467231459994101e+00  -1.682036999999994e-01  1.50935815e+00   9.42404100e-02  -1.09193053e+00
C     1.127749780630000e+01   3.181268383567674e+00  -2.172618000000028e-01 -1.25700935e+00  -1.37547862e+00  -1.90865760e-01
C     3.841253574200000e+00   4.552106865879373e+00  -4.540404000000002e-01 -1.45653640e+00   4.20826770e-01   9.94439500e-02
C     5.044117322900000e+00   5.266750571537655e+00  -3.971477999999991e-01  4.91135720e-01   8.16957860e-01   4.82665070e-01
C     6.284836421700000e+00   4.576043505447013e+00  -2.581941000000008e-01  2.15804840e-01   5.37012360e-01  -3.07009030e-01
C     7.517254978100000e+00   5.307991088892492e+00  -2.790222000000000e-01 -4.12219340e-01  -1.25615424e+00   1.27594040e-01
C     8.753933695399999e+00   4.558882570695253e+00  -2.951553000000011e-01 -1.59684572e+00   8.86715030e-01   3.60974060e-01
C     9.952512830400000e+00   5.243200236804130e+00  -3.437517000000021e-01  2.50484377e+00   2.15409565e+00  -2.23744200e-02
C     1.121251892730000e+01   4.584496613481585e+00  -3.321927000000002e-01  5.80793640e-01  -5.52065260e-01  -2.55551070e-01
C     1.243867224250000e+01   5.287688737575244e+00  -4.915598999999986e-01  1.06901486e+00  -1.20462470e-01   3.19406300e-02
