32
Lattice="9.86 0 0 4.93 8.53901048131456 0 0 0 30 " PBC="1 1 1" Properties=species:S:1:pos:R:3:force:R:3 Energy="-255.96919959"
C     4.986673258700000e+00   8.355844179528447e+00  -5.283966000000007e-01 -1.17413365e+00   4.18830190e-01   6.36152800e-02
C     1.288342307200000e+00   5.365656307515504e-01  -5.166816000000019e-01 -1.32109511e+00   1.26729132e+00  -9.04760720e-01
C     7.417741005400000e+00   8.391349641274600e+00  -6.151544999999992e-01  1.87435837e+00  -1.08917764e+00   8.54546110e-01
C     3.736521443000000e+00   5.470628071148240e-01  -4.820087999999991e-01 -1.42317449e+00   8.99788600e-01   4.69107670e-01
C     9.876216347600000e+00   8.384864433595251e+00  -3.471117000000028e-01  5.58360260e-01  -7.15852490e-01  -5.08631220e-01
C     6.202985800900000e+00   5.425758132778985e-01  -4.028052000000031e-01 -8.66528760e-01  -1.31907570e-01   3.01452280e-01
C     1.234132387090000e+01   8.410481550425354e+00  -3.826578000000005e-01  1.28997786e+00  -3.60210390e+00   6.35600780e-01
C     8.661188168999999e+00   5.194391082120240e-01  -5.423186999999992e-01  4.25717490e-01   1.59254501e+00   6.97638900e-01
C     1.294446978300000e+00   1.981274409604890e+00  -4.497971999999990e-01 -1.10100268e+00   5.44358860e-01   1.59252034e+00
C     2.501155781900000e+00   2.700175922058815e+00  -1.518632999999987e-01 -4.10000850e-01  -1.75917530e+00  -1.19198465e+00
C     3.695862697700000e+00   1.976942740368596e+00  -2.955261000000000e-01  2.27223134e+00  -1.08512359e+00  -3.90480450e-01
C     4.973806846100000e+00   2.625328079597423e+00  -3.419625000000011e-01 -1.52783681e+00   2.60167094e+00   7.51607300e-01
C     6.200109688200000e+00   1.942516097206485e+00  -4.459461000000005e-01 -1.01697520e-01   1.11051174e+00  -6.68309790e-01
C     7.406341070600000e+00   2.682013361377750e+00  -5.928143999999982e-01  1.59708603e+00   1.57858310e-01   1.08101794e+00
C     8.660611457599998e+00   1.972323050308811e+00  -5.301314999999995e-01  7.56757030e-01   6.32641550e-01  -3.72842360e-01
C     9.929700389299999e+00   2.739861485605244e+00  -3.951764999999980e-01 -1.09783819e+00  -1.84133915e+00  -4.55524950e-01
C     2.493084139400000e+00   4.066476774201441e+00   2.764140000000000e-02 -1.62851370e-01   2.94860595e+00  -4.25944950e-01
C     3.731197536000000e+00   4.843836352401447e+00  -1.143972000000026e-01 -2.86939260e-01  -2.46119736e+00   1.12010158e+00
C     4.932497833799999e+00   4.096280824040205e+00  -2.421779999999991e-01  2.37141592e+00   2.57343400e-02  -1.25284982e+00
C     6.206941879400000e+00   4.856344124172341e+00  -4.705019999999998e-01 -5.85723050e-01  -2.57051457e+00   4.13417340e-01
C     7.471014437499999e+00   4.124825626003482e+00  -5.442743999999990e-01 -1.97829421e+00  -3.74322610e-01  -1.79700600e-02
C     8.678591759200000e+00   4.850591563592174e+00  -4.484451000000007e-01  4.00236400e-02  -1.31692526e+00   6.83948810e-01
C     9.927981347599999e+00   4.174887197354473e+00  -2.297400000000032e-01 -2.85062451e+00  -2.82985835e+00  -8.90985830e-01
C     1.109072628460000e+01   4.796483099004396e+00   1.883280000000000e-02  3.58143212e+00   2.30766362e+00  -1.83413720e-01
C     3.750749718800000e+00   6.245402549315529e+00  -8.784720000000235e-02 -4.05022880e-01   2.09499160e-01  -1.43737438e+00
C     4.937076176899999e+00   6.942289724241071e+00  -4.548086999999974e-01  1.24652133e+00   5.24357300e-02   7.33036350e-01
C     6.194499151000000e+00   6.244978160494673e+00  -5.493416999999994e-01 -3.53206200e-01   7.31151590e-01   1.61560250e-01
C     7.437375815000000e+00   6.962953531871938e+00  -6.034083000000017e-01 -1.11330435e+00   2.29966700e-02   2.94099430e-01
C     8.628805118899999e+00   6.233783261585079e+00  -4.006469999999993e-01  1.27703682e+00   1.78901988e+00  -5.27488920e-01
C     9.859752070300001e+00   6.962629134863803e+00  -2.732349000000021e-01  1.51700688e+00  -2.53482480e-01   3.51881060e-01
C     1.115011045170000e+01   6.259652364614449e+00  -6.020669999999839e-02 -3.15535991e+00  -1.57724923e+00  -2.84216500e-02
C     1.235354874260000e+01   6.897293835467235e+00  -9.323969999999804e-02  1.10670874e+00   4.29562604e+00  -9.48167950e-01
