32
Lattice="9.676 0 0 4.838 8.37966180701823 0 0 0 30 " PBC="1 1 1" Properties=species:S:1:pos:R:3:force:R:3 Energy="-257.27708337"
C     3.372894858613770e-05   6.607862609798189e-04   3.000896064571768e+00 -5.19498700e-02  -6.73707000e-02  -6.26856000e-03
C     1.208309965568494e+00   6.978449017886494e-01   3.001106943445526e+00  8.22362700e-02   7.35048000e-03  -4.82294000e-03
C     2.419031729326976e+00  -4.395699762343935e-04   3.000094824648633e+00 -5.10828900e-02   7.24208200e-02  -3.59438000e-03
C     3.627825715705733e+00   6.990465289896711e-01   2.999618413939362e+00  6.80601200e-02  -1.17019590e-01   1.17799100e-02
C     4.838094072125894e+00  -1.195291312751990e-03   3.000418855844719e+00 -3.89184600e-02   1.08001850e-01  -9.35490000e-03
C     6.046798548690210e+00   6.993515074020259e-01   2.999695798048996e+00  4.45270900e-02  -5.23337400e-02   1.13174300e-02
C     7.257610601372526e+00   6.365332454643176e-04   3.000896238182302e+00 -1.08783950e-01  -3.31395600e-02  -1.09118000e-02
C     8.465556858940204e+00   6.978215730854249e-01   2.999939297047834e+00  7.02355000e-02   2.75631200e-02   7.93082000e-03
C     1.209918333923664e+00   2.094329067849792e+00   3.000486585042414e+00  6.63391000e-03   1.31781600e-02  -3.17406000e-03
C     2.419379783143627e+00   2.792451379105314e+00   2.999569570379653e+00  1.60316600e-02   5.10518600e-02   7.04884000e-03
C     3.629437453108291e+00   2.093907573375136e+00   3.000596438606620e+00 -8.29408600e-02   7.80279200e-02  -8.58455000e-03
C     4.836941324768491e+00   2.793780555184589e+00   3.000586634967729e+00  8.78609100e-02  -3.57801600e-02  -1.09707200e-02
C     6.047277248352739e+00   2.096104107228892e+00   2.999884220125697e+00 -4.88006500e-02  -4.81869600e-02   7.24157000e-03
C     7.256249816195827e+00   2.792861686775418e+00   3.000519629421083e+00  6.60118600e-02   3.68305000e-02  -1.57389000e-02
C     8.466155136143707e+00   2.093830817036671e+00   2.999554708071527e+00  2.64837900e-02   7.09205100e-02   6.58886000e-03
C     9.677206608355377e+00   2.792707544187567e+00   2.999907584212955e+00 -9.21000900e-02  -8.21979000e-03   4.53181000e-03
C     2.419569113560470e+00   4.190904162890967e+00   2.999214798992608e+00 -8.35722100e-02  -1.26449860e-01  -2.22970000e-03
C     3.627804347308310e+00   4.887247017439694e+00   2.999295299804047e+00  1.06096290e-01   8.04732800e-02  -2.91350000e-04
C     4.839199069137851e+00   4.189218039776522e+00   2.999056718590680e+00 -1.10376520e-01   4.59037300e-02   1.76868300e-02
C     6.047505612656363e+00   4.888029912764992e+00   3.000567231863820e+00  2.57261700e-02   1.88359600e-02  -2.22816000e-02
C     7.257292562426458e+00   4.190123772387475e+00   2.999153767602120e+00 -2.38110900e-02  -3.78070300e-02   1.54824200e-02
C     8.466592586126737e+00   4.887217674076021e+00   2.999160668737770e+00 -3.25666000e-03   7.36962000e-02   4.21013000e-03
C     9.675879481928932e+00   4.189659329517007e+00   3.000565228573548e+00  7.93410000e-03  -4.10077600e-02  -1.70271900e-02
C     1.088446846957960e+01   4.887600937016163e+00   2.999190345640712e+00  7.98039100e-02   8.64832300e-02   1.28406900e-02
C     3.628519565206936e+00   6.284938063801766e+00   3.000335292578382e+00 -3.28294900e-02  -5.22383700e-02  -5.32170000e-03
C     4.837308228178798e+00   6.982852126180060e+00   2.999919723502870e+00  1.82951800e-02   4.06808100e-02   5.40604000e-03
C     6.046491444432578e+00   6.284916345428247e+00   2.999343283984086e+00  3.04802600e-02  -3.83034000e-03   5.48467000e-03
C     7.255876930192152e+00   6.984175202172539e+00   2.998971102410723e+00  7.58356900e-02  -1.06411240e-01   3.21192000e-03
C     8.467057531702624e+00   6.284752717048885e+00   2.999014525609347e+00 -7.75534200e-02  -1.30707500e-02   1.34593000e-03
C     9.676057933488195e+00   6.982892379097343e+00   3.000116151687818e+00  1.88487700e-02  -8.56782000e-03   2.70830000e-04
C     1.088655228185632e+01   6.285943881946524e+00   3.000392647420475e+00 -8.43166000e-02  -1.14048640e-01  -5.28186000e-03
C     1.209464714112815e+01   6.982904326665468e+00   3.000666472905333e+00  5.91913100e-02   5.40638900e-02   3.47554000e-03
