32
Lattice="9.86 0 0 4.93 8.53901048131456 0 0 0 30 " PBC="1 1 1" Properties=species:S:1:pos:R:3:force:R:3 Energy="-251.36028946"
C     5.098975996499999e+00   7.934365111883610e+00  -1.416993899999998e+00  1.75278402e+00  -5.92353690e-01   1.22787991e+00
C     1.486613251100000e+00   1.163398336748648e-01  -1.323919799999999e+00 -4.54230024e+00  -8.25279360e-01  -1.26794423e+00
C     7.535531769900000e+00   7.912049091114969e+00  -1.523253599999997e+00  4.14295083e+00   2.22176428e+00   1.36065637e+00
C     3.943581886700000e+00   2.034414977354760e-01  -1.507569600000000e+00 -3.01521417e+00  -3.83092212e+00   2.34851010e+00
C     1.007356843810000e+01   7.959794968213889e+00  -1.208513700000001e+00 -2.85443608e+00  -4.56466490e-01  -2.38915879e+00
C     6.322652134600000e+00   7.311374021311359e-02  -1.424546100000001e+00  2.90964975e+00   2.23357310e-01   1.53868591e+00
C     1.251260498750000e+01   7.885411306362189e+00  -1.287839699999999e+00  7.74499100e-02  -1.29065410e+00   9.02440760e-01
C     8.843605268199999e+00   5.711334237568960e-02  -1.366524300000002e+00 -3.38732175e+00   3.18356412e+00  -9.04675840e-01
C     1.409106502600000e+00   1.501956952204509e+00  -1.069344899999997e+00 -8.95142040e-01   9.36535650e-01  -1.12015601e+00
C     2.602286991800000e+00   2.134384759428522e+00  -7.058025000000008e-01  1.68209749e+00   2.58657208e+00  -8.26586120e-01
C     3.859579863200000e+00   1.530337890556675e+00  -1.062826200000000e+00  7.63634130e-01  -5.46974620e-01   1.61284370e-01
C     5.156676568600000e+00   2.166940590784570e+00  -1.002082200000000e+00 -3.79603300e+00   3.37113991e+00   7.20575460e-01
C     6.275020101499999e+00   1.505795322805374e+00  -1.352383799999998e+00  3.02617741e+00  -8.07539770e-01  -4.59700870e-01
C     7.520115364100000e+00   2.231561858124799e+00  -1.412513699999998e+00  2.73860420e-01  -2.60329225e+00  -8.17096860e-01
C     8.725722608499998e+00   1.550776097530660e+00  -1.489555200000002e+00  4.39537165e+00  -1.39549151e+00   8.04512410e-01
C     1.007785946080000e+01   2.314462414419355e+00  -1.343047499999997e+00 -1.77925936e+00  -2.10525319e+00   2.26244138e+00
C     2.611149849999999e+00   3.576068423039112e+00  -4.259769000000020e-01  1.82674845e+00  -1.72716700e-01   7.99656300e-02
C     3.906790036200000e+00   4.333879132206624e+00  -3.774165000000025e-01  8.39981340e-01  -1.49539967e+00  -2.14645556e+00
C     5.121289127199999e+00   3.637969417810728e+00  -7.719209999999990e-01  1.25632287e+00  -1.13423701e+00  -9.11212530e-01
C     6.330417919899999e+00   4.340879156827813e+00  -1.206940800000002e+00  4.12863400e-02   1.21501580e-01   1.14420419e+00
C     7.622257273300000e+00   3.580412303060393e+00  -1.428872399999999e+00 -3.81997840e+00   3.45418568e+00   1.72525240e+00
C     8.767941205800000e+00   4.301884826179741e+00  -1.149469799999999e+00  2.67319740e+00   3.02569571e+00   4.51906350e-01
C     1.008177639510000e+01   3.710703086667377e+00  -9.344265000000007e-01 -2.81710192e+00  -4.03434606e+00  -1.83377816e+00
C     1.126520218910000e+01   4.273899500183113e+00  -5.180232000000018e-01 -5.31258820e-01   4.10668762e+00  -7.52177920e-01
C     3.995405652300000e+00   5.719770865313305e+00  -6.778572000000018e-01 -5.52644590e+00   2.70870508e+00  -1.30802939e+00
C     5.009041408200000e+00   6.523181171295588e+00  -1.219071000000003e+00  4.49897001e+00  -2.50251364e+00   1.40285951e+00
C     6.319634580200001e+00   5.784530293843101e+00  -1.191577500000001e+00 -2.06230296e+00   1.99880210e-01  -8.67406840e-01
C     7.490898951600000e+00   6.533979945509016e+00  -1.292301599999998e+00  2.59844447e+00  -2.55009424e+00  -2.94616430e-01
C     8.729482177200000e+00   5.753771070292045e+00  -1.076863500000002e+00  1.68232680e-01   2.19958375e+00  -1.28220406e+00
C     9.977666972200000e+00   6.559393919279802e+00  -1.068064800000002e+00  6.66126600e-01  -4.04872950e+00   1.67319452e+00
C     1.119595969820000e+01   5.760695183110067e+00  -7.074782999999982e-01  2.24864802e+00   1.34508856e+00  -6.64130880e-01
C     1.251485173640000e+01   6.440909513122885e+00  -8.565284999999996e-01 -8.15139170e-01   7.08002370e-01   4.09612400e-02
