26
Lattice="8.88768389401873 1.33226762955019e-15 0 4.44384194700937 7.69696003302603 0 0 0 30 " PBC="1 1 1" Properties=species:S:1:pos:R:3:force:R:3 Energy="-207.96581873"
C     1.250128440413982e+01   6.741743968488109e+00  -2.146259999999955e-02  3.12251670e-01  -2.40339450e-01  -3.87159970e-01
C     8.646069096967564e+00   6.475566388247444e+00   1.458849000000000e-01  1.84547148e+00   5.79609400e-01  -6.35728460e-01
C     1.006039609675162e+01   6.091463606417548e+00   7.934430000000001e-02 -2.22986760e-01   4.60645100e-02   4.84496900e-02
C     1.033822696065277e+01   4.684673442361583e+00   3.525570000000000e-02  3.51995699e+00   2.03099128e+00   1.24209810e-01
C     6.274302529161748e+00   5.900532738943769e+00   4.163910000000001e-02  1.90695519e+00   2.49822743e+00   7.35091510e-01
C     7.626440893838543e+00   5.481535634878667e+00   1.540557000000000e-01  4.46221920e-01   2.88643500e-02  -8.41689210e-01
C     7.949966629073894e+00   4.094242948153096e+00   2.921160000000000e-02  1.84747963e+00   1.14695971e+00   9.36719400e-01
C     9.361751040247309e+00   3.704927015294881e+00   1.322622000000000e-01 -1.07127588e+00   9.00969890e-01  -8.63815520e-01
C     9.777023847495931e+00   2.378307232367391e+00   9.919050000000000e-02 -1.14313357e+00  -1.50531534e+00  -8.68662810e-01
C     3.950766222285867e+00   5.364146141707525e+00  -1.794323999999996e-01 -1.52234361e+00  -2.11907510e-01   1.40667552e+00
C     5.296436352835112e+00   4.969000762231389e+00  -7.148249999999834e-02 -1.79512202e+00  -2.53892082e+00  -5.26825160e-01
C     5.588226124171264e+00   3.553283509993430e+00  -8.038409999999985e-02  1.02554990e+00   8.33681300e-01  -5.34862980e-01
C     6.941027954458221e+00   3.146251176355763e+00  -8.637750000000111e-02  3.14753760e-01  -2.92922140e-01   6.80991430e-01
C     7.327374727940483e+00   1.782245873109757e+00  -3.416100000000100e-02  1.80459210e-01   8.98179000e-02   1.11223050e-01
C     8.705384562752940e+00   1.411469069088602e+00   2.938320000000000e-02  1.08059953e+00   1.97797710e-01   3.18891020e-01
C     2.920989128460735e+00   4.333628642042935e+00  -1.002489000000004e-01 -2.20079380e+00   3.11821866e+00  -4.02985960e-01
C     3.268814946907626e+00   3.034657648026411e+00  -2.099897999999989e-01 -1.34857556e+00  -4.27861295e+00   1.00806665e+00
C     4.589313601297457e+00   2.580624751600753e+00  -1.598217000000020e-01  5.38110670e-01   1.39908530e-01  -3.71667590e-01
C     4.942601168080091e+00   1.212107259476361e+00  -1.298630999999979e-01 -7.81731380e-01  -2.15230129e+00   8.42241880e-01
C     6.300087341051134e+00   8.251216582368294e-01   1.098030000000000e-02  5.93711620e-01  -2.18848814e+00  -5.91419530e-01
C     1.114409876817385e+01   7.089217610261636e+00   4.065390000000000e-02 -2.61563957e+00   9.95436950e-01  -1.10994740e-01
C     2.256787579865028e+00   1.958815136802762e+00  -6.313859999999849e-02 -9.96272850e-01   3.75446763e+00   1.91273890e-01
C     2.561988999567651e+00   6.373139862344221e-01   9.373800000000000e-03  2.51780900e-01  -3.43463284e+00   8.60406000e-02
C     3.897970976922972e+00   1.584697852128586e-01  -2.870730000000066e-02  1.07405809e+00   1.67291189e+00   2.92822210e-01
C     2.209192920785216e-01   5.912573786245100e-02   2.607600000000000e-02 -3.07485277e+00  -1.25949335e+00   1.16478290e-01
C     5.962695933496008e+00   7.318598256717281e+00   1.040001000000000e-01  1.83536721e+00   6.90067200e-02  -7.63363040e-01
