32
Lattice="9.86 0 0 4.93 8.53901048131456 0 0 0 30 " PBC="1 1 1" Properties=species:S:1:pos:R:3:force:R:3 Energy="-252.40922604"
C     9.585742177300000e+00   9.980135009204359e-01   3.264281400000000e+00  2.90404310e+00  -6.65343170e-01  -8.39827920e-01
C     1.082546275390000e+01   1.689906635566750e+00   3.405326400000000e+00  2.73581610e-01   2.65173053e+00   8.99750220e-01
C     2.254274939400000e+00   1.067062928315384e+00   3.222650400000000e+00 -1.34854728e+00  -3.01598662e+00   2.41766150e-01
C     3.512736763099999e+00   1.591325638157455e+00   3.675020400000000e+00 -1.36163220e+00   2.58414889e+00  -1.39112455e+00
C     4.766807337200000e+00   9.535256832701600e-01   3.601083900000000e+00 -1.90455646e+00   1.76081771e+00   1.17571060e-01
C     5.905773454500000e+00   1.840414721946601e+00   3.758568599999999e+00  2.37237690e+00  -7.36051052e+00  -1.94914666e+00
C     7.164486658900000e+00   9.876193050235511e-01   3.476647500000000e+00 -2.87029650e-01   3.27529343e+00   8.79883620e-01
C     8.438791826399999e+00   1.673531802119778e+00   3.431415300000000e+00 -3.83459578e+00   1.09709122e+00   7.02313640e-01
C     1.077445633300000e+01   3.179858678327531e+00   3.831208200000000e+00 -7.02504320e-01  -3.59304185e+00  -1.27568027e+00
C     2.168957148200000e+00   3.729415047282725e+00   3.786219600000000e+00  1.59836642e+00   2.11254517e+00   1.33995663e+00
C     3.438658484499999e+00   3.020356708379410e+00   3.772168500000000e+00  7.54771500e-01   2.16609702e+00   1.79776810e-01
C     4.648488569700000e+00   3.883856116499559e+00   3.689553300000000e+00  5.77719260e-01  -2.39847286e+00  -1.11066598e+00
C     5.915484617800000e+00   3.170123523259493e+00   3.594405900000000e+00  6.88675230e-01   3.41815260e+00   2.08987890e-01
C     7.233561825600000e+00   3.864611492410468e+00   3.418761300000000e+00 -3.37173006e+00  -7.46553560e-01   1.92071310e-01
C     8.448973311700000e+00   3.068825498105567e+00   3.576104100000000e+00 -2.92046196e+00   3.60704883e+00   2.92304900e-01
C     9.514305244799999e+00   3.924638686722353e+00   3.880768800000000e+00  2.91993546e+00  -1.92509332e+00  -1.20031140e+00
C     1.204358411310000e+01   5.170548884008508e+00   3.865514700000000e+00  1.97994617e+00   2.51710113e+00  -2.01443234e+00
C     1.329451753100000e+01   5.951185478260422e+00   3.494976000000000e+00 -1.36654520e+00  -4.03363840e-01  -2.05538630e-01
C     4.647479546600000e+00   5.246215873745246e+00   3.324076800000000e+00  2.16421810e-01   1.24599809e+00  -1.72916120e-01
C     5.847601377200000e+00   5.992978469593315e+00   2.893555500000000e+00 -2.34316290e-01  -9.52901610e-01   1.72952293e+00
C     7.115158212799999e+00   5.298171483010806e+00   3.152488500000000e+00  5.80720020e-01  -8.73425550e-01   3.44107170e-01
C     8.333700594000000e+00   6.006990473450366e+00   3.310641000000000e+00  8.71320880e-01   1.24037774e+00  -1.21827908e+00
C     9.519162034299999e+00   5.340857740230012e+00   3.756073500000000e+00  1.68761997e+00   2.74418500e-02  -5.13082290e-01
C     1.088766367650000e+01   5.985538856712615e+00   3.739756500000000e+00 -3.19615251e+00   8.32339800e-02  -1.19607400e-01
C     1.326041415740000e+01   7.361238426910369e+00   3.232204800000000e+00  2.39900180e-01   1.29797701e+00   5.71552050e-01
C     1.444343174740000e+01   8.177196381842489e+00   2.949583200000000e+00  2.96221650e-01  -3.36314475e+00   8.47214360e-01
C     5.774597740000000e+00   7.437527483560574e+00   2.767937400000000e+00  3.67724359e+00   2.91518120e-01   3.54278640e-01
C     7.125259930700000e+00   8.186975683594708e+00   2.828364000000000e+00  1.22003500e-01  -1.13905143e+00   7.79690880e-01
C     8.416479287300000e+00   7.412994308720801e+00   2.942082900000000e+00 -2.29363867e+00   9.23180120e-01   1.98063798e+00
C     9.610940196100000e+00   8.112293668716838e+00   3.314848500000000e+00  1.46859942e+00  -4.46813680e-01   1.72243470e-01
C     1.085218074100000e+01   7.437278656795187e+00   3.500398800000000e+00 -5.70558400e-02  -2.62934342e+00   4.72747690e-01
C     1.207389735200000e+01   8.135665367351121e+00   3.447669600000000e+00 -3.50700450e-01  -7.86707240e-01  -2.95764750e-01
