32
Lattice="9.86 0 0 4.93 8.53901048131456 0 0 0 30 " PBC="1 1 1" Properties=species:S:1:pos:R:3:force:R:3 Energy="-255.93264785"
C     4.927961642200000e+00   8.380175662940681e+00  -2.646452999999980e-01  1.31290531e+00   1.30431966e+00  -3.52269000e-03
C     1.267064279300000e+00   5.475974345609768e-01  -2.246970000000026e-01 -1.17405051e+00   1.54792790e+00  -6.56416450e-01
C     7.429896857100000e+00   8.415698202707796e+00  -2.550540000000012e-01 -1.68718814e+00  -2.89510552e+00  -3.72040020e-01
C     3.696871326400000e+00   5.376188323041536e-01  -2.083839000000012e-01  9.21285000e-01   1.86286974e+00   1.25017661e+00
C     9.826293491400000e+00   8.378360781653262e+00  -7.553400000000110e-02  2.89965527e+00  -2.85521910e-01  -5.73501200e-01
C     6.170043836700000e+00   5.516558554619112e-01  -1.131200999999997e-01 -6.32752310e-01   4.37997540e-01  -2.17244950e-01
C     1.234011118950000e+01   8.378772788908922e+00  -1.081143000000004e-01 -1.37209469e+00  -6.86758300e-01   2.28816980e-01
C     8.610865046100001e+00   5.512883364508520e-01  -2.783844000000002e-01  1.33657766e+00   4.04862300e-02   9.36982000e-01
C     1.262850953400000e+00   1.998385134975029e+00  -1.464521999999988e-01  1.20590643e+00  -1.08766724e+00   1.82069923e+00
C     2.528439437200000e+00   2.702703383770790e+00   1.772211000000000e-01 -2.25825034e+00  -1.57829547e+00  -1.82543658e+00
C     3.717843743600000e+00   1.956111909692741e+00   6.291900000000000e-03  8.11843870e-01   1.15465716e+00  -3.97759720e-01
C     4.947393385100000e+00   2.709668569229222e+00  -8.076690000000042e-02 -3.13739700e-02  -6.83401510e-01   6.11132980e-01
C     6.163368961800000e+00   1.986879159913648e+00  -2.118113999999984e-01  1.94084550e+00   7.71517600e-02   7.80605700e-02
C     7.466743134800000e+00   2.712135062406370e+00  -2.790158999999974e-01 -2.86475751e+00  -2.44443430e-01   6.72564040e-01
C     8.679135784700000e+00   1.988254879892081e+00  -2.158028999999999e-01 -1.62512784e+00  -9.00883890e-01  -6.77300030e-01
C     9.886907151199999e+00   2.660100552683974e+00  -8.365410000000040e-02  1.13377804e+00   1.60803846e+00   1.29375380e-01
C     2.469064538500000e+00   4.097467831887029e+00   2.629125000000000e-01  2.73560500e-01   1.84752814e+00  -1.48966910e-01
C     3.714319040100000e+00   4.838479745737238e+00   1.482357000000000e-01  1.47527580e-01   6.55964610e-01   1.07545142e+00
C     4.963876001999999e+00   4.138900391587561e+00   3.518610000000000e-02 -1.90604847e+00  -9.29850850e-01  -9.11811730e-01
C     6.147609427999999e+00   4.829198097515792e+00  -2.036400000000000e-01  1.20731705e+00   2.67654370e-01   6.70763300e-02
C     7.377594684300000e+00   4.146693007161504e+00  -2.535687000000024e-01  2.04231302e+00  -1.32155688e+00   1.05096700e-02
C     8.640123955200000e+00   4.830873451371968e+00  -1.656813000000028e-01  3.74921770e-01  -6.67083250e-01   7.49047210e-01
C     9.882367163500000e+00   4.095258789875853e+00   9.100770000000000e-02 -2.34305089e+00   1.24979510e-01  -1.26443294e+00
C     1.104251221570000e+01   4.829705058567989e+00   2.354838000000000e-01  3.61240594e+00  -4.26620160e-01  -1.03893930e-01
C     3.743054038100000e+00   6.297662574304701e+00   1.864542000000000e-01  2.44040690e-01  -1.62300574e+00  -1.96393096e+00
C     4.991630423000000e+00   6.996041343580889e+00  -1.851258000000016e-01 -1.82559426e+00  -2.14055107e+00   1.00579352e+00
C     6.206859499099999e+00   6.227006702868151e+00  -3.073733999999995e-01 -6.83976660e-01   1.95531044e+00   6.12516680e-01
C     7.432608110599999e+00   6.956610754887394e+00  -3.280002000000017e-01  7.90496410e-01   1.46391950e-01   4.80844470e-01
C     8.687535715899999e+00   6.237281523398526e+00  -1.714044000000001e-01 -6.18389860e-01   8.51585190e-01  -2.87268310e-01
C     9.920541780400001e+00   6.963379628494890e+00  -3.394950000000208e-02 -1.11649710e+00  -8.18722100e-02   9.20278000e-03
C     1.116632551750000e+01   6.264971655802860e+00   1.430667000000000e-01 -5.24841428e+00  -2.41729424e+00   1.25113340e-01
C     1.231153301480000e+01   6.918033554901268e+00   1.293360000000000e-01  5.13218679e+00   4.08704902e+00  -4.59836770e-01
