32
Lattice="9.86 0 0 4.93 8.53901048131456 0 0 0 30 " PBC="1 1 1" Properties=species:S:1:pos:R:3:force:R:3 Energy="-257.11151401"
C     9.849062597800000e+00   2.761133441562496e-01   3.730944900000000e+00 -1.56658420e-01  -1.08048163e+00   3.95246800e-02
C     1.216161388400000e+00   9.867489236853247e-01   3.671035500000000e+00 -5.12670250e-01  -4.56977570e-01  -3.21123380e-01
C     2.429094662100000e+00   2.897348590640504e-01   3.776215200000000e+00  8.99429850e-01  -5.84023930e-01   6.22946770e-01
C     3.673278367700000e+00   1.002057917844183e+00   3.796670400000000e+00  6.63064500e-02  -1.15339045e+00  -5.52351970e-01
C     4.893287226700000e+00   2.609057934418936e-01   3.825938700000000e+00  1.06942964e+00   3.05527660e-01   1.49228900e-02
C     6.145406851900000e+00   9.657476543602888e-01   3.776553600000000e+00  4.72201200e-02   8.75923510e-01  -5.61677340e-01
C     7.400896230700000e+00   2.772769551143592e-01   3.670665300000000e+00 -1.31197980e+00  -1.24947252e+00   3.67122490e-01
C     8.626632714399998e+00   9.812535581008159e-01   3.644332200000000e+00 -2.47786370e-01  -2.04438170e-01   1.29334990e-01
C     1.107312066300000e+01   2.374888380520656e+00   3.442023000000000e+00 -2.54646580e-01   1.33431039e+00   4.05775140e-01
C     2.439407877000000e+00   3.103344191800653e+00   3.434497800000000e+00  7.78120520e-01   3.87142930e-01   4.17947540e-01
C     3.697153568900000e+00   2.390258855554970e+00   3.626216700000000e+00 -9.44950830e-01   1.45264897e+00  -3.68431000e-02
C     4.919873829300000e+00   3.132072070148622e+00   3.715366500000000e+00 -3.97466730e-01  -1.59999997e+00   1.87146130e-01
C     6.149030253999999e+00   2.421054369900566e+00   3.755072400000000e+00 -3.11852600e-02  -1.20614186e+00   2.61005050e-01
C     7.383573591099999e+00   3.114896192128521e+00   3.752749200000000e+00  1.57083270e-01   7.05324900e-02   2.12408460e-01
C     8.619510491299998e+00   2.395245808455500e+00   3.615091200000000e+00 -6.15216520e-01   6.14347670e-01  -2.10135000e-02
C     9.826446863700001e+00   3.101922019605209e+00   3.461785200000000e+00  9.40090880e-01   7.51495430e-01   3.64013340e-01
C     1.230576580220000e+01   4.557280481548995e+00   3.424000200000000e+00  4.47890270e-01  -9.84294820e-01   3.94673720e-01
C     3.708841070600000e+00   5.239914084011006e+00   3.583075200000000e+00 -1.87698163e+00   3.23063580e-01   1.28990890e-01
C     4.891384296000000e+00   4.519670922230464e+00   3.784309200000000e+00  7.86267180e-01   8.16617470e-01  -6.13462670e-01
C     6.120828977800000e+00   5.225106756717848e+00   3.900462000000000e+00  6.26719670e-01   4.72516500e-02   3.52901330e-01
C     7.365078301699999e+00   4.533033534340512e+00   3.914724600000000e+00  9.88535100e-01  -1.43350100e-02  -1.33410105e+00
C     8.611612779200000e+00   5.259294392976623e+00   3.768374400000000e+00 -1.24747990e-01  -2.76990820e-01   3.36694540e-01
C     9.844719415700000e+00   4.552460807863769e+00   3.516542100000000e+00 -8.23803450e-01  -6.50756150e-01   5.33479320e-01
C     1.107017000870000e+01   5.268824355622828e+00   3.498540000000000e+00  1.29023720e-01  -3.05324360e-01  -7.08160850e-01
C     1.353597236620000e+01   6.666941390033725e+00   3.641229600000000e+00 -2.48706110e-01  -4.96597380e-01   4.85400420e-01
C     4.882513746999999e+00   7.367395565807077e+00   3.850255800000000e+00  1.39952629e+00   6.67359780e-01  -8.46196960e-01
C     6.133225561400000e+00   6.629059094720462e+00   3.916062300000000e+00  1.37414330e-01   2.28629831e+00   4.36454400e-02
C     7.381935056300000e+00   7.412187372230441e+00   3.923817300000001e+00 -4.97922340e-01  -1.40490533e+00  -2.10157840e-01
C     8.638380756500000e+00   6.688850868513414e+00   3.885434100000000e+00 -1.63943757e+00  -6.92849690e-01  -2.91590550e-01
C     9.853454932000000e+00   7.369104904924963e+00   3.801260100000000e+00 -3.43545200e-01   1.46652776e+00  -5.23522020e-01
C     1.105931419800000e+01   6.694247437746669e+00   3.553886100000000e+00  2.57171910e-01  -1.12705841e+00   1.00440723e+00
C     1.228702554110000e+01   7.354867556581345e+00   3.617885700000000e+00  1.29747585e+00   2.08899047e+00  -2.82139150e-01
