32
Lattice="9.72 0 0 4.86 8.41776692478474 0 0 0 30 " PBC="1 1 1" Properties=species:S:1:pos:R:3:force:R:3 Energy="-257.60994303"
C    -2.100041366878465e-03   3.389674350756648e-03   2.996432579255525e+00  4.02318500e-02  -3.06399010e-01   1.06914800e-02
C     1.214013644148213e+00   7.034924665834690e-01   2.996049585222567e+00 -7.27454300e-02  -1.37267990e-01   1.35249800e-02
C     2.428586000720647e+00   2.711947599909808e-03   2.999980712038206e+00  6.92387000e-03  -1.83029940e-01   1.04757400e-02
C     3.642420026111455e+00   6.994430182442470e-01   3.000972142018359e+00  2.63877230e-01   2.58908160e-01  -1.70727300e-02
C     4.863214043297678e+00   2.119926378224482e-03   2.997866475754199e+00 -2.23851100e-01  -1.01033760e-01   6.00459900e-02
C     6.077175975101397e+00   7.009814897441512e-01   2.998999419048206e+00 -2.79608800e-02   3.25579600e-02  -6.27706000e-03
C     7.290418635957762e+00  -1.209588051136363e-03   2.999124132758630e+00 -2.91372800e-02  -8.96978500e-02   1.83130600e-02
C     8.501443197556149e+00   7.001624771249082e-01   2.998998071859859e+00  2.02012130e-01   1.58431260e-01  -3.57316000e-03
C     1.214375756803610e+00   2.101738935025423e+00   2.995848488705880e+00  1.54732020e-01   2.32801220e-01  -7.60095000e-03
C     2.432339401186273e+00   2.803419488660753e+00   2.996311739434159e+00 -1.84024560e-01   1.96276360e-01   3.66303700e-02
C     3.647485778986546e+00   2.108519504357322e+00   3.001016282884812e+00 -1.28372240e-01  -3.43396130e-01  -4.85413800e-02
C     4.858527243581346e+00   2.809043903390185e+00   2.997511342511725e+00  3.06409080e-01  -2.27965470e-01   5.42659700e-02
C     6.078748728142449e+00   2.102303758395831e+00   2.999712069732022e+00 -2.43366800e-01   1.53255220e-01  -6.59270000e-04
C     7.291012992705055e+00   2.803608829763726e+00   3.002585797442046e+00  4.98628900e-02   5.64996500e-02  -2.25106000e-02
C     8.507892223335805e+00   2.104788436327556e+00   3.001108245652884e+00 -7.01114900e-02  -2.21479200e-02  -1.66200500e-02
C     9.723126371605836e+00   2.807591059114253e+00   2.997258898883929e+00 -1.38109890e-01  -9.80936000e-02   3.94239100e-02
C     2.427148783769585e+00   4.210152082762400e+00   2.998211936320185e+00  1.66463900e-02  -1.69475600e-01  -4.48209300e-02
C     3.642465165164479e+00   4.908411141119124e+00   2.996484741051881e+00  1.40862400e-02   8.38322500e-02   4.43958600e-02
C     4.857116021442577e+00   4.207396906788933e+00   3.002232620100238e+00  2.06023740e-01   2.36809550e-01  -4.59964900e-02
C     6.078552326171533e+00   4.911543318763277e+00   3.003351067288985e+00 -3.35120760e-01  -1.68563480e-01  -5.13874900e-02
C     7.287547559248416e+00   4.206341792496655e+00   2.999668704391484e+00  2.76145170e-01   1.58889790e-01   5.98572400e-02
C     8.506071050293594e+00   4.913113600467637e+00   3.002511519227067e+00 -1.96601910e-01  -1.90208950e-01  -5.00446600e-02
C     9.719965272763393e+00   4.210083167746139e+00   3.002419426893025e+00 -3.98671900e-02   2.05820000e-03  -5.00028300e-02
C     1.093169350064815e+01   4.910821638950359e+00   2.996128405644375e+00  1.14061120e-01   1.43601180e-01   3.00967900e-02
C     3.641687686631152e+00   6.312844694216412e+00   2.997845792582262e+00  2.34494490e-01  -1.20276290e-01   6.68281000e-03
C     4.858275468632171e+00   7.012788514184613e+00   2.997854678955906e+00  1.90305400e-02   1.95357000e-01  -1.17689400e-02
C     6.075056196082039e+00   6.312608810276060e+00   2.997746392357338e+00  6.36150000e-03   7.30576000e-02   5.78477500e-02
C     7.290258881542123e+00   7.014905023956312e+00   3.003241712954106e+00 -8.89194700e-02   1.10342750e-01  -8.78277000e-02
C     8.503378048656433e+00   6.314569487863288e+00   2.995772781706365e+00  1.96625800e-01   4.38472700e-02   1.22232810e-01
C     9.723928809178293e+00   7.015740171704878e+00   3.003631566393327e+00 -3.29197820e-01   1.30328040e-01  -1.09481830e-01
C     1.093239893439748e+01   6.317444176612728e+00   2.996242221331399e+00  2.39068950e-01  -3.08432570e-01   5.92673300e-02
C     1.215226332835660e+01   7.012125400652767e+00   3.000745920215370e+00 -2.39206210e-01   1.99135100e-01  -4.95660000e-02
