26
Lattice="8.88768389401873 1.33226762955019e-15 0 4.44384194700937 7.69696003302603 0 0 0 30 " PBC="1 1 1" Properties=species:S:1:pos:R:3:force:R:3 Energy="-208.31272016"
C     1.277101378981856e+01   7.106306170011441e+00  -2.385506999999976e-01  1.83299830e+00   9.44735980e-01  -1.08364860e-01
C     9.044367362300941e+00   6.854360268866246e+00  -5.487449999999683e-02  1.19064561e+00  -1.03575461e+00  -1.54759910e-01
C     1.044666390428491e+01   6.455253956789073e+00  -7.009109999999907e-02 -2.08720993e+00   8.80459190e-01   5.86293340e-01
C     1.072734567056741e+01   5.079174201435206e+00  -8.748300000000597e-03  2.04200102e+00   3.54394200e-02  -5.28442350e-01
C     6.685056216914067e+00   6.315344159174955e+00  -2.109750000000012e-01 -5.76526200e-01  -2.34755693e+00   8.74094000e-02
C     8.042678771336710e+00   5.839551879774886e+00  -4.951140000000009e-02 -9.94645080e-01   2.15228171e+00  -5.28350690e-01
C     8.344701688618638e+00   4.470152546939857e+00  -2.449500000000171e-02  1.79029219e+00   9.01496350e-01   4.72678610e-01
C     9.746232912160774e+00   4.098661234119117e+00   6.571650000000000e-02 -1.48966948e+00  -1.05818477e+00  -8.51669470e-01
C     1.007528003213607e+01   2.711549579893451e+00  -8.282759999999811e-02 -8.41437600e-02   8.32117480e-01  -8.70929510e-01
C     4.229136569773217e+00   5.764710719831982e+00  -2.423777999999999e-01  4.39479640e-01  -3.38297132e+00  -1.10132840e-01
C     5.617286318673607e+00   5.357376203543538e+00  -2.636609999999990e-01 -2.07500950e-01  -1.39284070e+00   8.44377700e-01
C     5.929582776341382e+00   3.906203443714586e+00  -1.471686000000005e-01  1.19357866e+00   2.43637620e+00  -1.18449276e+00
C     7.332529807937377e+00   3.550385912420535e+00  -1.224455999999989e-01 -1.76495195e+00  -3.17834399e+00   2.71418620e-01
C     7.662202843010443e+00   2.101420486788986e+00  -1.511421000000013e-01 -1.08220291e+00   2.97599426e+00   1.52659430e-01
C     9.009218124568214e+00   1.785979129633108e+00  -1.956626999999997e-01  2.36386800e+00  -2.89574096e+00  -1.06605290e-01
C     3.212385665368434e+00   4.680915863444538e+00  -1.826580000000000e-01  1.99260840e-01   2.11167561e+00   4.04614150e-01
C     3.543531078651399e+00   3.321640726984969e+00  -2.448963000000006e-01  1.23489883e+00  -2.53665250e-01  -5.92774600e-01
C     4.927323551667256e+00   2.944135779292789e+00  -2.825160000000011e-01 -2.96872570e-01  -1.47278112e+00   1.12072564e+00
C     5.294859764353753e+00   1.526749672181125e+00  -1.639109999999988e-01 -2.78315919e+00   1.52474991e+00  -6.36887550e-01
C     6.598561362830625e+00   1.169465639092559e+00  -1.359981000000019e-01  3.01316942e+00  -1.90158054e+00  -6.77306000e-03
C     1.142322576861321e+01   7.465218956811956e+00  -1.216752000000021e-01 -4.18525350e-01   8.72544850e-01  -3.29701630e-01
C     2.554187391736709e+00   2.311710055403819e+00  -3.184766999999979e-01 -7.32974450e-01   6.88466540e-01   1.39512090e+00
C     2.917059659025780e+00   9.545262599540023e-01  -3.028674000000002e-01 -1.98690840e-01  -9.52540820e-01   1.55053470e-01
C     4.273695636124050e+00   5.185045578769455e-01  -1.761809999999997e-01 -4.52379750e-01   1.31177812e+00  -1.32267630e-01
C     5.480649376245045e-01   3.661714049568053e-01  -3.222104999999971e-01 -3.52604145e+00   1.10655928e+00   7.25707400e-01
C     6.317951812303058e+00   7.661448488539988e+00  -2.962385999999988e-01  1.39530135e+00   1.09728610e+00  -7.39065400e-02
