32
Lattice="9.86 0 0 4.93 8.53901048131456 0 0 0 30 " PBC="1 1 1" Properties=species:S:1:pos:R:3:force:R:3 Energy="-257.50052796"
C     1.224455028800000e+00   4.557906903357808e-01   3.490759800000000e+00 -1.83081410e-01  -2.29801091e+00   3.64928000e-03
C     2.433316566200000e+00   1.154480706543965e+00   3.484417800000000e+00  8.14109270e-01   3.11301990e-01  -5.46899200e-02
C     3.663068633500000e+00   4.588600376528168e-01   3.502518900000000e+00  5.28512340e-01  -1.05445406e+00  -4.04862470e-01
C     4.917114212500000e+00   1.129545173530373e+00   3.507039000000000e+00 -1.52087110e-01   8.65142100e-01   1.80642810e-01
C     6.153391578500000e+00   4.184484874353784e-01   3.538418700000000e+00  1.72753370e-01   6.79979750e-01  -2.09360020e-01
C     7.369023386299999e+00   1.162843215677343e+00   3.547674600000000e+00  8.94368620e-01   6.83446300e-02   3.89666490e-01
C     8.643252976899999e+00   4.320436168007960e-01   3.600601800000000e+00 -1.53488880e+00   3.28505660e-01  -1.04661037e+00
C     9.865093577400000e+00   1.140356670869416e+00   3.503842500000000e+00 -6.48948830e-01   6.27182320e-01   5.02368700e-01
C     2.447502739800000e+00   2.558719101397660e+00   3.476767500000000e+00  5.82388500e-02   1.37609086e+00   2.45516340e-01
C     3.699513757100000e+00   3.282548732969906e+00   3.482190900000000e+00 -1.04640871e+00  -2.74357440e-01   6.06240480e-01
C     4.922284845800000e+00   2.570525308067517e+00   3.522430800000000e+00 -2.58800530e-01  -5.82406330e-01  -1.58285900e-02
C     6.135015792300000e+00   3.301583895131922e+00   3.583211400000000e+00 -2.97751960e-01  -6.31215910e-01  -5.73886560e-01
C     7.342959265100000e+00   2.616910152286030e+00   3.553464900000000e+00  2.41703553e+00  -1.94955260e+00   4.29189580e-01
C     8.637925717500000e+00   3.290707415923127e+00   3.586204200000000e+00 -1.57896256e+00  -4.64271920e-01  -6.41965230e-01
C     9.854620827699998e+00   2.571888219530230e+00   3.520606200000000e+00 -3.55647320e-01  -3.11310890e-01   3.49607350e-01
C     1.106473133130000e+01   3.286511858513884e+00   3.537837000000000e+00  1.33381833e+00   1.72350850e-01  -5.74188710e-01
C     3.689966269800000e+00   4.707435394455394e+00   3.572170200000000e+00  8.68023700e-02  -9.54009000e-02  -9.07024010e-01
C     4.925911501700000e+00   5.415881827867712e+00   3.533349000000000e+00 -8.20650550e-01  -7.56313900e-01   3.81141300e-02
C     6.141052182899999e+00   4.695622954307886e+00   3.534926700000000e+00  2.71194400e-02   1.05100050e+00   5.39619050e-01
C     7.361925073699999e+00   5.402569339749181e+00   3.575517300000000e+00  1.47383799e+00  -5.94820620e-01  -6.27653050e-01
C     8.627575675499999e+00   4.693977486988389e+00   3.539545500000000e+00 -3.34152260e-01   9.24940530e-01   5.87501800e-01
C     9.858191626699998e+00   5.430071443142746e+00   3.540915600000000e+00 -4.61197870e-01  -3.51569780e-01  -2.59325950e-01
C     1.109447155630000e+01   4.717605270546970e+00   3.515875500000000e+00 -2.93801290e-01  -4.58823000e-02   2.49653590e-01
C     1.232809485680000e+01   5.435034572204037e+00   3.510035700000000e+00 -3.49059470e-01  -8.77972710e-01   2.29694630e-01
C     4.889290771500000e+00   6.810662756274177e+00   3.498456300000000e+00  1.92633652e+00   1.48901312e+00   3.34529840e-01
C     6.157033172300000e+00   7.531699192128311e+00   3.511188900000000e+00 -9.21621120e-01   5.72048250e-01  -1.56966100e-01
C     7.385246734499999e+00   6.807442183081540e+00   3.521197500000000e+00 -6.58532160e-01   1.36589600e+00  -7.82127700e-02
C     8.591496703000001e+00   7.568872834961838e+00   3.470422500000000e+00  8.30102530e-01  -6.97383910e-01   6.83407270e-01
C     9.832500903700000e+00   6.845813251354677e+00   3.522797700000000e+00  8.09160370e-01   6.42256800e-01  -2.68434650e-01
C     1.111078334870000e+01   7.543190650871876e+00   3.516867300000000e+00 -2.32770012e+00   2.71987250e-01   4.96731800e-02
C     1.231118653440000e+01   6.851103253737143e+00   3.499887300000000e+00  7.90696550e-01  -6.67633870e-01   2.43627100e-01
C     1.354367351920000e+01   7.539339813315710e+00   3.527016000000000e+00  6.03999900e-02   9.06517430e-01   1.56306780e-01
