32
Lattice="9.86 0 0 4.93 8.53901048131456 0 0 0 30 " PBC="1 1 1" Properties=species:S:1:pos:R:3:force:R:3 Energy="-252.03023212"
C     9.683952559400000e+00   1.010296611325602e+00   3.666988800000000e+00  3.30083261e+00   4.97752550e-01   7.86787210e-01
C     1.079233941500000e+00   1.753020169826526e+00   3.471810900000000e+00 -5.81569200e-01   2.07456590e+00  -5.01190900e-02
C     2.310374050300000e+00   1.130653707870887e+00   3.529560300000000e+00  2.08223874e+00  -2.63760512e+00   9.68848880e-01
C     3.563465427800000e+00   1.811988441448785e+00   3.207343800000000e+00 -2.08108446e+00  -1.18581130e-01   4.00809480e-01
C     4.729686261299999e+00   9.866593494653896e-01   3.276789000000000e+00  6.20841490e-01   2.21186260e+00  -6.34776070e-01
C     5.953286871799999e+00   1.730068590507857e+00   3.089953800000000e+00  1.24479833e+00  -9.97369790e-01   1.34863786e+00
C     7.249558689600000e+00   1.078229050759661e+00   3.284981400000000e+00 -6.32170870e-01  -4.68511440e-01   6.27793500e-01
C     8.550804088600000e+00   1.759031889374760e+00   3.428931600000000e+00 -4.61703609e+00   8.28343600e-01  -3.35157890e-01
C     1.099639561530000e+01   3.256429607713682e+00   3.209666700000000e+00 -3.64405575e+00  -3.07030753e+00   5.24233830e-01
C     2.280514026300000e+00   3.942997986204877e+00   2.837258400000000e+00  7.70355520e-01   7.96155730e-01   1.17335905e+00
C     3.496193162100000e+00   3.299031072558821e+00   2.950711800000000e+00  1.36674021e+00  -3.93222070e+00   1.78630570e-01
C     4.695236900299999e+00   3.976647835583623e+00   3.045567300000000e+00  2.76321127e+00   8.91440990e-01   1.14949374e+00
C     5.912476035999999e+00   3.110752124952472e+00   3.172533600000000e+00  3.89517440e-01   4.53491985e+00  -7.08882370e-01
C     7.164825201999999e+00   3.874938400904771e+00   3.299513400000000e+00  1.41596239e+00   1.18889658e+00   1.52102920e+00
C     8.427283727400001e+00   3.237460110542258e+00   3.406135500000000e+00  2.18943799e+00  -3.08321750e+00  -1.37288830e-01
C     9.722974988399999e+00   3.899674548023654e+00   3.438975600000000e+00 -1.19019992e+00   6.16003120e-01  -1.05947277e+00
C     1.219791623480000e+01   5.364693961034408e+00   2.863840800000000e+00 -1.82230253e+00   2.38658974e+00   1.85711015e+00
C     1.332118927470000e+01   6.217624892053776e+00   3.317612700000000e+00  3.68678603e+00  -6.48035546e+00  -1.39307481e+00
C     4.768127246100000e+00   5.457439142511356e+00   3.347386500000000e+00 -7.33408670e-01  -2.20628973e+00  -8.27112380e-01
C     6.042413926100000e+00   6.051147148274228e+00   3.634080600000000e+00 -3.77243700e-02   3.13670060e-01   1.88956439e+00
C     7.317671372400000e+00   5.343684408869207e+00   3.636753900000000e+00 -4.24061056e+00  -2.38043090e+00  -2.26191337e+00
C     8.514242616999999e+00   6.042847657038192e+00   3.532992900000000e+00 -1.89258670e+00   3.40926500e-02   1.68004453e+00
C     9.651672447699999e+00   5.300266700012283e+00   3.413295900000000e+00  4.84129678e+00   5.68443110e-01  -2.08649985e+00
C     1.093368695200000e+01   6.000831797531772e+00   3.056085600000000e+00 -9.41206840e-01   1.03449221e+00   1.88603492e+00
C     1.347268832260000e+01   7.507287612797772e+00   3.654604500000000e+00 -5.30973492e+00   1.32610527e+00  -3.65676210e-01
C     4.814239754600000e+00   8.096769662274093e+00   3.993590700000000e+00 -4.26154000e-02   3.61658722e+00  -1.24499577e+00
C     6.045636174099999e+00   7.425900169160273e+00   4.096931700000000e+00  1.37118911e+00   6.73267760e-01  -2.18477843e+00
C     7.317916146899999e+00   8.197533486932389e+00   3.952354200000000e+00 -2.27003040e+00   7.89223920e-01  -1.55000356e+00
C     8.482613363900001e+00   7.457997626433754e+00   3.672317700000000e+00 -5.30891680e-01  -2.43985380e-01   6.39945900e-02
C     9.663541866399999e+00   8.122634666578433e+00   3.447254400000000e+00  2.07661303e+00   1.02599756e+00  -7.24250750e-01
C     1.093322703230000e+01   7.432059698979915e+00   3.293777400000000e+00 -5.95935640e-01  -1.35518550e-01  -6.12009200e-02
C     1.211475650180000e+01   8.203561772160956e+00   3.449622300000000e+00  3.04334306e+00   3.45982820e-01  -4.31168830e-01
