32
Lattice="9.86 0 0 4.93 8.53901048131456 0 0 0 30 " PBC="1 1 1" Properties=species:S:1:pos:R:3:force:R:3 Energy="-257.50740815"
C     4.955837291900000e+00   8.493626237029533e+00  -1.301258999999995e-01 -6.13165600e-01  -7.69477210e-01   1.06253850e-01
C     1.262112143600000e+00   6.637973992441791e-01  -1.181991000000018e-01 -8.57672320e-01  -1.15798703e+00  -2.38170100e-02
C     7.387467354399999e+00   8.453334659909340e+00  -1.080927000000003e-01  1.73150408e+00   2.42997872e+00  -9.00910700e-02
C     3.717030342899999e+00   6.719305505560649e-01  -1.292834999999997e-01 -1.26124569e+00  -2.03933037e+00  -7.54544400e-02
C     9.856058415699998e+00   8.469227039264192e+00  -1.703627999999995e-01  3.75980880e-01   1.19931174e+00  -5.20031400e-02
C     6.144679775499999e+00   6.466098227797208e-01  -1.746282000000008e-01  9.26740510e-01   1.18619832e+00   3.89090770e-01
C     1.230744141060000e+01   8.461630479370868e+00  -1.350800999999997e-01  1.07854022e+00   1.29029366e+00  -3.22221430e-01
C     8.641382189800000e+00   6.402558596914479e-01  -1.011156000000000e-01 -6.02258550e-01   1.02395596e+00  -1.72254610e-01
C     1.265270400200000e+00   2.062435227904251e+00  -1.559616000000013e-01  8.71239600e-02   1.19928650e+00   3.08672650e-01
C     2.482999676500000e+00   2.781063577412921e+00  -1.643322000000005e-01 -6.42158400e-02   1.23730500e+00  -2.19314050e-01
C     3.694015229500000e+00   2.063514131878399e+00  -1.392884999999993e-01  1.04267611e+00   1.45424925e+00  -2.07350440e-01
C     4.929146025400000e+00   2.819857070534504e+00  -1.613151000000030e-01 -1.59565100e-02  -9.84659750e-01   2.47532520e-01
C     6.167917478399999e+00   2.115464361567357e+00  -1.473629999999986e-01  8.91323000e-03  -1.19051524e+00  -4.83986500e-02
C     7.413638604500000e+00   2.826104979112615e+00  -1.270670999999979e-01 -1.09285200e-01  -9.77266230e-01   1.86392880e-01
C     8.647327276800000e+00   2.091057820253002e+00  -9.164699999999826e-02  5.51491080e-01  -1.46935080e-01  -2.79690400e-01
C     9.921254362599999e+00   2.804429127959659e+00  -1.294019999999989e-01 -2.06792739e+00  -6.63808390e-01  -6.40160700e-02
C     2.476219841900000e+00   4.248245921778258e+00  -2.325309000000004e-01 -3.56375830e-01  -1.79181247e+00   2.23512500e-01
C     3.682581327000000e+00   4.959852813749434e+00  -2.358735000000003e-01  1.32424560e+00  -8.59184190e-01   4.06077710e-01
C     4.915611499199999e+00   4.225842717712616e+00  -1.423610999999987e-01  2.86061810e-01   9.55305110e-01  -4.34319810e-01
C     6.161224806200000e+00   4.951877036400694e+00  -1.155900000000010e-01  1.87233680e-01  -1.26778722e+00  -2.29353800e-02
C     7.405346936100000e+00   4.240965903003429e+00  -1.224071999999978e-01 -2.72026230e-01  -1.84899550e-01  -6.18249900e-02
C     8.642612076900001e+00   4.920530585098929e+00  -1.653297000000009e-01  4.12161060e-01   1.11488664e+00   8.69866500e-02
C     9.878448750200000e+00   4.227269415583614e+00  -1.689654000000012e-01  3.16852710e-01  -5.96518880e-01  -1.12353980e-01
C     1.110538568890000e+01   4.939118986232631e+00  -2.226554999999983e-01 -1.11992440e-01   5.79269600e-02   9.37696000e-03
C     3.727728738700000e+00   6.369257907674261e+00  -2.234270999999985e-01 -1.14147490e+00  -5.30505690e-01   1.02119180e-01
C     4.932718944299999e+00   7.046075590098345e+00  -1.620939000000021e-01  1.92029589e+00   1.55964026e+00   2.76089880e-01
C     6.187368300399999e+00   6.345523984215416e+00  -1.012769999999996e-01 -4.92690820e-01   9.47361490e-01  -3.25424660e-01
C     7.423826794599999e+00   7.075098576648502e+00  -1.061726999999983e-01  1.95408490e-01  -1.90191758e+00  -2.65496070e-01
C     8.688164833199998e+00   6.359228754475397e+00  -1.856633999999993e-01 -2.05611929e+00  -5.95761270e-01   4.04614250e-01
C     9.891478444400001e+00   7.063734690721509e+00  -2.059557000000005e-01  1.67004620e-01  -2.43602070e-01   1.27794670e-01
C     1.111991765270000e+01   6.351887510995427e+00  -2.175362999999990e-01  8.49266100e-02   1.30519860e-01  -1.78874940e-01
C     1.235224140520000e+01   7.058244960883917e+00  -2.078910000000000e-01 -6.74753940e-01   1.15748730e-01   8.13266500e-02
