32
Lattice="9.86 0 0 4.93 8.53901048131456 0 0 0 30 " PBC="1 1 1" Properties=species:S:1:pos:R:3:force:R:3 Energy="-254.16424198"
C     5.031020876500000e+00   7.908688136590041e+00  -2.004558000000003e-01 -6.49542490e-01   2.67266511e+00  -5.36782090e-01
C     1.393274793600000e+00   1.566677869797040e-01  -3.280188000000024e-01 -2.94678032e+00  -2.75454660e-01   2.71851264e+00
C     7.455036060999999e+00   7.950190886956718e+00  -1.004106000000000e-01  2.40680293e+00   2.10972010e-01  -1.37207078e+00
C     3.751790885500000e+00   1.357389284635384e-01   3.877470000000000e-02 -3.16211390e-01   1.29528952e+00   1.61189960e-01
C     9.894938022599998e+00   8.008022018553357e+00  -1.200539999999961e-02  2.70155091e+00  -1.20569552e+00   1.18086595e+00
C     6.211666742099999e+00   1.893917514521032e-01  -2.420430000000096e-02  2.79911680e-01   1.72780980e-01  -2.34178850e-01
C     1.236526759910000e+01   8.030578924807639e+00   9.606510000000000e-02  1.51231952e+00  -2.04705047e+00  -1.08462520e+00
C     8.689949788999998e+00   8.953135410259040e-02  -2.782476000000003e-01  9.71550880e-01   2.40148812e+00   1.55991720e+00
C     1.414579098400000e+00   1.549532049093829e+00   8.371379999999999e-02 -2.53771844e+00   8.20662720e-01  -1.21287203e+00
C     2.575069694300000e+00   2.329349069119873e+00   3.332205000000000e-01  5.45821610e-01  -2.07419232e+00   1.27203690e+00
C     3.803578612800000e+00   1.571066579623341e+00   2.618595000000000e-01 -2.00976840e-01  -1.20038580e-01  -1.07757273e+00
C     5.041608988200000e+00   2.288918476909064e+00   1.347648000000000e-01  9.18466700e-02  -1.67205961e+00   5.11833000e-03
C     6.296740596899999e+00   1.605155077970444e+00  -1.692263999999994e-01 -2.57723981e+00   1.02662750e-01   1.05787860e+00
C     7.485895100200000e+00   2.349290647244341e+00  -2.401398000000015e-01  1.93135472e+00  -2.32053068e+00   2.58351640e-01
C     8.746314133900000e+00   1.618331966602551e+00  -2.842188000000014e-01 -7.87172400e-02  -2.17458284e+00   6.90233840e-01
C     9.987059608199999e+00   2.256551699245044e+00   4.577580000000000e-02 -2.58560230e-01   7.53882720e-01  -2.29893110e-01
C     2.544441329800000e+00   3.704782734531278e+00   7.385586000000001e-01  6.01181080e-01  -2.87163620e-01  -2.41249696e+00
C     3.788464416000000e+00   4.391436503127274e+00   5.680017000000001e-01 -1.34971440e-01   1.91107139e+00  -1.06658345e+00
C     4.976609304600000e+00   3.660947553451989e+00   2.758896000000000e-01  2.18039772e+00   3.38023741e+00  -7.21737480e-01
C     6.235048105200000e+00   4.442651609404009e+00  -3.718109999999797e-02  6.25056930e-01  -5.99255090e-01  -3.10606590e-01
C     7.503046570199999e+00   3.719203073869483e+00  -1.057758000000000e-01 -7.26714730e-01   2.46865156e+00  -1.18486070e-01
C     8.769576979800000e+00   4.447595867252138e+00   9.034199999999999e-03 -1.50676527e+00  -6.78609390e-01   8.98948000e-03
C     9.935453058400000e+00   3.709500025480850e+00   2.731554000000000e-01  1.85806912e+00  -1.12183802e+00  -5.35655650e-01
C     1.118826983490000e+01   4.402792789334940e+00   5.332950000000001e-01 -1.51363251e+00   2.62084550e-01   5.11114440e-01
C     3.789231918400000e+00   5.881103257547918e+00   2.721039000000000e-01  2.15940070e-01  -2.30142582e+00   2.00905155e+00
C     5.039839660499999e+00   6.522804515543315e+00   6.801810000000000e-02  7.71134690e-01   1.23216917e+00  -2.40893366e+00
C     6.310090839699999e+00   5.883866395949141e+00  -2.621216999999980e-01 -3.07423550e+00  -3.62413183e+00   2.71547198e+00
C     7.521309853800000e+00   6.538347307809117e+00  -2.671712999999976e-01  1.07342119e+00   1.08855406e+00   7.27589330e-01
C     8.775212068399998e+00   5.866166820416302e+00  -5.770769999999814e-02 -7.10953070e-01  -7.67703930e-01   2.07793310e-01
C     9.987183104700000e+00   6.554715480827914e+00   1.566297000000000e-01 -9.09440900e-01   7.85140770e-01  -2.85106510e-01
C     1.116531062770000e+01   5.817457486764924e+00   4.881618000000000e-01  1.35775198e+00   2.01054390e+00  -1.00395482e+00
C     1.242416566820000e+01   6.598757220570715e+00   3.820122000000000e-01 -9.81651550e-01  -2.99124380e-01  -4.72559150e-01
