32
Lattice="9.86 0 0 4.93 8.53901048131456 0 0 0 30 " PBC="1 1 1" Properties=species:S:1:pos:R:3:force:R:3 Energy="-252.78535141"
C     4.909031428200000e+00   8.087322101079021e+00  -3.242100000000008e-01  5.90894807e+00   2.20698449e+00  -2.00671480e-01
C     1.326132186900000e+00   2.598648880643816e-01  -2.086175999999966e-01 -2.95386650e-01   1.93537832e+00  -1.82819002e+00
C     7.554928854900000e+00   8.177430094559325e+00  -2.676575999999997e-01 -2.76718508e+00  -3.02613707e+00  -6.89534000e-01
C     3.803247070299999e+00   3.706049240565672e-01  -4.186262999999997e-01  6.26721330e-01  -5.09995125e+00   2.32442995e+00
C     9.947974568199999e+00   8.160650682795811e+00  -1.598106000000001e-01  2.07928729e+00  -1.40571791e+00  -2.76590602e+00
C     6.219237102200000e+00   3.493001782990720e-01  -2.866424999999992e-01  1.15276481e+00  -2.19579545e+00   5.10349630e-01
C     1.240869286320000e+01   8.115482562180594e+00  -3.032421000000021e-01 -2.40294140e+00   3.68148929e+00  -1.53345660e-01
C     8.667537368099998e+00   2.775640366466968e-01  -3.859847999999992e-01  1.05770731e+00   1.66797097e+00   1.15146233e+00
C     1.367949531500000e+00   1.724151995536370e+00  -3.974028000000018e-01 -2.30721816e+00  -5.00872410e-01   4.60459380e-01
C     2.586674273400000e+00   2.452138075849863e+00  -3.784665000000018e-01 -4.10437140e-01   8.25412450e-01  -1.17623122e+00
C     3.808924063900000e+00   1.696629740078073e+00  -3.809082000000004e-01 -4.82061990e-01   4.75448268e+00   3.49138130e-01
C     5.011249407299999e+00   2.416374565207002e+00  -3.042510000000007e-01  7.05501930e-01   2.56905434e+00  -9.14707350e-01
C     6.241330404199999e+00   1.736167664133303e+00  -3.291257999999999e-01  8.90672370e-01   1.64428427e+00   6.84103500e-01
C     7.491664432699999e+00   2.498134053531116e+00  -2.645450999999994e-01 -5.40009860e-01  -3.97270536e+00  -6.73727940e-01
C     8.750900660799999e+00   1.723608829079738e+00  -2.981018999999989e-01 -4.67233210e+00  -4.74397280e-01  -5.83593030e-01
C     9.854240872599998e+00   2.461042385198196e+00  -4.637232000000004e-01  6.59243988e+00  -3.12549341e+00   1.67416427e+00
C     2.586652778600000e+00   3.933492274348437e+00  -5.321454000000010e-01  9.45345740e-01  -2.30662069e+00   1.18639037e+00
C     3.882138853000000e+00   4.670727213083132e+00  -4.268724000000006e-01 -4.76385149e+00  -2.59471240e-01   6.28625820e-01
C     5.028711664499999e+00   3.915264475627305e+00  -3.769845000000025e-01  6.29985230e-01  -1.93877450e+00  -7.35973180e-01
C     6.249221165000000e+00   4.602748492212270e+00  -5.430354000000008e-01  8.77926530e-01  -7.11219080e-01   1.69991309e+00
C     7.443880407700000e+00   3.853497884880644e+00  -3.860652000000009e-01  2.40529082e+00   2.23867986e+00   1.07809100e-02
C     8.732909611800000e+00   4.549364648053825e+00  -3.305340000000001e-01 -1.99408260e-01   1.30295570e-01   1.74026490e-01
C     9.966990120500000e+00   3.789244563501998e+00  -2.272643999999993e-01 -1.66596531e+00   3.84372691e+00  -2.67950543e+00
C     1.115930435940000e+01   4.523650955015192e+00  -5.185292999999973e-01  2.31870754e+00   3.00745810e-01   9.25232510e-01
C     3.818766168000000e+00   6.119845280778029e+00  -2.226276000000027e-01  1.67759283e+00  -4.02876576e+00  -2.52590435e+00
C     5.069375241199999e+00   6.719226946664232e+00  -4.414134000000018e-01 -3.42381870e-01   1.78820720e-01   1.76767487e+00
C     6.341293844999999e+00   6.003331165899267e+00  -4.601837999999994e-01 -1.39029255e+00   5.66884500e-01  -2.03855610e-01
C     7.592274886700000e+00   6.657159697358571e+00  -3.546252000000010e-01 -1.22191889e+00   3.54254610e+00  -8.75009200e-02
C     8.789326757000000e+00   5.975401087300445e+00  -3.829785000000001e-01  2.51578418e+00  -9.31928810e-01   3.06272540e-01
C     1.014950143200000e+01   6.658892006414648e+00  -3.539919000000005e-01 -8.14846347e+00   3.17591496e+00   5.91574270e-01
C     1.124779288010000e+01   5.940413943490427e+00  -5.198700000000009e-01  2.23139262e+00   9.68445970e-01   1.73772095e+00
C     1.245656005730000e+01   6.777224332794916e+00  -2.768285999999982e-01 -1.00621428e+00  -4.25326699e+00  -9.63672800e-01
