32
Lattice="9.86 0 0 4.93 8.53901048131456 0 0 0 30 " PBC="1 1 1" Properties=species:S:1:pos:R:3:force:R:3 Energy="-253.88529884"
C     5.500604609000000e+00   8.135212287455053e+00  -5.422007999999998e-01 -1.85951182e+00  -2.47605044e+00   4.26137990e-01
C     1.771000498300000e+00   2.696309543503576e-01  -5.618558999999976e-01  1.12466422e+00   2.58295188e+00  -8.15448010e-01
C     7.901500065500000e+00   8.183850576539237e+00  -7.032585000000005e-01  2.75407382e+00  -5.08318157e+00   5.06840560e-01
C     4.247464178000000e+00   2.942925559077504e-01  -6.248177999999989e-01 -3.15773770e-01   4.26457010e-01  -9.22177880e-01
C     1.043560456570000e+01   8.090186682924747e+00  -7.044516000000023e-01 -1.82979472e+00   1.90363391e+00   1.99457810e+00
C     6.665478418599999e+00   3.342930381606816e-01  -5.142704999999985e-01  2.35203130e+00  -1.73876252e+00  -6.82573260e-01
C     1.289986782650000e+01   8.196305577225365e+00  -3.742635000000014e-01 -8.50209400e-01  -5.50005700e-01  -1.41526225e+00
C     9.219932085400000e+00   3.236561635859552e-01  -6.008493000000001e-01 -7.89254040e-01  -4.43096320e-01   7.68885470e-01
C     1.837035087500000e+00   1.725885414663810e+00  -4.968615000000014e-01 -4.37507145e+00  -5.81540560e-01   1.96676568e+00
C     2.914630050500000e+00   2.486529025948168e+00  -1.679060999999997e-01  5.76940714e+00  -5.10608810e+00  -1.92538007e+00
C     4.250893387400001e+00   1.698472885490181e+00  -4.524399000000017e-01 -6.75374500e-02   2.59485594e+00   1.05031829e+00
C     5.513879028400000e+00   2.482406647858737e+00  -4.599218999999977e-01 -2.42678884e+00  -2.67189599e+00   6.02187640e-01
C     6.716291879299999e+00   1.736280464461743e+00  -6.104160000000007e-01 -1.45284087e+00  -1.45972750e-01  -1.05480350e-01
C     7.929267945399999e+00   2.372652013675944e+00  -7.514736000000006e-01  2.80202010e+00   3.01574908e+00   8.48238590e-01
C     9.228929532599999e+00   1.743192195714570e+00  -6.989453999999995e-01 -2.11953573e+00  -1.43778097e+00   6.82476810e-01
C     1.040960990820000e+01   2.385461554077202e+00  -3.743708999999988e-01  1.55636686e+00   3.06063174e+00  -1.89970267e+00
C     3.045395243900000e+00   3.807066503055015e+00   5.893290000000000e-02  8.90101940e-01   3.60601887e+00  -3.90399840e-01
C     4.305015666900000e+00   4.540848778292227e+00  -5.395950000000127e-02 -2.43587193e+00   1.46527822e+00   6.65379660e-01
C     5.501192215700000e+00   3.868589219662367e+00  -2.184612000000001e-01  5.94779300e-01  -1.28412827e+00  -1.41190800e+00
C     6.710217133300000e+00   4.495761265935940e+00  -5.076623999999974e-01  1.26299005e+00   3.05595156e+00   4.10187010e-01
C     7.962439548999999e+00   3.836960468674133e+00  -6.838724999999997e-01 -8.21764350e-01  -1.53082930e+00  -1.03765310e-01
C     9.204607180400000e+00   4.540254036212295e+00  -6.333963000000011e-01  6.75183010e-01   2.56953750e-01   1.15445090e+00
C     1.042088107140000e+01   3.866500833869273e+00  -3.531089999999999e-01  2.23808776e+00  -1.31357169e+00   8.54941080e-01
C     1.175205719060000e+01   4.570323820057195e+00  -2.327249999999736e-02 -5.67203528e+00   2.12948810e+00  -1.34117242e+00
C     4.222456457200000e+00   6.003260975233121e+00  -1.378520999999999e-01  3.93523300e-01  -1.21144326e+00  -6.53818000e-01
C     5.445537495000000e+00   6.646454937650528e+00  -3.836084999999976e-01  1.26361289e+00   2.78357442e+00  -3.64146380e-01
C     6.687333059300000e+00   5.961120531563798e+00  -5.137295999999978e-01  1.01890035e+00  -1.38069230e+00  -4.17880840e-01
C     7.940369467300000e+00   6.623204663745270e+00  -7.168613999999991e-01 -1.09919900e-02   3.22600105e+00   8.34635080e-01
C     9.232925199000000e+00   5.957841978490002e+00  -5.870418000000015e-01 -4.01679505e+00  -1.44603870e-01  -8.49668610e-01
C     1.037515946260000e+01   6.702865861024133e+00  -4.562445000000004e-01  2.71255107e+00   2.12143930e-01  -1.30914520e-01
C     1.161054735800000e+01   6.083778720653234e+00  -1.369125000000011e-01  2.09101770e+00  -3.04761662e+00  -5.14985840e-01
C     1.286891674420000e+01   6.771405082542901e+00  -2.457668999999996e-01 -4.55534130e-01  -1.72429210e-01   1.17866140e+00
