26
Lattice="8.88768389401873 1.33226762955019e-15 0 4.44384194700937 7.69696003302603 0 0 0 30 " PBC="1 1 1" Properties=species:S:1:pos:R:3:force:R:3 Energy="-206.56090868"
C     1.291211382118519e+00   1.674129369504358e+00   3.546365700000000e+00  2.94951360e-01  -4.14596169e+00   2.74451020e+00
C     3.636877665591826e+00   1.007762360971098e+00   3.520431600000000e+00  1.42191680e+00  -1.63998942e+00   1.54129450e+00
C     4.973953272962116e+00   1.317556227644163e+00   3.675410100000000e+00  2.83403998e+00   3.58506094e+00   3.08427920e-01
C     6.042919096710862e+00   3.729089389190658e-01   3.666736500000000e+00 -1.08270517e+00   8.91253830e-01   9.16430390e-01
C     7.384029446009121e+00   7.941946570794869e-01   3.773653800000000e+00  1.81984604e+00   2.59405960e-01   6.09074080e-01
C     1.288917719164484e+01   7.548436872294709e+00   3.871132800000000e+00  1.04319447e+00  -8.14379500e-01  -8.82414120e-01
C     9.877922078099358e-01   1.378707189629708e-01   3.772487400000000e+00 -1.98220782e+00   5.24813904e+00  -1.55342114e+00
C     6.479741342964069e+00   6.954973006138400e+00   3.617193900000000e+00 -2.11605940e+00  -3.56675510e+00   5.96116080e-01
C     7.805647886897111e+00   7.311679998133516e+00   3.597886200000000e+00  5.66546000e-03   1.43333880e-01   1.97618710e-01
C     8.781158647985539e+00   6.313309775669425e+00   3.824146200000000e+00  1.67614100e-01  -1.05635672e+00  -1.51486758e+00
C     1.013448316349321e+01   6.723921657538644e+00   3.799053900000001e+00  5.36555800e-01  -1.19234685e+00  -5.28919230e-01
C     1.117264160855545e+01   5.750642447197950e+00   3.781100400000001e+00  7.82022900e-02   2.96927730e-01   1.25145364e+00
C     3.646543913962209e+00   6.198005542909611e+00   3.827020500000000e+00  5.45722710e-01  -1.43605158e+00  -8.90038330e-01
C     4.719583852006455e+00   5.253858094768861e+00   3.673148400000000e+00 -9.35096090e-01  -2.36555643e+00   1.11252378e+00
C     6.094449846803922e+00   5.510258842440220e+00   3.656796900000000e+00 -1.72981610e-01   3.29618237e+00   5.10662270e-01
C     7.030696642443671e+00   4.515188537649791e+00   3.801234000000000e+00  3.10920018e+00  -1.21064038e+00  -8.01122590e-01
C     8.464896015054922e+00   4.857326492791323e+00   3.750936600000000e+00 -3.84118501e+00   5.24349410e+00   7.94786260e-01
C     9.474845173716247e+00   3.997728842096919e+00   3.692826900000000e+00  1.00200812e+00  -3.20649627e+00   1.13497619e+00
C     1.080793163309939e+01   4.384548035060602e+00   3.863253300000000e+00  3.00401771e+00  -7.51467010e-01  -2.46987860e+00
C     3.012773305910983e+00   3.404068318611842e+00   3.652545000000000e+00 -1.44945900e-02   3.36781160e-01   2.24003017e+00
C     4.405776219595019e+00   3.854316850699550e+00   3.750578400000000e+00 -1.29510139e+00  -2.44741507e+00  -2.78293570e-01
C     5.406456945827381e+00   2.746701288472060e+00   3.870406800000000e+00 -3.33678825e+00  -9.13160400e-02  -1.70597837e+00
C     6.729840142994711e+00   3.112519249024288e+00   3.842342100000000e+00  1.10634384e+00   8.70243040e-01   5.01929490e-01
C     7.773654221264072e+00   2.142534414546033e+00   3.853144200000000e+00  2.72150480e-01   1.50651847e+00  -1.14289021e+00
C     9.151049295520634e+00   2.601146309463139e+00   3.704508300000000e+00 -9.27071940e-01  -8.41259200e-01  -1.99792190e-01
C     2.675899911867020e+00   1.978350944994105e+00   3.714243900000000e+00 -1.53773806e+00   3.08865071e+00  -2.49221775e+00
