32
Lattice="9.86 0 0 4.93 8.53901048131456 0 0 0 30 " PBC="1 1 1" Properties=species:S:1:pos:R:3:force:R:3 Energy="-253.32506163"
C     5.126424806800000e+00   7.452607888408883e+00   3.098670000000000e-01 -1.83164138e+00   1.21972620e+00   1.72743020e-01
C     6.288549253999999e+00   8.293197472971611e+00   3.449346000000000e-01  4.23000880e-01  -2.65916078e+00  -1.22590270e+00
C     7.510612690499999e+00   7.611430836243635e+00   2.457726000000000e-01  2.36138775e+00  -5.24543402e+00   4.34754590e-01
C     8.823370625500001e+00   8.143984498311262e+00   9.693120000000001e-02 -3.63647134e+00   4.31274461e+00   5.25483300e-02
C     9.979414262799999e+00   7.429706091521314e+00   1.083594000000000e-01  3.59697389e+00   3.03359495e+00   6.35788010e-01
C     1.125442274410000e+01   8.235010862368691e+00   3.098691000000000e-01 -2.27228856e+00   1.90073650e-01  -2.70058436e+00
C     1.242828566920000e+01   7.500010838846926e+00   1.339296000000000e-01  2.34668602e+00  -2.41119694e+00   1.15133786e+00
C     1.369781904040000e+01   8.134630097720526e+00   2.854020000000000e-01 -5.50827780e-01   1.57985655e+00  -4.98863150e-01
C     1.357710118700000e+00   1.098752647838446e+00   8.705100000000000e-03  9.91153710e-01   4.30224000e-03   1.10663096e+00
C     2.635279636400000e+00   1.757017707582738e+00  -7.773090000000238e-02 -9.16887500e-01   4.49793700e-01  -2.03186947e+00
C     3.877065537900000e+00   1.091786181528442e+00  -9.131879999999981e-02  3.59195390e-01  -1.82454345e+00   1.48899636e+00
C     5.094011880900000e+00   1.846368120053257e+00  -6.041009999999858e-02 -6.30849490e-01  -2.85460164e+00  -1.56035790e-01
C     6.295839392900000e+00   1.185879928930497e+00   1.216044000000000e-01  1.37730145e+00  -3.99809618e+00   6.14977200e-01
C     7.570741583400000e+00   1.836086041363975e+00   4.436400000000000e-02 -3.62805239e+00  -2.26860642e+00   8.94425150e-01
C     8.668705531600001e+00   1.047148589634347e+00   1.992471000000000e-01  5.99379264e+00  -5.09485510e-01  -8.33112650e-01
C     1.000064747700000e+01   1.761466361262608e+00  -4.911360000000187e-02 -2.37710601e+00  -2.06633843e+00   3.53554470e-01
C     2.600599995100000e+00   3.138371127399508e+00  -4.326627000000016e-01  7.65023940e-01   1.82975711e+00   1.38543060e+00
C     3.876654030800000e+00   3.869464553626672e+00  -2.591049000000005e-01 -8.12301810e-01   1.26971538e+00   8.77522280e-01
C     5.107016580000000e+00   3.194700503223029e+00  -1.261232999999997e-01 -8.36271920e-01   2.70164766e+00  -2.26568020e-01
C     6.308358881399999e+00   3.944227176763473e+00   9.992700000000000e-03  9.10831460e-01  -3.25424075e+00  -3.44122900e-02
C     7.529852064800000e+00   3.198742870784261e+00  -6.197700000001305e-03  1.51322265e+00   2.35170943e+00  -6.36731060e-01
C     8.800191540299998e+00   3.832174097129779e+00  -1.688250000000018e-01 -1.48228176e+00   2.24031384e+00  -1.18109350e-01
C     9.974956606099999e+00   3.084401848682554e+00  -3.565029000000024e-01  1.20274569e+00   3.79865275e+00   1.44375940e-01
C     1.120861027540000e+01   3.865525849652667e+00  -5.093588999999987e-01  1.48430878e+00   4.45530980e-01   5.56676050e-01
C     3.932313385700000e+00   5.287344444672691e+00   8.605979999999999e-02 -1.91778267e+00   5.68607280e-01  -2.24110438e+00
C     5.145534226300000e+00   6.038676777369236e+00   2.025762000000000e-01 -4.58586550e-01  -6.35339880e-01   5.70508930e-01
C     6.350701172400000e+00   5.283268689580481e+00   1.768779000000000e-01  6.34853040e-01   3.85597577e+00   5.34150270e-01
C     7.579524181200000e+00   6.027090962559867e+00   2.785722000000000e-01  2.97067000e-01   9.00498040e-01  -2.00332575e+00
C     8.815211179700000e+00   5.281707673074632e+00  -1.107578999999994e-01 -6.25877650e-01   2.19070483e+00   1.34317187e+00
C     1.002595149080000e+01   6.108599403975869e+00  -1.372619999999998e-01  1.22259445e+00  -5.46295388e+00  -1.13733277e+00
C     1.132580377040000e+01   5.351393427530550e+00  -4.007766000000004e-01 -2.37540268e+00  -8.22322090e-01   1.59370308e+00
C     1.254201968460000e+01   6.008096787648155e+00  -5.614290000000111e-02 -1.12750926e+00   1.06911500e+00  -6.73432200e-02
