32
Lattice="9.86 0 0 4.93 8.53901048131456 0 0 0 30 " PBC="1 1 1" Properties=species:S:1:pos:R:3:force:R:3 Energy="-250.10054767"
C     9.791978965899998e+00   5.875449749489320e-01   4.347312000000000e+00 -2.39755485e+00  -3.91828055e+00   1.94403220e+00
C     1.084098421800000e+00   1.283229857198890e+00   4.400134500000000e+00  2.73732724e+00   1.54774827e+00  -1.48287310e-01
C     2.327385113900000e+00   6.025160804630968e-01   4.783067100000000e+00 -1.17185820e+00   3.17477400e-01  -7.42951790e-01
C     3.577245418700000e+00   1.160360071429759e+00   4.560615300000000e+00 -1.94021898e+00   4.90310519e+00  -7.50388090e-01
C     4.688449719999999e+00   4.472696117777888e-01   4.544094300000000e+00  6.80261589e+00  -1.78702958e+00   6.12690160e-01
C     5.994848250800000e+00   1.197339707945181e+00   4.599982199999999e+00 -6.62774330e-01   2.31340261e+00   5.62973520e-01
C     7.284842305199999e+00   5.649317112254816e-01   4.690362299999999e+00 -2.25553753e+00  -1.52511472e+00  -1.51323125e+00
C     8.519370507200000e+00   1.205086298252637e+00   4.362701100000000e+00 -1.90232032e+00   2.43001221e+00  -3.26170000e-04
C     1.093602599050000e+01   2.710213187317636e+00   4.079935800000000e+00 -1.29192939e+00  -2.10677280e+00  -2.25085300e-02
C     2.300660175500000e+00   3.386718854298780e+00   4.082861100000000e+00  2.46123378e+00   5.26219930e-01   1.39999970e+00
C     3.658365906500000e+00   2.601498092270678e+00   4.360575300000000e+00 -4.28438055e+00   1.76558448e+00   1.36409160e-01
C     4.777322484900000e+00   3.368994430245444e+00   4.660623299999999e+00  4.64441700e-01   2.06555910e+00  -7.73825570e-01
C     5.979519894800000e+00   2.684155799107182e+00   4.717464600000000e+00  1.14666705e+00  -2.71897750e+00  -2.42119800e-01
C     7.247068250800000e+00   3.377129289359426e+00   4.663017600000000e+00 -1.62536795e+00  -5.11069650e-01  -9.95598360e-01
C     8.337862795800000e+00   2.668814271318395e+00   4.202893200000000e+00  4.98983572e+00  -2.26409831e+00   6.02795580e-01
C     9.618272289300000e+00   3.344000917350693e+00   3.984534000000000e+00  1.04303239e+00   1.31214894e+00   3.22139150e-01
C     1.212511107940000e+01   4.830943129697484e+00   4.184674800000000e+00  2.46961005e+00   2.64745740e-01   3.86754700e-02
C     3.581873752000000e+00   5.608229443187572e+00   4.430581800000001e+00 -9.22280990e-01  -4.23497169e+00   1.04055896e+00
C     4.836978393600000e+00   4.889860764987598e+00   4.721665500000000e+00 -5.83546551e+00  -3.76023292e+00  -1.65899560e+00
C     5.923554682699999e+00   5.546461742369548e+00   5.042514300000000e+00  8.03580916e+00  -1.29676990e-01  -2.80106600e-02
C     7.343363377199999e+00   4.750414625124168e+00   4.776814800000000e+00 -3.51951640e+00   1.85531124e+00   1.93675478e+00
C     8.539313885500000e+00   5.473745066143755e+00   4.690740000000000e+00 -1.54102142e+00  -1.08854939e+00  -9.63946640e-01
C     9.697373547700000e+00   4.782324309557195e+00   4.067423700000000e+00 -1.92077956e+00   1.20376638e+00   2.44457320e+00
C     1.087569171380000e+01   5.549939937508366e+00   4.204865700000000e+00  3.12479645e+00  -3.16074249e+00   8.14421900e-02
C     1.347873265050000e+01   6.938200392122200e+00   4.661273100000000e+00 -2.94399955e+00   3.29058105e+00  -1.23201945e+00
C     4.876267584900000e+00   7.624182652934048e+00   4.676369700000000e+00 -7.99633050e-01   2.47776776e+00   6.64929680e-01
C     6.049803207300000e+00   6.947030582859567e+00   5.091669900000000e+00  3.27368400e-02   3.23292442e+00  -6.87221640e-01
C     7.326968711499999e+00   7.844909754974292e+00   5.212967400000000e+00 -2.17646920e+00  -8.04140211e+00  -1.54218295e+00
C     8.478381451899999e+00   6.849092402159208e+00   5.000556899999999e+00  1.83560811e+00   4.25632262e+00  -1.94349038e+00
C     9.698527463500000e+00   7.539648498544563e+00   4.563542099999999e+00 -1.89198241e+00   1.47385314e+00   2.74908279e+00
C     1.095436524540000e+01   6.878101384732178e+00   4.606024500000000e+00 -1.90400621e+00   2.27796293e+00  -1.55002715e+00
C     1.207312245460000e+01   7.700106837666444e+00   4.649308200000000e+00  5.84338199e+00  -2.26757471e+00   2.58074790e-01
