32
Lattice="9.86 0 0 4.93 8.53901048131456 0 0 0 30 " PBC="1 1 1" Properties=species:S:1:pos:R:3:force:R:3 Energy="-254.95843341"
C     1.171115436100000e+00   1.011470639876497e+00   3.257923200000000e+00 -1.03691294e+00  -1.97557841e+00   8.90270320e-01
C     2.404715171200000e+00   1.679020165715693e+00   3.440079300000000e+00 -1.63211860e-01  -4.48546160e-01   3.77080860e-01
C     3.618834701500000e+00   9.845474813934760e-01   3.419356500000000e+00  1.04761685e+00  -1.54953284e+00  -2.48589100e-01
C     4.807257198400000e+00   1.771068478547368e+00   3.466293300000000e+00  1.22045215e+00  -1.49549843e+00  -3.77786640e-01
C     6.023566437500000e+00   9.987435863164760e-01   3.259818900000000e+00  7.98919960e-01  -3.09753450e-01   8.69887800e-01
C     7.278828493999999e+00   1.630935119120507e+00   3.171283500000000e+00  1.40248100e-02   3.76289207e+00   6.51888380e-01
C     8.523261115300000e+00   1.006169963730932e+00   3.150484200000000e+00  1.52383996e+00  -2.80131028e+00   2.12119795e+00
C     9.803668784699999e+00   1.687901505125836e+00   3.413236200000000e+00 -1.65989292e+00   1.39479719e+00  -1.90557820e+00
C     2.422398982600000e+00   3.037060293729863e+00   3.729777600000000e+00 -6.55585140e-01   3.09030131e+00  -5.20155500e-02
C     3.643520690500000e+00   3.863785684706948e+00   3.802017600000000e+00 -6.09139570e-01   1.17655680e-01  -1.52538975e+00
C     4.853472004399999e+00   3.208956210439179e+00   3.582265500000000e+00  8.08162320e-01  -2.25451473e+00  -9.18908350e-01
C     6.105091974100000e+00   3.873017721277505e+00   3.258736500000000e+00 -1.80207449e+00  -2.18370417e+00   1.64545863e+00
C     7.313495563799998e+00   3.119473357916115e+00   3.286033800000000e+00 -7.92301560e-01  -1.54919233e+00  -1.46984031e+00
C     8.503955925500000e+00   3.828703843270706e+00   3.302844300000000e+00  2.47148324e+00   5.09425770e-01   1.40376196e+00
C     9.803511517699999e+00   3.152459470010250e+00   3.496340100000000e+00 -2.62412831e+00  -2.95503722e+00  -5.51135710e-01
C     1.101335885790000e+01   3.745677848912199e+00   3.707136300000000e+00  1.57724876e+00   3.08164235e+00   5.64119860e-01
C     3.676175383600000e+00   5.297992334570936e+00   3.595075800000000e+00 -3.10176425e+00  -4.85427700e-01   1.65858258e+00
C     4.879098883899999e+00   6.009394290290591e+00   3.472101000000000e+00 -5.83417690e-01  -2.74140995e+00  -9.58630920e-01
C     6.034566302800000e+00   5.233166728709920e+00   3.245107200000000e+00  2.79783295e+00   2.77923782e+00  -3.78810600e-02
C     7.307431910300000e+00   5.960886050336017e+00   3.143118300000000e+00 -1.36050161e+00  -9.65861650e-01   9.17134360e-01
C     8.490875107199999e+00   5.261934142676411e+00   3.366195300000000e+00  1.83346523e+00  -5.65865400e-01  -9.41310920e-01
C     9.772821330999999e+00   5.952659482249480e+00   3.471373200000000e+00  3.80616950e-01  -2.09346746e+00   7.70236350e-01
C     1.097147924740000e+01   5.219947828146251e+00   3.780411300000000e+00  1.85055781e+00   1.57905920e-01  -1.82972743e+00
C     1.224313207490000e+01   5.997805828387974e+00   3.639562500000000e+00 -4.12293470e-01  -3.98040584e+00   3.36078450e-01
C     4.864429718199999e+00   7.372323599535294e+00   3.334227000000000e+00 -1.34169592e+00   2.55797330e+00  -1.62240000e-03
C     6.049810947399999e+00   8.093429372154526e+00   3.180762300000000e+00  2.76418008e+00   7.48913170e-01   2.84552710e-01
C     7.325075690099999e+00   7.346102945444463e+00   3.179701800000000e+00 -8.71766000e-02   2.54968596e+00   1.72551000e-03
C     8.597898110799999e+00   8.042648559950806e+00   3.292954500000000e+00 -5.60703200e-01   1.38753712e+00  -2.47829870e-01
C     9.876282508199999e+00   7.333076087226489e+00   3.337390200000000e+00 -3.40192403e+00   1.99731971e+00   5.65443130e-01
C     1.104111751870000e+01   8.111192648705545e+00   3.397752000000000e+00 -1.23001221e+00  -4.43228520e-01  -1.02918646e+00
C     1.222112751290000e+01   7.336364033211813e+00   3.409197000000000e+00  1.69401174e+00   3.73496433e+00   4.60400830e-01
C     1.345974771350000e+01   8.073949071376187e+00   3.364593600000000e+00  6.40322970e-01   9.28082820e-01  -1.42238702e+00
