26
Lattice="8.88768389401873 1.33226762955019e-15 0 4.44384194700937 7.69696003302603 0 0 0 30 " PBC="1 1 1" Properties=species:S:1:pos:R:3:force:R:3 Energy="-207.63513626"
C     1.231396646739372e+01   6.557068266491509e+00  -1.340421000000021e-01  2.03574954e+00   2.71949049e+00  -6.52278460e-01
C     8.675417206815425e+00   6.472263622698570e+00  -2.414631000000007e-01 -3.98943762e+00  -8.85048850e-01  -7.85854700e-02
C     9.951936401758530e+00   6.029305266303277e+00  -3.174627000000001e-01  3.04262084e+00   2.12412470e+00   9.58939070e-01
C     1.035251791197547e+01   4.702789315366592e+00  -2.178375000000017e-01 -9.60428960e-01  -2.13172247e+00   1.98838020e-01
C     6.192893922108311e+00   5.824543423473188e+00  -2.960996999999992e-01  1.61789530e+00  -2.11320220e-01   8.00193550e-01
C     7.625691662090803e+00   5.487980761329388e+00  -2.284635000000002e-01 -1.46004617e+00  -1.51562610e-01  -6.08962160e-01
C     7.992403764319537e+00   4.118216746528137e+00  -2.224569000000010e-01 -2.83472339e+00  -1.00360598e+00   2.33615190e-01
C     9.306282871791455e+00   3.730931425665037e+00  -2.038007999999998e-01  1.32179175e+00  -2.79231712e+00  -2.13217620e-01
C     9.586966282227770e+00   2.250624594548130e+00  -1.980830999999981e-01  1.72571831e+00   3.45784324e+00   1.89990260e-01
C     3.821596846175344e+00   5.205418123485660e+00  -3.207929999999948e-02  3.17937040e-01   1.78772650e-01  -9.80950430e-01
C     5.185420648761907e+00   4.798789110553565e+00  -1.581587999999989e-01  1.05287626e+00   1.93259200e+00   7.92662330e-01
C     5.592013299531063e+00   3.459398069726697e+00   7.181700000000000e-03 -1.56853208e+00  -7.96513000e-01  -1.09302300e+00
C     6.937702049781180e+00   3.069057979366891e+00  -1.427030999999985e-01  1.03333715e+00   5.31862300e-01   1.12575200e-01
C     7.281151305982715e+00   1.666328269605152e+00  -1.810529999999986e-01 -1.75958304e+00   2.08285459e+00   4.61056850e-01
C     8.603774383497070e+00   1.280486282686878e+00  -2.255763000000002e-01 -9.92693600e-02  -1.10617453e+00  -1.47242130e-01
C     2.794813568733304e+00   4.274569944702346e+00  -4.688040000000271e-02  9.72646900e-02  -2.53423829e+00   3.83169820e-01
C     3.124315249253064e+00   2.813433624053759e+00   6.237000000000000e-02 -3.48875200e-01   3.42194800e+00  -1.15990650e+00
C     4.510723900931673e+00   2.486563589736536e+00   2.125410000000000e-02  2.71836600e-02  -1.59126513e+00   5.63260450e-01
C     4.801843807532120e+00   1.069436716238682e+00  -3.745619999999761e-02  4.25945283e+00   3.12893633e+00  -1.84077220e-01
C     6.273129573704098e+00   7.031360793229731e-01  -1.216488000000027e-01 -3.46742061e+00   1.91185230e-01  -2.46831300e-01
C     1.098549182774606e+01   7.039929972770331e+00  -2.181744000000023e-01  2.74378230e-01  -2.06584014e+00   2.42641690e-01
C     2.054756082525908e+00   1.907863955340172e+00  -1.066661999999994e-01  1.59543133e+00  -3.05764672e+00   3.76551610e-01
C     2.437982123503636e+00   4.511272170447327e-01  -1.432272000000019e-01  7.61649120e-01   3.68875538e+00  -1.62449680e-01
C     3.832162254859300e+00   1.347232010979029e-01  -1.210829999999987e-01 -1.36784084e+00  -1.76542349e+00  -2.91976660e-01
C     4.443962066983060e+00   7.597340354510917e+00  -2.324310000000018e-01  2.26015363e+00  -1.38595778e+00   1.75434310e-01
C     5.893130298529080e+00   7.223865842968848e+00  -2.816552999999971e-01 -3.56728242e+00  -1.97972858e+00   3.30572280e-01
