26
Lattice="8.88768389401873 1.33226762955019e-15 0 4.44384194700937 7.69696003302603 0 0 0 30 " PBC="1 1 1" Properties=species:S:1:pos:R:3:force:R:3 Energy="-206.70656472"
C     1.885131080123964e-01   1.464922378317744e-01   3.826891500000000e+00 -1.20833734e+00   3.63271071e+00   5.81294130e-01
C     6.914241322253277e+00   7.317306860763447e+00   3.462503100000000e+00  4.53083062e+00   2.73207550e-01   1.31088162e+00
C     3.927086451574040e+00   4.590998052134070e-02   3.524927400000000e+00  5.22721900e-02  -9.83202080e-01  -6.22204330e-01
C     9.485253586569474e+00   6.785919900884291e+00   3.573036900000000e+00 -3.09549117e+00  -8.02912750e-01  -7.89870410e-01
C     1.081738604197980e+01   7.197279003633222e+00   3.798687000000000e+00 -1.15035933e+00  -2.75974750e-01  -5.48501980e-01
C     1.171807548067554e+01   6.110600481170537e+00   3.822108000000000e+00  2.34086480e+00   1.19170003e+00   1.62926872e+00
C     4.223927232099688e+00   6.511188227144685e+00   3.956895900000000e+00  1.72802756e+00  -2.02195585e+00  -8.43739510e-01
C     5.322845972529384e+00   5.477607799205758e+00   3.928828200000000e+00 -6.18279370e-01   4.00413714e+00  -8.91292140e-01
C     6.674474673549888e+00   5.945885998346139e+00   3.645854400000000e+00 -1.40369613e+00  -2.46214080e-01  -2.69338860e-01
C     7.711659695057661e+00   5.008916966038169e+00   3.432169500000000e+00 -5.73280480e-01  -1.20098516e+00   1.09389722e+00
C     9.098683152700914e+00   5.346378248265472e+00   3.348875700000000e+00 -4.09118490e-01   2.27441425e+00   1.00473608e+00
C     1.004942051702239e+01   4.336881839169215e+00   3.445107600000000e+00  1.14079863e+00  -7.49754090e-01   1.43359797e+00
C     1.136293811846104e+01   4.733088013676685e+00   3.865048200000000e+00  1.30142186e+00  -1.79393230e-01  -2.55424950e+00
C     3.556417554009755e+00   3.774448498282652e+00   3.793168200000000e+00  5.71824230e-01   9.63307300e-02   8.68186010e-01
C     4.969074691810153e+00   4.166224764414455e+00   3.902692200000000e+00 -1.94424925e+00  -2.12096023e+00   6.90630280e-01
C     5.970997516370396e+00   3.159951765209163e+00   3.985619700000000e+00  1.31396663e+00   2.84181647e+00  -2.34473118e+00
C     7.335242018056512e+00   3.650203707660790e+00   3.677950200000000e+00  7.89833690e-01  -3.03474076e+00   2.32405680e-01
C     8.364878018523140e+00   2.561364263669683e+00   3.608563500000000e+00  7.47378900e-01   3.08278372e+00   7.64376960e-01
C     9.750291072301334e+00   2.925591339553310e+00   3.501592500000000e+00 -3.98219090e-01   1.24223171e+00  -8.29207230e-01
C     1.918390926613329e+00   1.971152978882850e+00   3.462550500000000e+00 -1.23348254e+00   8.45225850e-01   1.64010467e+00
C     3.276847990690309e+00   2.381256399572486e+00   3.643809000000000e+00 -1.45846397e+00   1.57495309e+00  -9.18574180e-01
C     4.272843574461816e+00   1.430286135152344e+00   3.590847600000000e+00  1.24175424e+00  -1.56217929e+00   9.73461130e-01
C     5.639348436291205e+00   1.825016571513262e+00   3.814460100000000e+00  2.35756820e-01  -7.63142680e-01   3.34894000e-01
C     6.713568436585061e+00   9.133743861840070e-01   3.882919800000000e+00 -1.13460141e+00  -2.86549824e+00   9.75241500e-02
C     8.070668217973878e+00   1.257434118305829e+00   3.930468900000000e+00  1.59646900e-02  -2.62094368e+00  -1.37343597e+00
C     1.539266238861417e+00   6.254537405241952e-01   3.630590700000000e+00 -1.38311630e+00  -1.63165437e+00  -6.70113310e-01
