32
Lattice="9.82 0 0 4.91 8.50436946516319 0 0 0 30 " PBC="1 1 1" Properties=species:S:1:pos:R:3:force:R:3 Energy="-257.91388734"
C    -9.921220627689116e-03  -1.093485792665411e-02   3.009062900325363e+00  4.08767420e-01   2.41837230e-01  -2.11781590e-01
C     1.218388337272393e+00   7.041512192330035e-01   2.990731762918576e+00  1.99590300e-02  -7.91792900e-02   2.05010520e-01
C     2.449962038293598e+00   1.256047340192285e-02   3.007303144954483e+00  4.24456800e-01  -7.53950280e-01  -2.28328220e-01
C     3.691607120113498e+00   7.090662984175313e-01   3.002417873263150e+00 -9.08592590e-01   7.06260210e-01  -9.46768000e-03
C     4.895647805503635e+00   4.589210121358405e-03   2.993049825112017e+00  1.23159322e+00  -3.06581730e-01   1.11742990e-01
C     6.144068990854565e+00   7.058112493978933e-01   2.997727370689617e+00 -4.24633840e-01  -4.95153500e-02  -9.27840500e-02
C     7.371620827754851e+00  -9.103991535145455e-03   2.998158385275689e+00 -6.12149280e-01   2.04363920e-01  -2.49152000e-03
C     8.582862019612520e+00   6.952123376271759e-01   3.004815309673164e+00  4.54504390e-01   7.42834520e-01  -3.07979100e-02
C     1.224954196817892e+00   2.118365323152960e+00   2.995306271843069e+00 -1.67113800e-02  -1.15653320e-01   6.35940200e-02
C     2.445850411223382e+00   2.823179248998577e+00   3.010445991803968e+00  5.04410260e-01   7.82652990e-01  -8.09541600e-02
C     3.687871745409647e+00   2.141035243854001e+00   3.004186198569042e+00 -5.20627300e-01  -9.77728150e-01   3.55576400e-02
C     4.901536372191126e+00   2.834800856370224e+00   3.001748768816184e+00  7.91643250e-01   2.31585610e-01  -2.91092300e-02
C     6.140393790416240e+00   2.123202061636114e+00   2.991723559539965e+00 -4.71074570e-01   1.74583300e-02   9.42424800e-02
C     7.353144226895835e+00   2.841721153956271e+00   2.995526544258627e+00  6.82947800e-01   3.33462600e-02   6.61288600e-02
C     8.585011361312587e+00   2.125493171510601e+00   2.996687195078877e+00  2.14691820e-01  -1.64652140e-01   3.12322800e-02
C     9.829585897720920e+00   2.823725770989790e+00   2.997090218630897e+00 -8.48634940e-01   6.11330100e-01  -3.31755500e-02
C     2.458140758170932e+00   4.250447120810241e+00   3.008774231776011e+00 -2.81405760e-01  -1.68700550e-01  -1.30917940e-01
C     3.694430009831178e+00   4.958237145372157e+00   2.993119732566288e+00 -7.66779790e-01  -1.15951870e-01   1.87103480e-01
C     4.917704932956193e+00   4.254019494554646e+00   3.002407848259151e+00 -4.10615950e-01  -3.90120210e-01  -6.58913400e-02
C     6.131088674796861e+00   4.954857562355910e+00   2.998331573065209e+00  5.79058350e-01   6.62170810e-01   1.15466250e-01
C     7.361741172950097e+00   4.265542117892313e+00   3.011838596835202e+00  2.53058370e-01  -5.31851350e-01  -2.57877140e-01
C     8.601027188478087e+00   4.969314791896257e+00   2.991106519252833e+00 -4.91016620e-01  -8.06360490e-01   1.87891220e-01
C     9.826165280316461e+00   4.257451392955172e+00   2.993464403120869e+00 -4.39263360e-01  -7.91820610e-01   3.29977000e-03
C     1.103551373795183e+01   4.959826594642539e+00   2.994818564060436e+00  1.00916709e+00   1.65167460e-01   6.18937000e-02
C     3.672795929413943e+00   6.370952172438328e+00   3.002645126232672e+00  1.01002655e+00   2.60149180e-01  -1.85676080e-01
C     4.921864197305912e+00   7.081580071291034e+00   2.992472311406530e+00 -9.45271920e-01  -1.07589590e-01   1.91631520e-01
C     6.139738762124622e+00   6.378428200262804e+00   2.999722813018521e+00  3.21474700e-01  -1.36471710e-01  -1.66944930e-01
C     7.376177544080225e+00   7.085020406280771e+00   2.986172270187066e+00 -6.51847000e-01   3.11872170e-01   2.84098000e-01
C     8.590506522487994e+00   6.366109961196910e+00   3.003237250817109e+00  5.94447180e-01   1.02793725e+00  -1.43754250e-01
C     9.824709809347473e+00   7.089052866032810e+00   3.002953265450455e+00 -6.45677680e-01  -1.03047840e-01  -8.35293800e-02
C     1.103845007890878e+01   6.378086255228003e+00   2.995302078917348e+00  6.20972500e-01   1.83514810e-01  -1.14627700e-02
C     1.228251600127009e+01   7.087805202749625e+00   2.990513355927189e+00 -6.86876720e-01  -5.83306380e-01   1.26051000e-01
