32
Lattice="9.86 0 0 4.93 8.53901048131456 0 0 0 30 " PBC="1 1 1" Properties=species:S:1:pos:R:3:force:R:3 Energy="-254.84875059"
C     5.032980600799999e+00   7.458783983908857e+00   7.123860000000000e-02 -3.84314699e+00  -6.05252320e-01  -9.67994970e-01
C     6.231013886200000e+00   8.100190048311962e+00  -2.110920000000149e-02  2.54512478e+00   1.91404852e+00   2.49228150e-01
C     7.488221419299999e+00   7.386691253178838e+00  -4.526609999999920e-02 -1.24963434e+00   2.69871290e-01  -1.59609509e+00
C     8.676844024899999e+00   8.103149754734435e+00  -3.353150999999990e-01 -9.84647810e-01   1.94078130e+00   2.12516853e+00
C     9.881188942800000e+00   7.378554686262760e+00  -2.910758999999992e-01  1.89749530e+00   6.38456007e+00  -3.51392150e-01
C     1.116270152380000e+01   8.281408173542504e+00  -2.797188000000013e-01 -1.58088067e+00  -5.26254360e+00  -1.13809416e+00
C     1.236931498120000e+01   7.543010733921062e+00  -2.912907000000011e-01  2.25422560e-01  -2.05979661e+00   1.98701864e+00
C     1.359100073040000e+01   8.183229875867447e+00  -9.352679999999935e-02  2.64928224e+00  -1.56424277e+00   1.26248130e-01
C     1.355460806200000e+00   9.903460672401296e-01  -1.552905000000031e-01 -3.39824245e+00   1.53904439e+00  -7.02049960e-01
C     2.512539546300000e+00   1.757730288007294e+00  -2.856959999999980e-01  5.19415470e-01  -1.33510217e+00   5.83812060e-01
C     3.711677250300000e+00   1.066742288471860e+00  -2.453489999999974e-01  3.16491011e+00  -2.33035205e+00  -8.17822490e-01
C     4.977161267400000e+00   1.772799848312293e+00  -2.638539000000009e-01 -1.67728660e-01  -4.18318270e-01  -1.19567142e+00
C     6.253153037200000e+00   1.096090782101515e+00  -4.326101999999992e-01 -1.80402051e+00   2.66160560e-01   1.58903758e+00
C     7.516616444500000e+00   1.718281596611580e+00  -3.823742999999986e-01 -2.04796209e+00   1.63584834e+00   1.09362830e-01
C     8.687693525200000e+00   1.002147833624538e+00  -1.745934000000027e-01  2.06503600e+00   3.02271600e+00  -1.25180126e+00
C     9.940823849699999e+00   1.771947398896074e+00  -2.888091000000017e-01  4.07621510e-01  -2.42399172e+00   1.73075337e+00
C     2.525433468300000e+00   3.154256248595452e+00  -3.240419999999986e-01  1.27160708e+00   4.73108340e-01  -3.40275300e-02
C     3.745727084099999e+00   3.876196794879209e+00  -3.509975999999995e-01  1.28490290e-01   1.84604340e+00   1.25083922e+00
C     4.970555560399999e+00   3.183595007753160e+00  -3.016725000000022e-01 -6.83755700e-02  -6.59171800e-02  -2.04009360e-01
C     6.187643049299999e+00   3.889927865291468e+00  -3.189639000000000e-01  1.40177281e+00   2.55154500e-02  -6.75828510e-01
C     7.453078357999999e+00   3.135688597257216e+00  -3.928863000000007e-01 -9.13826530e-01   1.02620550e+00   5.80165210e-01
C     8.641633964900000e+00   3.863109224296722e+00  -3.092283000000009e-01  1.79831385e+00   6.14277000e-02  -5.76592580e-01
C     9.921686822200000e+00   3.183817875926688e+00  -2.684940000000005e-01  3.70390250e-01  -6.13233420e-01  -5.21227510e-01
C     1.121206359250000e+01   3.839871673517079e+00  -2.658617999999997e-01 -3.54168458e+00   3.64546313e+00  -2.97686760e-01
C     3.775863878300000e+00   5.341468279479332e+00  -1.576802999999991e-01 -1.32689920e+00  -8.15722760e-01  -3.28392920e-01
C     4.980671772500000e+00   6.049545400688390e+00  -5.811659999999819e-02  1.05820326e+00  -4.78192400e-01  -5.05006790e-01
C     6.202010301800000e+00   5.341990952310813e+00  -2.784809999999993e-01 -1.51677427e+00  -2.60365174e+00   1.32961278e+00
C     7.422753829400000e+00   5.952233727186947e+00  -1.709223000000009e-01  7.79778330e-01   2.58891527e+00  -4.92724850e-01
C     8.605723647700000e+00   5.266526678682869e+00  -3.481263000000006e-01  2.63050248e+00   7.59342640e-01   1.11639337e+00
C     9.853557821099999e+00   6.057070318283786e+00  -2.799834000000025e-01  1.97451063e+00  -5.99156215e+00  -4.21974820e-01
C     1.117270064840000e+01   5.318494327953206e+00  -2.837915999999971e-01 -2.05857360e-01   3.55644320e-01   9.51158960e-01
C     1.241486803330000e+01   6.091888987417033e+00  -1.331747999999990e-01 -2.23819593e+00  -1.18681703e+00  -1.65040566e+00
