32
Lattice="9.86 0 0 4.93 8.53901048131456 0 0 0 30 " PBC="1 1 1" Properties=species:S:1:pos:R:3:force:R:3 Energy="-255.90880911"
C     4.932778498699999e+00   8.380823005325171e+00  -6.235140000000001e-01  2.94708330e-01  -4.75249500e-01   3.84305870e-01
C     1.241484333400000e+00   5.403193797585584e-01  -6.113330999999995e-01  6.70857230e-01  -1.87379547e+00  -1.37205520e-01
C     7.409874056500000e+00   8.339732262214152e+00  -5.833197000000006e-01  8.95370180e-01   2.29130566e+00   2.47521000e-03
C     3.713410046700000e+00   5.888905522203705e-01  -4.744019999999978e-01  1.15803950e-01  -2.81767438e+00  -3.26554080e-01
C     9.910217719499999e+00   8.395333858174464e+00  -4.569288000000000e-01 -2.08437761e+00  -7.24416260e-01   4.48344300e-02
C     6.157041060300000e+00   5.749808457088696e-01  -5.055818999999993e-01  1.65172900e+00  -6.72018430e-01   1.54755270e-01
C     1.232012482160000e+01   8.415736542864851e+00  -4.383444000000019e-01  1.51353940e+00   7.89444940e-01  -3.39282690e-01
C     8.655082955599999e+00   5.707353350883183e-01  -5.666370000000001e-01 -1.31271671e+00   5.86865800e-02  -2.16188600e-02
C     1.265282084300000e+00   1.918252755097879e+00  -5.104118999999976e-01 -3.71782460e-01   2.23051581e+00   1.38265485e+00
C     2.462394642900000e+00   2.645516862075287e+00  -2.575545000000012e-01  1.37937978e+00   1.68786328e+00  -7.53619630e-01
C     3.714489223700000e+00   1.981389344685951e+00  -3.698420999999996e-01  6.07419340e-01  -4.32715900e-02  -1.11059380e-01
C     5.002959858800000e+00   2.658364913413809e+00  -4.424270999999997e-01 -2.44764795e+00   3.24886530e-01   3.49305810e-01
C     6.213709931299999e+00   1.967112802284230e+00  -5.921430000000001e-01 -1.53833886e+00   4.72681900e-01   5.16977030e-01
C     7.395536186799999e+00   2.703047847453554e+00  -5.969552999999976e-01  1.77301750e+00  -1.66818687e+00  -2.69890400e-02
C     8.632261344700000e+00   1.997063381542830e+00  -5.672031000000004e-01  8.00986610e-01  -1.31565252e+00  -1.00102340e-01
C     9.887634128999998e+00   2.643575005702030e+00  -4.420929000000022e-01 -1.14062805e+00  -1.71525230e-01  -3.93768310e-01
C     2.502650607200000e+00   4.127779355118619e+00  -1.274706000000023e-01 -3.54471910e-01  -2.46147343e+00   1.28608000e-03
C     3.719764619500000e+00   4.850373904215039e+00  -1.944392999999991e-01  7.92630500e-01  -9.50759120e-01  -2.54521320e-01
C     4.960852482300000e+00   4.056770907939350e+00  -3.548214000000023e-01 -1.01316130e-01   2.49197080e+00  -5.52616110e-01
C     6.188319691799999e+00   4.777268446842091e+00  -5.627181000000014e-01 -4.37944320e-01   1.34251743e+00   4.24362350e-01
C     7.424402224200000e+00   4.074139852986403e+00  -6.074006999999995e-01 -1.06269821e+00   1.86274046e+00   6.47988800e-02
C     8.647429672900000e+00   4.779721789943101e+00  -5.183070000000001e-01 -1.13872480e-01   9.86166520e-01   4.85575400e-02
C     9.794855226500001e+00   4.030586032302430e+00  -3.023480999999997e-01  4.53403924e+00   1.49100280e+00   2.74753870e-01
C     1.111776920800000e+01   4.754499004616961e+00  -8.143859999999847e-02 -2.50059245e+00   1.19704787e+00  -9.63194910e-01
C     3.730420962400000e+00   6.299306760772626e+00  -2.789912999999977e-01 -9.18963000e-03  -1.47598778e+00  -4.89128900e-02
C     4.941754697600000e+00   6.938901871833131e+00  -5.233761000000001e-01  1.55552442e+00   1.26029194e+00  -6.16285100e-02
C     6.190468678799999e+00   6.234232157366013e+00  -5.909690999999988e-01  3.32033830e-01  -8.05666630e-01  -2.34919960e-01
C     7.459144082100000e+00   6.947617212879543e+00  -6.587736000000000e-01 -8.59380560e-01  -1.38238091e+00   2.90472200e-01
C     8.705078775800001e+00   6.222098565034352e+00  -5.845266000000002e-01 -1.21223120e+00  -9.24069500e-02   7.10768440e-01
C     9.917889045999999e+00   6.932905266333446e+00  -3.832590000000025e-01 -5.59154820e-01   2.00946710e-01  -8.09387500e-02
C     1.108460046380000e+01   6.172683652947010e+00  -1.346978999999990e-01  2.59054259e+00   2.83114812e+00  -7.72899340e-01
C     1.240781172430000e+01   7.062740664511532e+00  -2.434994999999986e-01 -3.40123854e+00  -4.58875226e+00   5.29523790e-01
