32
Lattice="9.86 0 0 4.93 8.53901048131456 0 0 0 30 " PBC="1 1 1" Properties=species:S:1:pos:R:3:force:R:3 Energy="-256.87095867"
C     1.226897202900000e+00   2.115168399464120e-01   3.553377600000000e+00  2.67092040e-01   2.26454414e+00  -7.96936170e-01
C     2.463006357300000e+00   9.693704149465336e-01   3.457958100000000e+00  6.04796750e-01  -7.82805350e-01   4.77528400e-02
C     3.728921157800000e+00   2.587786405412208e-01   3.480689700000000e+00 -1.91003246e+00  -1.07093654e+00  -7.12816030e-01
C     4.917503238799999e+00   9.567363512106400e-01   3.368843700000000e+00  9.10908680e-01   2.26188904e+00   1.53913530e-01
C     6.158124033399999e+00   2.591507706179392e-01   3.363128400000000e+00 -3.84945220e-01  -1.58725100e-02  -7.38347600e-02
C     7.391399423799999e+00   9.312772914645201e-01   3.408870000000000e+00 -2.37637800e-02   1.43139847e+00   4.85708390e-01
C     8.602414976799999e+00   2.335817284168368e-01   3.501859500000000e+00  1.44251028e+00   9.20406270e-01  -6.59271880e-01
C     9.855221942600000e+00   9.407043590344399e-01   3.497058300000000e+00 -5.31413210e-01   1.23190891e+00  -3.77263670e-01
C     2.486526154800000e+00   2.386231772822498e+00   3.274095900000000e+00 -1.19698525e+00  -1.05342095e+00   3.68241350e-01
C     3.691390694700000e+00   3.109718306953658e+00   3.237772800000000e+00  3.04423100e-01   5.26643110e-01   4.85854730e-01
C     4.907032017400000e+00   2.446122513746912e+00   3.327028500000000e+00  1.65395351e+00  -3.07182240e+00   1.51634810e-01
C     6.187496529700001e+00   3.082280758479322e+00   3.386104500000000e+00 -1.10949527e+00   1.24443062e+00  -5.99169610e-01
C     7.414058048900000e+00   2.366033341262791e+00   3.438493200000000e+00 -1.20558391e+00   6.78836700e-02  -3.46343610e-01
C     8.588473922800000e+00   3.131399793853531e+00   3.362753100000000e+00  1.77877756e+00  -8.38519720e-01  -4.91575490e-01
C     9.828660236499999e+00   2.396614099494815e+00   3.304533900000000e+00  1.17455173e+00  -1.17894782e+00   9.63038280e-01
C     1.110742370160000e+01   3.067454389192794e+00   3.231741300000000e+00 -1.51475158e+00   5.56106550e-01  -2.97068210e-01
C     3.685012457900000e+00   4.524162697913258e+00   3.276790800000000e+00 -9.39899040e-01   5.84018260e-01  -9.16787740e-01
C     4.876581330100000e+00   5.263646982788595e+00   3.332913000000000e+00  2.74634578e+00  -2.19020573e+00  -1.62758800e-01
C     6.182928293100000e+00   4.524776652766771e+00   3.314830500000000e+00 -1.75527992e+00   1.19920110e-01   1.47972568e+00
C     7.380236572699999e+00   5.243848091529247e+00   3.498782400000000e+00  8.05877500e-01   6.18248300e-01  -1.56028294e+00
C     8.615302588399999e+00   4.556720834802136e+00   3.298086300000000e+00 -3.30042810e-01  -9.23963720e-01   1.18280025e+00
C     9.872172958800000e+00   5.213326508639850e+00   3.257407500000000e+00 -6.95176750e-01   6.28205900e-01  -3.17054020e-01
C     1.107134433470000e+01   4.491630946566763e+00   3.147092100000000e+00  9.15796790e-01  -1.77757700e-02   3.18833390e-01
C     1.229864678360000e+01   5.219631884758491e+00   3.156339000000000e+00  4.58229700e-01   3.89374960e-01   7.85950600e-01
C     4.940919259799999e+00   6.648131316187961e+00   3.399030000000000e+00 -5.21126510e-01   1.34485886e+00   5.75287000e-02
C     6.175380956100000e+00   7.352358112181482e+00   3.492675000000000e+00 -1.96510970e-01  -3.78765500e-02   5.78981050e-01
C     7.412141018400000e+00   6.683943755360872e+00   3.534593700000000e+00 -5.35332030e-01  -1.72625376e+00  -4.90624600e-01
C     8.640920150199999e+00   7.338759994162396e+00   3.435894000000000e+00  7.67697540e-01   1.56627895e+00   5.58795780e-01
C     9.881054698900000e+00   6.639037355416867e+00   3.319230300000000e+00 -6.62543210e-01   3.03775150e-01   6.07821300e-02
C     1.108422548800000e+01   7.390318881001056e+00   3.301049400000000e+00  6.99943760e-01  -1.46067629e+00   3.27814500e-02
C     1.231554672500000e+01   6.641416579906909e+00   3.266559000000000e+00  7.18839490e-01   1.25073604e+00  -9.56129500e-02
C     1.358591326620000e+01   7.399076831709763e+00   3.372949500000000e+00 -1.73686232e+00  -2.94155022e+00   1.85077510e-01
