32
Lattice="9.86 0 0 4.93 8.53901048131456 0 0 0 30 " PBC="1 1 1" Properties=species:S:1:pos:R:3:force:R:3 Energy="-253.736364"
C     5.158020782400000e+00   7.590958985568358e+00  -3.496439999999978e-01 -3.57962480e-01   1.42812445e+00   5.61375350e-01
C     6.403383793300000e+00   8.280331318930871e+00  -2.623680000000022e-01  1.14333089e+00   3.10968398e+00  -1.07533352e+00
C     7.738954169399999e+00   7.650319795502384e+00  -2.882936999999970e-01 -3.92598386e+00   9.36564380e-01  -3.32549740e-01
C     8.930854929199999e+00   8.377426272346332e+00  -4.366494000000003e-01 -2.27960964e+00   5.70746330e-01  -4.50328000e-01
C     1.009074983320000e+01   7.645621119595659e+00  -5.102892000000026e-01  2.52768863e+00  -5.27845720e-01   2.81797900e-01
C     1.130725430030000e+01   8.379724034676395e+00  -4.242147000000003e-01  1.45965432e+00  -2.88099058e+00   2.94463830e-01
C     1.255602941350000e+01   7.580358572568382e+00  -3.926609999999968e-01 -1.80193837e+00   5.33281850e-01  -1.54957191e+00
C     1.375637023470000e+01   8.303982157817746e+00  -3.086003999999996e-01  2.04239919e+00   1.01200468e+00  -3.35655530e-01
C     1.469673524600000e+00   1.273938218335182e+00  -5.083731000000000e-01 -2.27621054e+00  -3.05654195e+00   2.52686270e-01
C     2.646295869300000e+00   1.883829954490484e+00  -8.336228999999982e-01  1.85954549e+00   2.83039880e+00   3.08830550e-01
C     3.915378589199999e+00   1.256635109058930e+00  -6.953247000000005e-01  1.45638936e+00  -6.68542530e-01   9.88376310e-01
C     5.157016442800000e+00   1.959336923170827e+00  -5.900580000000026e-01  5.69887300e-02   9.69868480e-01  -8.22383590e-01
C     6.375470281200000e+00   1.217283250042059e+00  -3.344055000000026e-01  1.81389110e-01   3.03993927e+00  -3.30305310e-01
C     7.618057899299999e+00   1.991472379040945e+00  -2.260695000000013e-01  1.22689989e+00  -4.04355648e+00  -1.65216657e+00
C     8.885322878900000e+00   1.214475025665502e+00  -3.484499999999997e-01 -1.87953339e+00   1.89105370e+00   1.11183435e+00
C     1.008166206840000e+01   2.041102901142906e+00  -5.132504999999981e-01  8.02233520e-01  -4.79804728e+00  -7.11080900e-02
C     2.646932923900000e+00   3.355073281459900e+00  -1.018576200000002e+00  3.44203630e+00  -1.35952931e+00   7.55476620e-01
C     3.961848818500000e+00   4.071922015794432e+00  -8.966189999999976e-01 -1.55445326e+00   2.15482913e+00  -2.28854013e+00
C     5.210490279400000e+00   3.447797286190858e+00  -8.166227999999975e-01 -4.23075150e-01  -3.72487588e+00   1.52710339e+00
C     6.449100718600000e+00   4.076571763171107e+00  -6.345032999999987e-01  4.11981000e-02   3.40649710e+00   4.58284930e-01
C     7.688831303100000e+00   3.355009922002139e+00  -4.418228999999982e-01 -3.81247803e+00   4.67207550e-01   2.25423570e-01
C     8.830731559200000e+00   4.059974146940712e+00  -5.083310999999995e-01  4.26847180e+00   3.99812387e+00  -8.48678590e-01
C     1.010672894920000e+01   3.398566475169465e+00  -7.555502999999995e-01 -2.85180828e+00  -1.14029400e-01   1.23549618e+00
C     1.131137548450000e+01   4.031475797194446e+00  -9.816627000000011e-01 -4.50737800e-02   3.02916790e+00   3.42613600e-02
C     3.988917870900000e+00   5.592080551957900e+00  -1.004912399999998e+00 -3.90618721e+00  -4.93556254e+00   1.97413566e+00
C     5.099420386699999e+00   6.201562671780476e+00  -5.289044999999994e-01  4.60417061e+00   1.32084370e+00  -7.52563080e-01
C     6.424511456199999e+00   5.594196604144948e+00  -5.365392000000000e-01 -9.28742120e-01  -4.02224815e+00   1.37129470e-01
C     7.662667694500000e+00   6.251483947189281e+00  -3.627072000000027e-01 -2.16903250e-01   5.99807150e-01   2.29707530e-01
C     8.869705131899998e+00   5.576009792674120e+00  -4.341755999999997e-01  8.31139520e-01  -4.51536048e+00  -9.25422800e-01
C     1.013687018040000e+01   6.196789108751841e+00  -5.743784999999981e-01 -1.62230306e+00   1.27733119e+00  -2.23796070e-01
C     1.130831508840000e+01   5.486317990564610e+00  -9.118266000000013e-01  5.29296870e-01  -7.92902190e-01   7.81134380e-01
C     1.253451873890000e+01   6.162809909738883e+00  -8.241800999999995e-01  1.40943009e+00   2.86455897e+00   5.00885290e-01
