32
Lattice="9.86 0 0 4.93 8.53901048131456 0 0 0 30 " PBC="1 1 1" Properties=species:S:1:pos:R:3:force:R:3 Energy="-252.26803231"
C     4.954639548399999e+00   8.112142272061027e+00  -7.864226999999993e-01  3.88666168e+00   1.82439478e+00  -1.03471511e+00
C     1.370034576400000e+00   3.545199046252864e-01  -9.140660999999994e-01 -2.46883589e+00  -1.38623947e+00   2.90554657e+00
C     7.499528965900000e+00   8.149308229785122e+00  -7.698801000000017e-01 -3.94890440e-01   2.72558920e-01  -1.41209684e+00
C     3.763292427600000e+00   3.550117516289344e-01  -6.403172999999995e-01  5.95596430e-01  -2.38016201e+00  -1.46983840e-01
C     9.932308704400000e+00   8.036592693718388e+00  -6.606614999999998e-01  1.65713710e-01   5.98077008e+00   1.39904446e+00
C     6.170221612500000e+00   2.899143490643400e-01  -5.822471999999976e-01  3.36190346e+00   1.53302286e+00  -1.15332649e+00
C     1.244043121720000e+01   8.185882263302744e+00  -6.179070000000024e-01 -3.20031717e+00  -1.55779523e+00   2.47432640e-01
C     8.715482061800000e+00   3.012701229313776e-01  -9.141741000000003e-01 -1.27686319e+00   1.29728036e+00   1.10352954e+00
C     1.288792416200000e+00   1.698602678449477e+00  -4.206186000000010e-01  5.46715960e-01   1.31901760e+00  -2.57674149e+00
C     2.516842746100000e+00   2.509716879686817e+00  -3.360824999999998e-01 -3.11063970e-01  -1.13402472e+00   1.99607513e+00
C     3.735454295200000e+00   1.784954617389944e+00  -4.583109000000007e-01 -3.08768410e-01  -1.58802022e+00  -8.97204100e-02
C     4.938670637500000e+00   2.458228354294513e+00  -4.400154000000001e-01  3.65948143e+00   1.14264621e+00  -4.10752750e-01
C     6.224304205499999e+00   1.755043402969657e+00  -6.373770000000007e-01 -1.22011163e+00  -4.94074780e-01  -6.97693460e-01
C     7.465785531600000e+00   2.502386566140261e+00  -9.018443999999981e-01 -1.52662059e+00  -1.08017883e+00   9.78968380e-01
C     8.729195645599999e+00   1.767487729892685e+00  -9.703146000000018e-01 -2.10949276e+00  -8.90595130e-01   1.10525152e+00
C     9.880917004000001e+00   2.392387374697320e+00  -5.601767999999971e-01  2.43447823e+00   2.08233355e+00  -3.42347500e-02
C     2.593142581300000e+00   3.890680835235595e+00   1.121250000000000e-01 -2.04186455e+00  -8.76554430e-01  -2.27295684e+00
C     3.856186100500000e+00   4.589549145982601e+00   5.300970000000000e-02 -3.20426108e+00   1.94204648e+00  -1.67313274e+00
C     4.987880024099999e+00   3.902872492838519e+00  -3.593301000000011e-01 -3.51614070e-01  -1.28546665e+00   2.95104910e-01
C     6.141627316699999e+00   4.598951279641919e+00  -7.103111999999996e-01  3.01686682e+00   1.16417771e+00  -5.26221860e-01
C     7.365181782399999e+00   3.937110082308603e+00  -8.150618999999999e-01  4.42213523e+00  -2.91964850e+00   3.35204790e-01
C     8.747894297500000e+00   4.536636655202652e+00  -5.869904999999989e-01 -4.51088705e+00   4.05406118e+00  -8.30610450e-01
C     9.912032353899999e+00   3.858653056287630e+00  -4.192518000000014e-01  1.83396657e+00  -2.09056448e+00   8.68695280e-01
C     1.114482519590000e+01   4.577276709340535e+00  -8.002019999999987e-02  1.21470316e+00  -2.12002135e+00   5.60814600e-01
C     3.737318919799999e+00   6.038569954348131e+00  -2.456268000000001e-01  3.55743907e+00  -6.84156500e-02   3.72170170e-01
C     5.043148824399999e+00   6.757068596287610e+00  -5.331681000000010e-01 -6.42086340e-01  -2.33687688e+00  -1.64065432e+00
C     6.347512152600000e+00   5.994861833744784e+00  -9.001638000000014e-01 -6.38687036e+00   5.50286710e-01   2.79940546e+00
C     7.521527759800000e+00   6.688799719840638e+00  -9.190974000000018e-01  1.96713258e+00   1.93313437e+00   1.51316914e+00
C     8.728597094300000e+00   6.041123886992595e+00  -5.541854999999991e-01  1.59074032e+00  -2.80385803e+00  -1.03326756e+00
C     1.002319695190000e+01   6.708851621980508e+00  -4.217933999999985e-01 -3.87131615e+00  -3.10835703e+00  -5.32502600e-02
C     1.117073658570000e+01   5.941709311380242e+00  -1.169036999999982e-01  6.28523870e-01   4.19962936e+00  -1.32492340e+00
C     1.238853261420000e+01   6.765013803978830e+00  -2.978129999999979e-01  9.43805120e-01  -1.17450676e+00   4.30869990e-01
