32
Lattice="9.86 0 0 4.93 8.53901048131456 0 0 0 30 " PBC="1 1 1" Properties=species:S:1:pos:R:3:force:R:3 Energy="-253.64234317"
C     4.921150255600001e+00   8.191449185795076e+00  -3.433524000000006e-01  5.55900322e+00   1.27964608e+00  -3.22024940e-01
C     1.374982077900000e+00   4.096077083250152e-01  -3.962403000000023e-01 -3.94735325e+00   3.05304360e-01  -9.15244300e-02
C     7.462401333100000e+00   8.202905378425358e+00  -2.974341000000003e-01  3.86599300e-02   7.70671400e-01  -1.03554725e+00
C     3.728144879999999e+00   4.120463643279984e-01  -5.285325000000007e-01  1.55625585e+00  -2.16556172e+00   1.84633831e+00
C     9.917042269200000e+00   8.313724571044693e+00  -4.999788000000009e-01  1.42208776e+00  -3.84381005e+00  -1.40566116e+00
C     6.236891580099999e+00   4.440361446793272e-01  -6.502218000000006e-01 -4.74271150e-01   1.64045520e-01   1.02617991e+00
C     1.238966306320000e+01   8.216606306130622e+00  -6.466646999999988e-01 -9.62937900e-02  -8.49553200e-02   8.86687210e-01
C     8.685993661199999e+00   3.219376023367505e-01  -4.319915999999999e-01 -1.05774792e+00   4.28732582e+00   3.00501900e-02
C     1.392144492500000e+00   1.826736422619108e+00  -6.827834999999993e-01 -2.62557033e+00  -9.62503150e-01   1.51801759e+00
C     2.615062051500000e+00   2.513460723441668e+00  -6.875481000000008e-01 -2.29580816e+00   2.21800996e+00  -2.63006330e-01
C     3.789441196900000e+00   1.775320308035674e+00  -4.855491000000001e-01  8.82350240e-01   3.62812459e+00  -1.34356403e+00
C     5.041688755600000e+00   2.548780717880197e+00  -4.771031999999984e-01 -1.98928627e+00   1.34215716e+00  -7.23662560e-01
C     6.248641347700000e+00   1.893594825314993e+00  -5.407353000000015e-01  1.99010522e+00  -2.06540903e+00   1.14094722e+00
C     7.525909297300000e+00   2.557413059744743e+00  -3.426680999999974e-01 -1.51603162e+00   9.16203900e-02  -1.41586850e+00
C     8.757327803199999e+00   1.853160646719782e+00  -3.260037000000011e-01 -2.14623386e+00  -2.77234000e+00  -1.31709290e+00
C     9.900780319099999e+00   2.548780461709882e+00  -5.847504000000008e-01  4.86925117e+00  -1.83269120e-01   1.05058501e+00
C     2.498061960400000e+00   4.010795594663458e+00  -8.496887999999991e-01  3.85125320e-01  -3.68110202e+00   1.09216202e+00
C     3.707300790700000e+00   4.634946112078683e+00  -8.279718000000003e-01  3.39361888e+00   3.76147065e+00   1.06420808e+00
C     4.962749497000000e+00   4.026737073328570e+00  -5.688747000000021e-01  3.78159560e-01  -2.87457990e+00   1.10788020e-01
C     6.200391733500000e+00   4.733246176043185e+00  -4.089999000000013e-01  1.15989007e+00  -5.16598985e+00  -1.68919085e+00
C     7.479237677499999e+00   3.953207739475394e+00  -5.099574000000011e-01  2.78487030e-01   1.57896577e+00   1.69890837e+00
C     8.741350807099998e+00   4.680450498926603e+00  -5.234993999999986e-01 -1.72951471e+00  -4.25463840e-01   4.68706960e-01
C     9.996097530699998e+00   3.971501544747537e+00  -4.514046000000000e-01 -3.43938803e+00  -2.90343870e-01  -1.78587368e+00
C     1.113538000610000e+01   4.695610999693214e+00  -6.792291000000006e-01  2.58783817e+00   2.05853350e-01  -1.33318260e+00
C     3.830574553300000e+00   6.118808047175023e+00  -7.277898000000000e-01 -1.30008281e+00  -1.84705149e+00   6.70438890e-01
C     5.029061152200000e+00   6.819509256521561e+00  -4.495983000000017e-01 -6.92556950e-01  -2.09268978e+00  -6.23903570e-01
C     6.262508944700000e+00   6.057700155696789e+00  -4.202133000000003e-01 -1.98188835e+00   4.40264242e+00   9.26350290e-01
C     7.417726215400000e+00   6.795362813466427e+00  -2.718980999999978e-01  3.55317165e+00  -5.14014680e-01  -1.60825976e+00
C     8.667429351799999e+00   6.097757593149622e+00  -5.496039000000010e-01  2.18837981e+00   4.00375120e-01   1.51299428e+00
C     9.988042354399999e+00   6.765193806319749e+00  -5.673212999999997e-01 -2.48960353e+00   3.71954260e+00  -6.78984200e-01
C     1.121378983200000e+01   6.119666644678787e+00  -8.304222000000010e-01 -1.63852445e+00  -1.26829030e+00   2.29088383e+00
C     1.245421682830000e+01   6.776288457246308e+00  -6.646010999999987e-01 -8.22228700e-01   2.08161889e+00  -1.69689941e+00
