32
Lattice="9.86 0 0 4.93 8.53901048131456 0 0 0 30 " PBC="1 1 1" Properties=species:S:1:pos:R:3:force:R:3 Energy="-257.20826546"
C     1.193993643400000e+00   3.609952070524800e-01   3.653060700000000e+00 -5.63254500e-01   8.77338180e-01  -4.49874970e-01
C     2.399186324100000e+00   1.092925114746265e+00   3.664971900000000e+00  6.62566270e-01  -8.60163570e-01   2.82603690e-01
C     3.631223890100000e+00   3.875217284987048e-01   3.703503600000000e+00  3.03778200e-02  -1.12656886e+00  -7.82503770e-01
C     4.848946757399999e+00   1.067732557517226e+00   3.583456800000000e+00  1.40761631e+00   7.82013900e-01   2.69357480e-01
C     6.094199286999999e+00   3.356119737194224e-01   3.569761800000000e+00  7.74998290e-01   2.63288872e+00   7.86392600e-02
C     7.350835087999999e+00   1.082195250347411e+00   3.597543300000000e+00  7.01501260e-01  -5.89271640e-01   3.55836890e-01
C     8.628134688199999e+00   3.818223659538288e-01   3.634870200000000e+00 -1.62976628e+00   1.29294000e-02  -5.99924940e-01
C     9.842262944600000e+00   1.125702362644059e+00   3.610324500000000e+00 -6.33612240e-01  -1.62571173e+00   1.68695450e-01
C     2.423563892300000e+00   2.490385413861145e+00   3.633262800000000e+00  3.65922720e-01   1.75940914e+00  -4.53945350e-01
C     3.679190620900000e+00   3.226124317959743e+00   3.554047800000000e+00 -1.15741827e+00  -6.58230270e-01   5.25155090e-01
C     4.886346624800000e+00   2.515414534429597e+00   3.552282900000000e+00  6.03639490e-01  -1.10189661e+00   1.90165200e-01
C     6.139139490800000e+00   3.213421429799381e+00   3.588368700000000e+00 -5.26446250e-01  -1.92987304e+00  -2.07698730e-01
C     7.384126638499999e+00   2.514691707192465e+00   3.641290200000000e+00 -1.63544143e+00  -6.51291260e-01  -6.73150040e-01
C     8.565226211999999e+00   3.259201968246224e+00   3.566816400000000e+00  1.66596026e+00  -1.30819450e+00  -6.52427600e-02
C     9.805755801600000e+00   2.522825370844979e+00   3.564414600000000e+00  1.00551394e+00   1.49943631e+00   3.14132300e-01
C     1.107041315630000e+01   3.237691773896580e+00   3.593049300000000e+00 -8.05851770e-01  -9.64726860e-01  -1.59456570e-01
C     3.689773654700000e+00   4.648851549084942e+00   3.588916800000000e+00 -1.83244828e+00  -9.02864250e-01  -2.27000400e-01
C     4.887966721400000e+00   5.311026280167608e+00   3.593990400000000e+00  1.30721192e+00   1.72276153e+00  -1.48528300e-01
C     6.124161312700000e+00   4.583816225126538e+00   3.562847400000000e+00 -7.61635610e-01   1.85380511e+00   6.19001230e-01
C     7.321084953699999e+00   5.297719342405890e+00   3.641650800000000e+00  1.08440411e+00   2.89492179e+00  -7.22501400e-01
C     8.570534096499999e+00   4.665401859197279e+00   3.513316800000000e+00  1.27178997e+00  -1.45881200e-02   1.02415847e+00
C     9.855588882499999e+00   5.367334820805558e+00   3.553051800000000e+00 -1.52247880e+00   1.10599480e-01  -1.30257660e-01
C     1.108229386470000e+01   4.649576511074695e+00   3.572420700000000e+00 -2.38852120e-01   3.47107500e-01  -1.46575180e-01
C     1.231166992090000e+01   5.363939881018919e+00   3.580892400000000e+00 -1.29888550e-01   4.58321240e-01   4.35189630e-01
C     4.865551934099999e+00   6.757849830356425e+00   3.606053700000000e+00  1.60525784e+00  -7.82372900e-01  -3.45004550e-01
C     6.102991005300000e+00   7.481802850630108e+00   3.585869100000000e+00  2.44823700e-02  -2.22254930e-01   1.04218248e+00
C     7.321046795499999e+00   6.765912364051641e+00   3.683385300000000e+00  1.07311904e+00  -7.48974440e-01  -5.51197760e-01
C     8.585843964999999e+00   7.486492560575829e+00   3.672589200000000e+00 -9.25022320e-01  -5.70997700e-02   3.20022400e-02
C     9.837623568100000e+00   6.800959024764705e+00   3.587813100000000e+00 -1.07826379e+00  -1.38855668e+00   6.93045800e-02
C     1.105203406700000e+01   7.489914312855374e+00   3.560414100000000e+00  5.62977620e-01  -2.40773520e-01   5.51348270e-01
C     1.229136965990000e+01   6.797437707622962e+00   3.632944200000000e+00  2.56637740e-01  -1.01501325e+00  -8.58306090e-01
C     1.353856727170000e+01   7.476881477330065e+00   3.593251200000000e+00 -9.63596780e-01   1.23689391e+00   5.63396210e-01
