32
Lattice="9.86 0 0 4.93 8.53901048131456 0 0 0 30 " PBC="1 1 1" Properties=species:S:1:pos:R:3:force:R:3 Energy="-257.3481539"
C     9.817054917899998e+00   1.191069085599193e+00   3.666138900000000e+00 -2.97117760e-01  -4.76601670e-01  -1.64888450e-01
C     1.168868785800000e+00   1.928325628030402e+00   3.628342500000000e+00  2.96525390e-01  -1.66677421e+00   4.29684780e-01
C     2.390224077100000e+00   1.225756083190839e+00   3.622252500000000e+00  1.45558977e+00  -1.94000443e+00  -6.78754000e-01
C     3.673367354200000e+00   1.867102801471107e+00   3.509277600000000e+00 -9.17158480e-01   6.38600880e-01   5.62991030e-01
C     4.915586306900000e+00   1.147008303863022e+00   3.513634500000000e+00 -1.75195888e+00   1.27178249e+00   2.16340030e-01
C     6.082905100700000e+00   1.935414458360583e+00   3.596089200000000e+00  2.30311439e+00  -3.00067148e+00   1.13746010e-01
C     7.354916684300001e+00   1.157154356115358e+00   3.640362300000000e+00 -5.38799880e-01   1.87189913e+00  -1.34831770e-01
C     8.594464365800000e+00   1.900825403219143e+00   3.707438100000000e+00 -1.20540263e+00  -1.34031096e+00  -3.22080020e-01
C     1.104305165630000e+01   3.311064758467866e+00   3.648957600000000e+00 -4.46514530e-01   1.70193452e+00   5.39832000e-03
C     2.399812631300000e+00   4.023458861815192e+00   3.563550900000000e+00  1.40178334e+00  -6.21199550e-01  -2.95231450e-01
C     3.664154219499999e+00   3.302461363848847e+00   3.528143100000000e+00 -1.09038570e+00  -2.00375720e-01   2.85365100e-02
C     4.867925482600000e+00   4.017102678584195e+00   3.569540100000000e+00  1.71971650e-01   1.53199663e+00  -2.87005600e-01
C     6.089834955200001e+00   3.327098031495638e+00   3.644070300000000e+00  7.00680400e-01   5.36255000e-01  -2.11049610e-01
C     7.346514386699999e+00   4.027550926417418e+00   3.688601700000000e+00 -3.31965970e-01  -4.16762080e-01  -3.55950760e-01
C     8.554538760800000e+00   3.300692678608125e+00   3.711366900000000e+00  1.60268061e+00   1.22205909e+00   3.75157370e-01
C     9.823363493800001e+00   4.035025207680667e+00   3.731086200000000e+00 -1.47173327e+00  -3.38678140e-01  -7.70958140e-01
C     1.228296849620000e+01   5.432724940649407e+00   3.492815700000000e+00 -8.16932570e-01   5.80501870e-01   5.62514920e-01
C     3.640906459400000e+00   6.162935689363253e+00   3.526932600000000e+00  4.66422780e-01  -3.29896500e-01  -2.74733350e-01
C     4.879424165300000e+00   5.474729443271889e+00   3.531926100000000e+00 -3.23247190e-01  -1.83413030e+00   6.85853400e-01
C     6.108528282700000e+00   6.136700006613976e+00   3.640814400000000e+00  7.94559070e-01   1.26667828e+00  -8.13547950e-01
C     7.377911387499999e+00   5.437011438520261e+00   3.611600700000000e+00 -2.00385680e+00   3.41395490e-01   9.35169470e-01
C     8.564810119999999e+00   6.172625929236166e+00   3.651459600000000e+00  7.69108450e-01  -1.79833650e-01  -4.76425140e-01
C     9.798484347399999e+00   5.455261609448851e+00   3.638933400000000e+00  8.14260760e-01  -2.39189800e-02   7.58630100e-02
C     1.104605737870000e+01   6.154514602617981e+00   3.535854300000000e+00 -2.65743840e-01   4.50479190e-01   5.92273350e-01
C     1.350842761810000e+01   7.569291331865463e+00   3.566417100000000e+00 -3.11452790e-01   4.93604550e-01  -1.15436380e-01
C     4.866623568200000e+00   8.288162872392602e+00   3.597891900000000e+00  4.40074360e-01   6.92620190e-01   3.29412940e-01
C     6.094129823299999e+00   7.583489656931188e+00   3.623398800000000e+00  6.80851880e-01  -5.72896780e-01   1.32589610e-01
C     7.329087724100000e+00   8.304398007628123e+00   3.632096100000000e+00 -3.36828400e-01   8.15403660e-01  -2.44277710e-01
C     8.557937206999998e+00   7.589549536498529e+00   3.585221700000000e+00  1.44210240e-01   1.45244320e-01   2.47816150e-01
C     9.808732190499999e+00   8.272809987719878e+00   3.543133200000000e+00 -7.67816700e-02   6.27412190e-01   3.34647110e-01
C     1.103354143980000e+01   7.600214931368259e+00   3.601392900000000e+00  7.71154690e-01  -1.90803602e+00  -9.65593450e-01
C     1.228358085150000e+01   8.282952965928441e+00   3.565783800000000e+00 -6.27107420e-01   6.62222970e-01   4.82769760e-01
