26
Lattice="8.88768389401873 1.33226762955019e-15 0 4.44384194700937 7.69696003302603 0 0 0 30 " PBC="1 1 1" Properties=species:S:1:pos:R:3:force:R:3 Energy="-207.96125893"
C     1.289159779653785e+01   7.159189519350362e+00   3.382230000000000e-02 -1.92260480e-01   8.70315320e-01   4.89489300e-02
C     9.108216705603169e+00   6.922666093986878e+00  -1.394351999999976e-01  4.62741690e-01  -3.21176490e-01   1.89845670e-01
C     1.050676171180299e+01   6.560871334442332e+00  -2.222316000000006e-01 -2.25101779e+00  -2.49529611e+00   5.44869560e-01
C     1.081218345711914e+01   5.131452492746169e+00  -1.869981000000003e-01  8.51149120e-01   5.75352530e-01   1.88784170e-01
C     6.712963411014956e+00   6.317728138605047e+00  -1.146329999999907e-02  6.09420460e-01   2.69415500e+00   3.88328270e-01
C     8.084491946767965e+00   5.914494562620586e+00  -1.041216000000027e-01 -3.72601430e-01   7.29434930e-01  -3.77294260e-01
C     8.354358068323092e+00   4.523733548735897e+00  -1.925102999999986e-01  3.40013127e+00   1.34762543e+00   3.12072300e-02
C     9.794592666621785e+00   4.101590389228134e+00  -2.087553000000000e-01 -7.23909080e-01   2.36940903e+00   3.29210390e-01
C     1.014208115298930e+01   2.745153506779627e+00  -5.550330000000159e-02  1.36364841e+00   1.89524859e+00   1.98280700e-02
C     4.365932511771034e+00   5.773911973730246e+00   8.472810000000000e-02 -2.85454047e+00   1.76859041e+00  -7.99524640e-01
C     5.669766447855669e+00   5.408378646759927e+00   1.964760000000000e-02  1.85952077e+00  -2.57024256e+00   1.49171860e-01
C     5.976087982295063e+00   3.988531128800269e+00  -1.782630000000296e-02  2.19054331e+00   2.32193633e+00  -4.51643110e-01
C     7.329748940566515e+00   3.614240200707817e+00  -1.377419999999994e-01  7.42411820e-01  -1.85292483e+00   4.07983740e-01
C     7.740833648938301e+00   2.232556596634508e+00  -8.532209999999907e-02 -1.68200152e+00   2.08989310e-01   1.20655060e-01
C     9.098886456202836e+00   1.856478588362290e+00  -8.022000000025287e-04  6.46601000e-03  -2.07775414e+00  -2.76300000e-05
C     3.345452513023292e+00   4.788032762850841e+00  -2.791709999999981e-02 -2.60740164e+00   1.16325550e+00  -1.50384840e-01
C     3.652305753209783e+00   3.458050562934246e+00   1.675020000000000e-02 -1.93787530e-01  -3.60481855e+00   1.49016680e-01
C     5.019880380584607e+00   3.043083510171252e+00   3.862200000000000e-03 -2.78259790e+00  -2.01414531e+00   5.19359350e-01
C     5.331825330388416e+00   1.644071201195202e+00   1.819650000000000e-02 -4.56251700e-01  -3.38811220e-01  -4.75244140e-01
C     6.666045546687321e+00   1.292502776685714e+00  -5.528729999999982e-02  2.41341334e+00  -3.08244412e+00  -8.44647500e-02
C     1.147655831555775e+01   7.517113477695822e+00  -1.006505999999980e-01  2.48671109e+00   2.98289867e+00   4.58496840e-01
C     2.642975842664304e+00   2.379260192988706e+00   5.641649999999999e-02  1.82099620e-01   2.01727842e+00  -2.56127760e-01
C     3.008835749333127e+00   1.024706371811539e+00   1.149888000000000e-01 -1.50667847e+00  -6.84452910e-01  -4.41371650e-01
C     4.331720880175825e+00   5.909097839095552e-01   1.735320000000000e-02  9.02052080e-01   1.24935753e+00  -5.39236700e-02
C     6.329035241167720e-01   4.938598924656893e-01   9.917400000000000e-02 -4.16180590e+00  -1.69799556e+00  -4.66044250e-01
C     1.935416705895869e+00   6.511289519138680e-02   8.594220000000001e-02  2.31454492e+00  -1.45378521e+00   1.03449000e-02
