32
Lattice="9.86 0 0 4.93 8.53901048131456 0 0 0 30 " PBC="1 1 1" Properties=species:S:1:pos:R:3:force:R:3 Energy="-252.41753341"
C     1.059952908700000e+00   1.209702401928020e+00   3.326424600000000e+00  2.47253470e+00  -3.12709198e+00   4.76432050e-01
C     2.291441223400000e+00   1.860492241117910e+00   3.214198500000000e+00 -8.38174960e-01   2.79556613e+00  -1.39174555e+00
C     3.494938082700000e+00   1.242747689364782e+00   3.354756600000000e+00  1.40290470e-01  -3.73069526e+00   1.19907341e+00
C     4.681938175999999e+00   1.956055210663154e+00   3.412313700000000e+00  3.46341308e+00  -2.65206616e+00   2.44513040e-01
C     5.950797123200000e+00   1.254625538332566e+00   3.643233300000000e+00  2.98300904e+00  -8.94710190e-01  -4.54189070e-01
C     7.284979063399999e+00   1.926852136381973e+00   3.548027100000000e+00 -9.18430350e-01  -2.16269786e+00  -1.46852940e+00
C     8.531844491799999e+00   1.167784314091595e+00   3.276171300000000e+00 -1.03955923e+00   3.41552998e+00   8.98421280e-01
C     9.846824328500000e+00   1.986785145408263e+00   3.093723000000000e+00 -6.47609248e+00  -3.82567336e+00   1.37672906e+00
C     2.321012990300000e+00   3.286167565611330e+00   2.850888000000000e+00 -8.19259970e-01   2.27862394e+00   1.25346098e+00
C     3.544434050200000e+00   4.046924318784547e+00   2.943916500000000e+00  6.62210190e-01  -2.30697160e-01   1.10205771e+00
C     4.794122396600000e+00   3.305043646008104e+00   3.216280200000000e+00 -2.08113904e+00   2.81391680e+00   2.16082780e-01
C     5.989709070900000e+00   3.976217469455431e+00   3.495851100000000e+00  1.07002816e+00   2.85396900e+00   1.54410110e-01
C     7.249465413999999e+00   3.298191431658323e+00   3.444306000000000e+00  8.38462260e-01   3.26889669e+00   2.59263380e-01
C     8.493060526900001e+00   4.116813814030518e+00   3.280030200000000e+00 -1.20158239e+00  -1.26097972e+00   1.68016405e+00
C     9.709206829499999e+00   3.347045074586813e+00   3.096906000000000e+00  1.20519069e+00   4.37183888e+00  -1.05227724e+00
C     1.093744425290000e+01   4.125564250410002e+00   2.887095000000000e+00 -1.58068400e-02  -2.11583502e+00   1.32346678e+00
C     3.531272379900000e+00   5.501657212820569e+00   3.140061300000000e+00  4.18027706e+00  -3.21283665e+00  -3.29946880e-01
C     4.824234294300000e+00   6.200696303777176e+00   3.423636300000000e+00 -3.96495613e+00  -6.39788410e-01  -4.34011560e-01
C     5.989870281900000e+00   5.511047221085006e+00   3.702505800000000e+00 -1.91501786e+00  -5.08492849e+00  -2.01318913e+00
C     7.148269621099999e+00   6.179387544684754e+00   3.714590400000000e+00  5.29924752e+00   2.93746630e-01   7.98592200e-01
C     8.470732261099998e+00   5.551734239780528e+00   3.601341000000000e+00  3.66459340e-01  -2.69693488e+00  -2.47772089e+00
C     9.737996649099999e+00   6.214772520993035e+00   3.368515500000000e+00 -2.22668334e+00   2.99477350e+00   1.47376508e+00
C     1.093171071220000e+01   5.555475948782760e+00   3.117790800000000e+00  1.13968497e+00  -3.36407520e+00  -7.56561730e-01
C     1.222242306760000e+01   6.138971981132390e+00   3.174842400000000e+00 -3.61883632e+00   4.40294497e+00   9.56751700e-02
C     4.753165041200000e+00   7.611528266353210e+00   3.387571500000000e+00 -8.47270630e-01  -2.00786358e+00   9.14201120e-01
C     5.948880930800000e+00   8.189541570853843e+00   3.639517800000000e+00  6.86259050e-01   6.98888870e+00  -1.68801449e+00
C     7.168363610900000e+00   7.564416923123060e+00   3.736456800000000e+00  1.69680449e+00   1.17443282e+00  -7.40032110e-01
C     8.405051547299999e+00   8.310882702966843e+00   3.567696600000000e+00  2.06856393e+00   1.41960159e+00   3.28235930e-01
C     9.733009806200000e+00   7.703198471800832e+00   3.549872700000000e+00 -1.19395308e+00  -2.99140133e+00   2.32944760e-01
C     1.102537420460000e+01   8.334119143675125e+00   3.661054200000000e+00 -4.13141816e+00   1.42839764e+00  -1.77900417e+00
C     1.216060821330000e+01   7.588711774180337e+00   3.325345500000000e+00  1.55044334e+00   3.94902450e-01   1.34178558e+00
C     1.337144830760000e+01   8.330231502983791e+00   3.341674200000000e+00  1.46530250e+00  -8.97754460e-01  -7.84052250e-01
