32
Lattice="9.86 0 0 4.93 8.53901048131456 0 0 0 30 " PBC="1 1 1" Properties=species:S:1:pos:R:3:force:R:3 Energy="-253.00807693"
C     9.749206581699999e+00   4.862495968882552e-01   3.613048200000000e+00  6.26606310e-01  -6.05508560e-01  -2.46478690e-01
C     1.158750059400000e+00   1.062386453835907e+00   3.406371000000000e+00 -3.19535240e-01   4.35069819e+00   7.50117850e-01
C     2.378204934300000e+00   4.431484291498264e-01   3.875645400000000e+00  1.87255080e-01   3.26162265e+00  -2.45822511e+00
C     3.633398759599999e+00   1.225774612843581e+00   3.748669200000000e+00 -2.20326507e+00   9.04719100e-02   7.18287550e-01
C     4.835037501900000e+00   5.257744562574503e-01   3.905482500000001e+00  7.67581840e-01  -3.91137730e-01  -1.46210771e+00
C     6.056053362699999e+00   1.233569106999830e+00   3.733298700000000e+00  1.20367334e+00   1.46082970e-01  -5.57213000e-02
C     7.317695135000000e+00   4.846791874708784e-01   3.620558700000000e+00 -3.44737032e+00  -1.53738000e+00   3.90071960e-01
C     8.488175636399999e+00   1.169106836034738e+00   3.535484100000000e+00  3.08259727e+00   1.56816621e+00  -9.36147480e-01
C     1.099664167160000e+01   2.616924753993950e+00   3.056260200000000e+00  1.38695910e-01  -3.18871821e+00   1.57931554e+00
C     2.332350462000000e+00   3.315512814417003e+00   3.207714300000000e+00  1.36398726e+00   5.04168210e-01   4.20206200e-02
C     3.576980431200000e+00   2.637858650526300e+00   3.532571700000000e+00  1.10565234e+00  -3.81155600e-02  -1.07755188e+00
C     4.848493641099999e+00   3.398448380654527e+00   3.510839100000000e+00 -5.10882840e-01  -6.44898692e+00   1.35921534e+00
C     6.087140020000000e+00   2.697616524447645e+00   3.716279100000000e+00 -3.87460020e-01  -3.56968231e+00  -6.64695070e-01
C     7.393322320999999e+00   3.260299060312694e+00   3.736700400000000e+00 -2.18858867e+00   2.28028997e+00   4.08289580e-01
C     8.566640727599999e+00   2.612404543406258e+00   3.417702300000000e+00  3.73938810e-01  -1.18367318e+00   8.49688100e-02
C     9.777985653899998e+00   3.358223151645762e+00   3.123381300000000e+00 -5.14599830e-01  -2.41137452e+00   7.87833370e-01
C     1.220327051060000e+01   4.754908364779372e+00   3.182841600000000e+00  2.57328227e+00   9.04049690e-01   1.03087559e+00
C     3.668695094600000e+00   5.437114333596546e+00   3.555089700000000e+00 -4.69781728e+00   1.46517345e+00  -9.70704860e-01
C     4.824990211199999e+00   4.694797317384575e+00   3.711378900000000e+00  4.70240880e-01   4.91272442e+00   6.42602760e-01
C     5.985457488200000e+00   5.371194197372203e+00   4.086244200000000e+00  4.23028122e+00   2.39475231e+00   1.94862770e-01
C     7.359932860700000e+00   4.635049092545071e+00   4.074729300000000e+00 -1.85219852e+00   2.62622293e+00  -1.86937797e+00
C     8.518829094599999e+00   5.402431947070559e+00   3.809405700000000e+00  2.61324362e+00   1.14472286e+00  -6.24462260e-01
C     9.788503414499999e+00   4.737603462310919e+00   3.264976800000000e+00 -2.28709614e+00   2.24355598e+00   1.36203782e+00
C     1.099565438980000e+01   5.511700711557039e+00   3.178110000000000e+00 -6.37479480e-01  -1.01691735e+00   8.36906080e-01
C     1.343108824310000e+01   6.885664813264837e+00   3.691400400000000e+00  2.14309331e+00  -1.61766334e+00   2.35200400e-02
C     4.825535222700000e+00   7.657442440314067e+00   3.915827400000000e+00 -7.78932730e-01  -2.99896135e+00  -3.44327750e-01
C     6.041071930799999e+00   6.886518970483152e+00   4.142814900000000e+00  3.45459340e-01  -7.75525530e-01  -1.24674301e+00
C     7.339995102600000e+00   7.629500150930258e+00   4.030078500000000e+00 -1.14327853e+00  -4.06630363e+00   1.24523527e+00
C     8.591000942199999e+00   6.884124631944561e+00   3.943976400000000e+00 -2.41739090e+00  -1.26506631e+00  -1.31941190e-01
C     9.749387118300000e+00   7.628552576937292e+00   3.785723700000000e+00  1.82526265e+00  -4.49717890e-01  -2.94140440e-01
C     1.098044529050000e+01   6.910740983781034e+00   3.475131300000000e+00 -2.16288172e+00  -1.20645853e+00  -1.02079760e-01
C     1.218720092910000e+01   7.510228704177400e+00   3.529170300000000e+00  2.49792582e+00   4.87848916e+00   1.02854354e+00
