32
Lattice="9.86 0 0 4.93 8.53901048131456 0 0 0 30 " PBC="1 1 1" Properties=species:S:1:pos:R:3:force:R:3 Energy="-253.79261658"
C     4.975206621000000e+00   8.389828501947694e+00  -6.200970000000012e-01 -1.66161310e-01  -1.42667147e+00   5.08563810e-01
C     1.291409013700000e+00   5.601077680350153e-01  -5.200770000000006e-01 -4.00574970e-01  -1.21427473e+00  -9.09900720e-01
C     7.413471921200000e+00   8.338585387716584e+00  -6.082605000000001e-01  1.66095684e+00  -7.76074910e-01   3.78607790e-01
C     3.756094578300000e+00   4.539429338580136e-01  -5.361323999999996e-01 -1.33875537e+00   2.29367364e+00   2.13118849e+00
C     9.880345025400000e+00   8.270164175322650e+00  -2.989703999999982e-01 -1.50468300e-02   2.37327684e+00  -1.30077087e+00
C     6.178833730900000e+00   4.687359156135656e-01  -3.790928999999998e-01 -2.76864300e-02   9.98762850e-01   1.53605030e-01
C     1.233000838700000e+01   8.315828754007175e+00  -3.338496000000006e-01  1.36930616e+00  -2.15154167e+00   4.32240750e-01
C     8.619870479899999e+00   4.668812425373096e-01  -6.647804999999991e-01  1.61730280e-01  -3.12265340e-01   1.69376095e+00
C     1.322856251200000e+00   1.946804217489331e+00  -2.828847000000003e-01 -2.16868425e+00   1.15010000e-03  -9.02335000e-03
C     2.514277667100000e+00   2.617204406587171e+00   4.459080000000000e-02  6.91686950e-01  -9.92675500e-02  -6.12943170e-01
C     3.745320901400000e+00   1.924699110279546e+00  -2.011827000000004e-01  9.94042100e-02  -7.90188380e-01  -8.34947630e-01
C     4.933228262600000e+00   2.701023931189584e+00  -2.908268999999990e-01  8.54153510e-01  -1.03408101e+00   5.14249430e-01
C     6.157798554799999e+00   1.927348252890861e+00  -4.994340000000008e-01  7.75184380e-01   8.39599150e-01   1.08922730e-01
C     7.428666230499999e+00   2.650971581969912e+00  -6.113595000000025e-01 -1.08665711e+00  -1.02977631e+00   6.09877520e-01
C     8.640629921099999e+00   1.857271924095588e+00  -6.149427000000003e-01  1.03319878e+00   3.90743166e+00   1.29321070e-01
C     9.922535718899999e+00   2.622403468508023e+00  -3.739442999999980e-01 -7.58787090e-01   3.25515410e-01   8.77066740e-01
C     2.496442110300000e+00   3.999588058018353e+00   3.095820000000000e-01 -7.89433030e-01   2.78281440e+00  -1.33717835e+00
C     3.745183995300000e+00   4.772758739237289e+00   1.377036000000000e-01 -1.87504295e+00   6.02084360e-01   1.07386414e+00
C     4.915663264199999e+00   4.160660010433326e+00  -1.087697999999975e-01  3.74876381e+00  -3.95905991e+00  -1.83572241e+00
C     6.172004251200000e+00   4.824390976175971e+00  -4.229096999999982e-01  2.44639080e-01  -1.49251198e+00  -1.69954600e-02
C     7.417063623399999e+00   4.092815864367631e+00  -5.473661999999990e-01  4.76529160e-01  -9.77100810e-01   6.44729480e-01
C     8.684712157000000e+00   4.773164769185613e+00  -3.721542000000007e-01 -1.23847790e+00  -3.55034380e-01   2.61276580e-01
C     9.908669157199999e+00   4.079767402453142e+00  -6.221039999999789e-02 -2.53657361e+00  -2.38923125e+00  -2.11577642e+00
C     1.105432715790000e+01   4.785360610903672e+00   1.750719000000000e-01  4.18714974e+00  -1.70027600e-02   2.81728700e-01
C     3.811687920500000e+00   6.185339064209105e+00   9.501960000000000e-02 -9.33908500e-02   1.53632316e+00  -1.97317769e+00
C     5.005888229500000e+00   6.970716602469619e+00  -4.613180999999997e-01 -8.77996810e-01  -2.16635245e+00   1.32794019e+00
C     6.237399468700000e+00   6.198901574554489e+00  -6.024899999999995e-01 -2.25822981e+00   1.36438123e+00   1.13007327e+00
C     7.449552471300000e+00   6.880774521962942e+00  -6.142149000000003e-01  4.14036000e-03   1.79811036e+00  -1.19029530e-01
C     8.646700969599999e+00   6.179265180664577e+00  -3.836784000000009e-01  1.47638571e+00   4.37264880e-01  -2.07098380e-01
C     9.873536941899999e+00   6.908915514120619e+00  -2.273285999999999e-01  1.42133725e+00  -1.68590255e+00   4.23887870e-01
C     1.116428351150000e+01   6.247380611093222e+00   1.791480000000000e-02 -3.71641527e+00  -4.00755391e+00   1.02058692e+00
C     1.239719930770000e+01   6.784690160437789e+00   1.156983000000000e-01  1.14334738e+00   6.62350334e+00  -2.42892746e+00
