32
Lattice="9.86 0 0 4.93 8.53901048131456 0 0 0 30 " PBC="1 1 1" Properties=species:S:1:pos:R:3:force:R:3 Energy="-253.33528014"
C     4.936492514199999e+00   8.382904218349461e+00  -9.117896999999999e-01  1.23091002e+00  -7.68116870e-01  -4.86811850e-01
C     1.223396557800000e+00   5.294176250787423e-01  -9.477680999999976e-01  2.55821048e+00   1.64598448e+00  -1.83360020e-01
C     7.449985867600001e+00   8.378338751006224e+00  -1.013273999999999e+00 -1.98973505e+00  -6.48191900e-02  -2.70784540e-01
C     3.723190575100000e+00   5.441944681044871e-01  -1.055888700000001e+00  1.79721461e+00   1.21513657e+00   2.64814323e+00
C     9.887085272099998e+00   8.350093497530585e+00  -7.761873000000001e-01  6.51838230e-01   1.32812940e-01  -1.47127510e-01
C     6.199083212900000e+00   4.802809993429448e-01  -7.107182999999999e-01  4.47669830e-01   2.49885741e+00  -2.03718637e+00
C     1.237163957480000e+01   8.330507483802505e+00  -8.310938999999991e-01 -2.19239080e-01   5.00685622e+00   6.59896810e-01
C     8.675642978300001e+00   6.067953201750440e-01  -9.520158000000016e-01 -1.05395671e+00  -6.19271955e+00   4.54458240e-01
C     1.274336867400000e+00   2.003714502195806e+00  -8.220746999999982e-01  1.28664512e+00  -2.71757484e+00   9.04999020e-01
C     2.535277741600000e+00   2.642774046519007e+00  -4.528790999999970e-01 -3.51093050e-01   1.89917486e+00  -2.43217982e+00
C     3.789141699400000e+00   2.033686941321235e+00  -7.606131000000005e-01 -2.68983326e+00  -4.61360536e+00   1.20586410e-01
C     5.014166241800000e+00   2.634462173717774e+00  -7.018875000000016e-01  2.05777962e+00  -6.15692720e-01  -7.10667190e-01
C     6.268307512100000e+00   1.932355955586857e+00  -8.816933999999996e-01 -1.11184882e+00  -1.60256919e+00   1.00644386e+00
C     7.500895709800000e+00   2.627196500480552e+00  -9.601895999999996e-01 -3.22836954e+00   1.65280496e+00  -6.53072220e-01
C     8.703583161699999e+00   1.931267402530866e+00  -1.015935299999999e+00 -8.07219820e-01   2.07631864e+00   1.09458210e-01
C     9.889459707999999e+00   2.626381708100550e+00  -8.801442000000002e-01  9.16376360e-01   1.36270234e+00   6.07961330e-01
C     2.547362305500000e+00   4.119613072446072e+00  -3.715149000000011e-01  2.12591930e-01  -2.67528566e+00   2.38498290e-01
C     3.829617837500000e+00   4.766021801528987e+00  -4.508772000000008e-01 -2.18411594e+00   1.99841394e+00  -4.79737500e-02
C     5.033354689199999e+00   3.998733217679200e+00  -6.678539999999984e-01 -2.04226772e+00   3.66881188e+00   3.13131730e-01
C     6.173373361499999e+00   4.744120776669674e+00  -9.365184000000006e-01 -4.49515910e-01   2.77091403e+00  -2.89605490e-01
C     7.339926181199999e+00   4.074625210342086e+00  -1.041968100000002e+00  5.38759172e+00  -9.51892560e-01   9.35079550e-01
C     8.608577033100001e+00   4.809216898382697e+00  -8.505389999999977e-01  7.91650180e-01  -2.07186660e-01   1.07100280e-01
C     9.789112269499999e+00   3.990358753931150e+00  -6.465237000000030e-01  2.54253814e+00   3.90806372e+00  -9.49152400e-02
C     1.113797081970000e+01   4.743103268180878e+00  -4.012700999999979e-01 -2.04834236e+00  -6.33614560e-01  -8.33543230e-01
C     3.756249183100000e+00   6.260860293036949e+00  -5.112807000000004e-01  1.26903134e+00  -9.30526630e-01  -1.34199165e+00
C     5.015041760500000e+00   6.923265492012470e+00  -8.657247000000012e-01 -2.88322875e+00   1.23237508e+00   6.49265100e-01
C     6.204692961299999e+00   6.229917822320993e+00  -1.054672799999999e+00  1.04093251e+00  -1.59156656e+00   1.26286172e+00
C     7.468394684799999e+00   6.944621642613054e+00  -1.014781500000002e+00 -3.68227310e-01   3.80495140e-01   8.22744400e-02
C     8.712649530300000e+00   6.292496472964301e+00  -7.992812999999970e-01 -1.30333209e+00  -3.33625486e+00  -3.80276800e-01
C     9.971022712600000e+00   6.926643439168253e+00  -6.019476000000026e-01 -3.40096931e+00   4.30624800e-02  -1.30055372e+00
C     1.110017093210000e+01   6.122595439883322e+00  -5.056179000000007e-01  2.75530237e+00   4.38326526e+00   8.09037380e-01
C     1.235884306960000e+01   7.051901842338953e+00  -5.259177000000008e-01  1.18501228e+00  -8.97462475e+00   3.00853810e-01
