32
Lattice="9.644 0 0 4.822 8.35194899409713 0 0 0 30 " PBC="1 1 1" Properties=species:S:1:pos:R:3:force:R:3 Energy="-256.94926317"
C     3.572984759661740e-03   1.779236019655177e-05   3.001112321123150e+00 -2.49383270e-01   1.43291900e-02  -2.41822400e-02
C     1.203439006322694e+00   6.974233670667401e-01   2.998611513399878e+00  1.90866110e-01  -1.01820420e-01  -1.01415100e-02
C     2.408364276445522e+00   2.583402582206205e-04   2.997920331350468e+00  2.09496340e-01   3.79773800e-02   3.40724200e-02
C     3.618784721987464e+00   6.935277545837298e-01   3.002617507262191e+00 -2.08090690e-01   1.37567430e-01  -5.79409100e-02
C     4.822824623177925e+00  -3.124402293636084e-03   3.000793654167346e+00  8.48777100e-02   3.19943610e-01   1.42026300e-02
C     6.029898070954285e+00   6.999378213448918e-01   3.001859407830629e+00 -8.98601000e-02  -4.39809240e-01  -3.87080500e-02
C     7.235718544917214e+00   7.592537001388506e-04   2.995618422222815e+00 -1.16527440e-01  -1.41113790e-01   7.88108200e-02
C     8.441319036979149e+00   6.932063232758389e-01   3.000931924314507e+00 -3.60005700e-02   3.01359490e-01  -3.05198700e-02
C     1.206487357698127e+00   2.085286185595521e+00   2.995933011627131e+00 -8.76812600e-02   3.01389450e-01   2.62111800e-02
C     2.412643867948564e+00   2.783644763896089e+00   2.997881255276118e+00 -2.43901820e-01   1.90605070e-01  -1.41493100e-02
C     3.613695193337151e+00   2.090147238947434e+00   2.996693605484643e+00  2.13700710e-01  -2.86597070e-01   4.59939900e-02
C     4.818880472113062e+00   2.782606330724866e+00   2.999088566694435e+00  9.90175900e-02   1.06015370e-01  -9.46447000e-03
C     6.026242187156693e+00   2.084497913483199e+00   3.001425710994857e+00 -2.98369100e-02   3.71241970e-01   2.67801000e-03
C     7.232046974933382e+00   2.782738814191010e+00   3.000712178372792e+00 -3.61520500e-02   2.19519010e-01  -1.36146600e-02
C     8.436501437420226e+00   2.091712497242716e+00   2.999761335146204e+00  1.67654300e-01  -2.72252700e-01   6.37827000e-03
C     9.644586495731184e+00   2.787910146029641e+00   2.997942696453211e+00  2.20133300e-02  -3.20079100e-01   5.99778000e-03
C     2.408763338979572e+00   4.180090128014428e+00   3.001268123908318e+00  2.21273890e-01  -2.31149650e-01   7.59752000e-03
C     3.619462886458496e+00   4.874611594536562e+00   3.001414202843049e+00 -3.36167470e-01  -7.79563500e-02  -2.56967900e-02
C     4.818125434929656e+00   4.177356545445864e+00   2.997438998725219e+00  2.39122310e-01  -2.16344260e-01   2.40969600e-02
C     6.024412500393274e+00   4.871832848068014e+00   2.998108099269242e+00  1.40942800e-01   8.91417100e-02  -1.77316600e-02
C     7.235856331761363e+00   4.180263898747810e+00   2.997386755162660e+00 -3.77520020e-01  -3.29555470e-01   1.04862900e-02
C     8.435966076223453e+00   4.870564644753432e+00   2.997355354844485e+00  3.78690740e-01   2.32152210e-01   1.09515500e-02
C     9.647034616209648e+00   4.174732155872327e+00   2.999745619690489e+00 -3.69397970e-01   8.67353000e-02  -2.17585000e-03
C     1.084667924354529e+01   4.869206429542362e+00   3.003257982670373e+00  1.45097780e-01   2.29597630e-01  -3.69646700e-02
C     3.618795600712088e+00   6.264349311284290e+00   2.999554874153014e+00 -2.73466680e-01   6.52997000e-02   1.91660000e-02
C     4.818583879115229e+00   6.961745495061556e+00   2.997945128383101e+00  2.82631260e-01  -3.55838100e-02   1.76929400e-02
C     6.025021812713183e+00   6.264667780867648e+00   2.997609364423026e+00  8.92901400e-02  -1.79726100e-02   2.84542000e-03
C     7.234387312927032e+00   6.961079495515760e+00   2.998843415960531e+00 -1.51721850e-01  -8.28562500e-02  -1.01152700e-02
C     8.441462434466052e+00   6.266582747888352e+00   2.998516976854376e+00 -3.07916050e-01  -2.12061040e-01  -5.49147000e-03
C     9.641349655241303e+00   6.961439622721592e+00   2.998550757341802e+00  2.26902640e-01  -1.33570610e-01   3.30998000e-03
C     1.084506364521267e+01   6.261555185452378e+00   2.998700558697960e+00  1.40802580e-01   7.88642100e-02   4.05613300e-02
C     1.205223220207556e+01   6.956721632967085e+00   3.001327424204781e+00  6.12439300e-02   1.16983670e-01  -5.41563800e-02
