32
Lattice="9.86 0 0 4.93 8.53901048131456 0 0 0 30 " PBC="1 1 1" Properties=species:S:1:pos:R:3:force:R:3 Energy="-251.75304601"
C     9.817854070899999e+00   6.907846003057999e-02  -4.172904000000024e-01  6.21023318e+00  -6.49207582e+00  -2.76628510e-01
C     1.241306459000000e+00   7.047889190534192e-01  -5.213343000000030e-01 -3.47050910e-01  -2.19500384e+00   1.83020241e+00
C     7.392552748000000e+00   8.417643474685244e+00  -4.745283000000029e-01  9.49715650e-01   5.34149422e+00   6.89787630e-01
C     3.815095092800000e+00   6.907810139213983e-01  -2.288700000000006e-01 -3.16356977e+00  -6.46686994e+00  -2.09443794e+00
C     9.933524393100001e+00   8.468131825780027e+00  -3.172503000000013e-01 -1.25267400e+00   7.60737300e-01   5.27519840e-01
C     6.203658006400000e+00   5.927777659611808e-01  -3.674003999999975e-01  1.49445450e+00   4.78054487e+00   1.65360520e-01
C     7.494342310100000e+00   2.758757888846960e-02  -2.438055000000006e-01 -2.96697777e+00  -3.13801401e+00  -2.29360370e-01
C     8.698681509200000e+00   7.338594678919504e-01  -3.132455999999983e-01 -4.31651476e+00  -2.29616880e+00  -4.11284110e-01
C     1.102684886620000e+01   2.071147067956367e+00  -1.920482999999997e-01  2.76764285e+00  -7.75567160e-01  -2.04291622e+00
C     2.479920349199999e+00   2.687017563079449e+00  -1.975295999999993e-01 -8.42768330e-01   3.42790674e+00   1.82861099e+00
C     3.736315369000000e+00   2.002444409777011e+00  -2.150315999999997e-01 -9.03581290e-01   4.59563426e+00  -2.59870000e-04
C     4.934972348700000e+00   2.791327126449461e+00  -2.645435999999997e-01  1.14226143e+00  -2.19103062e+00  -7.96573460e-01
C     6.165278745199999e+00   2.152997240571777e+00  -4.444724999999998e-01 -2.34205740e-01  -5.69579317e+00   1.52675485e+00
C     7.408672171799999e+00   2.749766140031310e+00  -3.093279000000031e-01 -1.82109067e+00   2.14541170e-01  -1.55390349e+00
C     8.604683910700000e+00   2.056277320496599e+00  -4.251353999999985e-01 -2.32082880e-01   2.63930230e+00   9.48265040e-01
C     9.771145574700000e+00   2.719686536324358e+00  -2.934741000000010e-01  4.61302715e+00   2.58794359e+00   4.94609710e-01
C     2.533137579299999e+00   4.178471959344082e+00   1.966620000000000e-02 -2.12468718e+00  -1.27262809e+00  -1.66085435e+00
C     3.770986481400000e+00   4.860055007346738e+00  -6.377190000000255e-02 -4.34598600e-01   2.31774814e+00  -1.70143121e+00
C     5.034239476300000e+00   4.141132232756719e+00  -2.865377999999978e-01 -4.89214844e+00   2.86268464e+00   1.48495213e+00
C     6.197054320700000e+00   4.860642405877658e+00  -3.345368999999998e-01  8.92450100e-01   3.16393070e-01   1.36524680e-01
C     7.375932830600000e+00   4.125607543193136e+00  -3.362217000000030e-01  3.10808974e+00   1.50155826e+00  -5.86280400e-02
C     8.644025507899999e+00   4.755270845774248e+00  -3.419076000000025e-01  1.84851500e-01   6.34765617e+00   3.42817720e-01
C     9.898475346900000e+00   4.148103822473010e+00  -2.451552000000028e-01 -3.05990219e+00  -1.08616836e+00  -3.28916100e-02
C     1.103464871780000e+01   4.888808929676672e+00  -9.315780000000018e-02  5.38920560e+00   2.13178992e+00   7.02869520e-01
C     3.723348630900000e+00   6.379228910211758e+00  -3.017489999999974e-01 -1.14163275e+00  -2.81931102e+00   2.39067448e+00
C     4.933790381200001e+00   7.031933878672103e+00  -3.117359999999998e-01  1.59191847e+00   2.10729114e+00  -7.77533370e-01
C     6.210848510000000e+00   6.245710466033438e+00  -3.004619999999996e-01 -1.79328080e+00   4.06478582e+00  -1.49911142e+00
C     7.382151434000000e+00   7.066997446625916e+00  -5.064138000000007e-01  2.39069119e+00  -3.72885662e+00   1.60525788e+00
C     8.723000016000000e+00   6.386657763939253e+00  -3.444237000000001e-01 -5.97492805e+00  -4.75644374e+00  -6.98976050e-01
C     9.856812114099998e+00   7.068872186376801e+00  -2.340252000000014e-01  2.75029007e+00   5.63387630e-01   1.46637960e-01
C     1.108564404620000e+01   6.401315316988592e+00  -7.942650000000029e-02  9.24642240e-01  -2.76088170e+00  -7.81036110e-01
C     1.233667744450000e+01   7.120473085147021e+00  -1.692381000000012e-01  1.09222044e+00  -8.86586310e-01  -2.05019240e-01
