32
Lattice="10.116 0 0 5.058 8.76071298468338 0 0 0 30 " PBC="1 1 1" Properties=species:S:1:pos:R:3:force:R:3 Energy="-256.71408853"
C    -1.556342071557359e-03   3.240407048129491e-03   3.001819810632248e+00  7.51190900e-02  -1.09967650e-01  -2.22620500e-02
C     1.262871367168628e+00   7.305444785501317e-01   2.995727778160612e+00  8.14015200e-02   5.25249600e-02   4.49711500e-02
C     2.529041680606051e+00  -3.394906292158797e-04   2.997259592669061e+00  1.84462200e-02   6.57642800e-02   1.80903700e-02
C     3.795658331948544e+00   7.309784582834943e-01   3.001524058333310e+00 -1.25177750e-01   2.36514500e-02  -2.86273700e-02
C     5.060289233938005e+00  -3.976469048754568e-04   3.000340719580156e+00 -1.16642140e-01   1.28225820e-01   1.12475000e-02
C     6.321912305817106e+00   7.292983733812027e-01   3.000496449217197e+00  5.27463000e-03   5.52329000e-03   1.73629800e-02
C     7.585239360798695e+00   5.540958097581880e-05   3.001207648764456e+00  1.51793220e-01   1.16494400e-02   4.91852000e-03
C     8.853451291364413e+00   7.298370040973612e-01   3.001734785235636e+00 -1.89308740e-01   1.02721250e-01  -2.25482500e-02
C     1.260759586068596e+00   2.192306981490150e+00   2.997933452926418e+00  2.32380740e-01  -1.02242630e-01  -2.31667000e-03
C     2.530258423348164e+00   2.922365836419066e+00   3.002689498719854e+00 -1.48707770e-01   5.31307400e-02  -4.93338700e-02
C     3.790838881930954e+00   2.194560064724184e+00   3.001458643144123e+00  1.30738090e-01  -1.63748200e-01  -8.09661000e-03
C     5.057417270570173e+00   2.922876345726035e+00   2.997989034785265e+00 -1.11741550e-01  -1.25298000e-02   5.09177100e-02
C     6.318210831213818e+00   2.187397188981677e+00   3.001977257223973e+00  1.43229040e-01   1.39903060e-01  -4.85213300e-02
C     7.584099341632430e+00   2.917871669244989e+00   2.997527408300428e+00  4.01526900e-02   1.30825210e-01   9.57315000e-03
C     8.851136553396291e+00   2.191952538852191e+00   2.997097559455931e+00 -1.64904700e-02  -1.16791990e-01   3.13995000e-03
C     1.011782480438426e+01   2.917628852015222e+00   2.995209875062526e+00 -1.76971770e-01   2.61198010e-01   6.43646600e-02
C     2.531130006678784e+00   4.383712278068826e+00   2.998672026159322e+00 -2.33893150e-01  -7.70361000e-02   3.62129000e-02
C     3.791187250162248e+00   5.111755306258199e+00   2.998916777269610e+00  1.23190090e-01   3.89235000e-02  -1.02535600e-02
C     5.053365711757983e+00   4.382822550784655e+00   2.999559959314535e+00  2.54616300e-01  -6.85114800e-02   1.29933600e-02
C     6.326298258909392e+00   5.110292064755433e+00   3.003574003496457e+00 -2.75266560e-01   1.31218900e-02  -9.62108500e-02
C     7.586460432385229e+00   4.383352954003741e+00   2.995872530644362e+00  4.17607800e-02  -2.53965980e-01   4.33588400e-02
C     8.851410589604573e+00   5.110114958542450e+00   2.996522911858127e+00 -2.08562900e-02   1.27695630e-01   3.75269300e-02
C     1.011518404244663e+01   4.383700109110374e+00   3.003365348205780e+00  1.25652700e-02  -2.11720470e-01  -8.75602300e-02
C     1.137623699706634e+01   5.111399334017277e+00   3.001473834738106e+00  1.60062200e-01   1.00477300e-01  -1.12496800e-02
C     3.796718088504004e+00   6.570831417543778e+00   2.998153729290170e+00 -1.53396170e-01   1.15872100e-01   5.19637000e-02
C     5.056736153636465e+00   7.304189917509031e+00   3.003456844359035e+00  1.50704580e-01  -1.91450400e-01  -6.31699000e-02
C     6.324368424012724e+00   6.566769131482588e+00   2.997455797008626e+00 -9.40120200e-02   2.40557650e-01   7.16562700e-02
C     7.587689557399330e+00   7.299388320811280e+00   2.998257952265638e+00 -5.29694100e-02   3.91913300e-02  -1.90936300e-02
C     8.849876104227477e+00   6.572436378260472e+00   2.997968111023356e+00  1.21541690e-01  -4.54603400e-02   1.00212700e-02
C     1.011665666748627e+01   7.305371457443293e+00   3.000655265796721e+00 -1.10218210e-01  -1.75159860e-01  -1.99791600e-02
C     1.137658282710115e+01   6.574043385164723e+00   2.999589454296901e+00  1.82944160e-01  -8.86810000e-02   2.12393700e-02
C     1.264659932598181e+01   7.301545431962533e+00   3.000835250256069e+00 -1.00268300e-01  -3.36910300e-02  -2.03354900e-02
