32
Lattice="9.86 0 0 4.93 8.53901048131456 0 0 0 30 " PBC="1 1 1" Properties=species:S:1:pos:R:3:force:R:3 Energy="-253.4775994"
C     4.962396706200000e+00   8.154130635953702e+00  -6.603156000000006e-01  1.93461580e+00   4.31673068e+00  -2.59349610e-01
C     1.307326948400000e+00   3.994637908252992e-01  -7.470441000000001e-01 -4.94807730e-01   1.28855192e+00   1.49971087e+00
C     7.533329045900000e+00   8.297309604248465e+00  -7.835919000000011e-01 -3.83288929e+00  -1.68592016e+00   6.85896130e-01
C     3.784406434400000e+00   4.730073848259760e-01  -6.397971000000027e-01  3.27277700e-02  -1.42526936e+00  -1.39693914e+00
C     9.925170557400000e+00   8.324777466210005e+00  -7.419978000000000e-01  2.95085903e+00  -3.84691766e+00   2.23175347e+00
C     6.301732468400000e+00   4.300705076491824e-01  -6.387858000000008e-01 -2.71318259e+00  -1.28510388e+00  -8.93770190e-01
C     1.245746717730000e+01   8.242970244817307e+00  -6.659976000000007e-01 -2.07083539e+00   3.68190019e+00   2.31103000e-02
C     8.723948745200000e+00   4.608584222754512e-01  -7.011855000000011e-01  7.14271210e-01  -1.71550680e+00  -4.61332870e-01
C     1.257561753600000e+00   1.865060782504920e+00  -4.568627999999997e-01  1.32854282e+00  -2.49660920e-01  -1.77685273e+00
C     2.566397035500000e+00   2.635138548737895e+00  -4.352726999999987e-01 -2.55905501e+00  -3.00232336e+00   5.38216800e-01
C     3.721787546400000e+00   1.833650203234450e+00  -5.877963000000008e-01  2.92787404e+00   3.78329367e+00   1.29108617e+00
C     5.065788123899999e+00   2.514958465879860e+00  -5.039255999999988e-01 -2.95480717e+00  -6.34792270e-01  -8.54926640e-01
C     6.243242258200000e+00   1.803860840493712e+00  -6.273381000000029e-01  2.32214579e+00   1.31754885e+00  -5.92723470e-01
C     7.487865621200000e+00   2.535730718943823e+00  -7.622264999999970e-01 -2.45635671e+00   1.90723937e+00   4.14534450e-01
C     8.697012211200001e+00   1.907785209100971e+00  -8.222199000000003e-01  8.47866580e-01  -2.41097584e+00   1.49656941e+00
C     9.870449973099998e+00   2.625234833602982e+00  -5.357792999999980e-01  2.91507464e+00  -3.52344483e+00  -1.01483880e+00
C     2.576794405500000e+00   4.025296627650699e+00  -1.739309999999996e-01  6.69856290e-01  -6.69727310e-01  -5.41117310e-01
C     3.834367350200000e+00   4.690920948187074e+00  -1.472474999999989e-01 -3.39287350e-01   5.56707070e-01  -3.07429049e+00
C     5.097733735100000e+00   3.896946078004980e+00  -5.210541000000006e-01 -3.21588070e+00   3.71390849e+00   2.30395348e+00
C     6.252519137800000e+00   4.704156585211283e+00  -5.793527999999988e-01 -2.10660200e-01  -9.52564740e-01  -3.10869450e-01
C     7.453170844800001e+00   3.977410454609592e+00  -6.701738999999982e-01  1.77634582e+00   4.13719800e-01   3.74788350e-01
C     8.674862756500000e+00   4.722851126245252e+00  -5.056212000000002e-01  1.33789313e+00  -1.79733202e+00  -1.16582528e+00
C     9.980524350899998e+00   3.966746682151853e+00  -5.609760000000001e-01 -1.75832885e+00   4.73335709e+00   2.31224121e+00
C     1.120103069620000e+01   4.707312432704481e+00  -2.469651000000006e-01 -7.41425610e-01  -7.31430480e-01  -5.09040300e-01
C     3.725288290100000e+00   6.165960292265374e+00  -4.487270999999993e-01 -1.56317716e+00  -3.67451699e+00   1.78642740e+00
C     4.939349646400000e+00   6.759267903826839e+00  -4.884813000000001e-01  1.03125420e+00   2.91844440e+00  -1.46713477e+00
C     6.165827897900000e+00   6.119621473313348e+00  -5.876397000000004e-01  3.10407336e+00  -2.58991220e-01  -9.68632800e-02
C     7.432693793999999e+00   6.867808290719376e+00  -7.175475000000020e-01  7.95220030e-01  -8.45815230e-01   1.09633514e+00
C     8.685020528499999e+00   6.132676083315381e+00  -4.909565999999970e-01 -9.61289070e-01  -8.76526100e-02  -1.03465244e+00
C     9.950293837400000e+00   6.760198655969158e+00  -5.002482000000015e-01 -1.75368283e+00   4.45504283e+00  -5.22373050e-01
C     1.116666149700000e+01   6.118817354696446e+00  -2.805725999999993e-01 -5.57126190e-01   8.92761850e-01  -1.40452174e+00
C     1.231994354550000e+01   6.918348900558295e+00  -5.156595000000017e-01  3.49417135e+00  -5.18126055e+00   1.32279836e+00
