26
Lattice="8.88768389401873 1.33226762955019e-15 0 4.44384194700937 7.69696003302603 0 0 0 30 " PBC="1 1 1" Properties=species:S:1:pos:R:3:force:R:3 Energy="-208.92443692"
C     1.224482575259526e+01   6.464928958577183e+00  -1.665774000000013e-01  5.90891430e-01   6.84405210e-01   2.89281210e-01
C     8.452486631808890e+00   6.315067684370677e+00  -2.847305999999996e-01  1.91069477e+00  -1.38043300e-02   3.83097840e-01
C     9.880275628612699e+00   5.908259178330683e+00  -2.192366999999997e-01 -2.03130368e+00   3.22418400e-01  -2.11668190e-01
C     1.021265491903401e+01   4.524187207560065e+00  -2.090663999999975e-01  2.12999150e-01  -2.75339430e-01   6.58361600e-02
C     6.083413609900949e+00   5.708864810577515e+00  -1.342947000000017e-01  7.60122980e-01  -9.69249900e-01  -4.80079610e-01
C     7.447582387951440e+00   5.323383118358246e+00  -2.472789000000013e-01 -1.09023000e-01   5.86172750e-01   1.65795760e-01
C     7.765984906691806e+00   3.946197155908866e+00  -2.521686000000010e-01  3.50754614e+00   1.31319456e+00   4.11167780e-01
C     9.178122070031023e+00   3.544884587208693e+00  -2.125686000000009e-01 -8.52549830e-01  -3.98675650e-01  -3.50444240e-01
C     9.486733782862512e+00   2.136305110854554e+00  -2.035805999999987e-01  9.29491630e-01   1.32931576e+00   1.46986540e-01
C     3.747549729906775e+00   5.087029641872223e+00  -1.096761000000015e-01 -1.56878970e+00   2.28462600e-02  -3.96674720e-01
C     5.102484737652878e+00   4.695833264709080e+00  -1.081767000000013e-01 -7.07702130e-01   4.16494160e-01   1.72327490e-01
C     5.430935982868224e+00   3.318665544054972e+00  -1.109076000000009e-01 -8.28014200e-02   1.12487427e+00   3.45061000e-02
C     6.805085274468323e+00   3.007833742321861e+00  -1.621941000000007e-01 -1.51422677e+00  -4.61350157e+00  -2.53864880e-01
C     7.148799827997435e+00   1.548855572296086e+00  -1.928622000000004e-01 -2.49497318e+00   2.29718445e+00   6.19236270e-01
C     8.461626944772359e+00   1.171797741012049e+00  -1.715520000000019e-01  1.92899711e+00  -1.95600344e+00  -4.48349990e-01
C     2.705574823233847e+00   4.102994853524808e+00  -1.602290999999987e-01 -7.35360210e-01   7.00161150e-01   2.25795110e-01
C     3.005886505855755e+00   2.727684563265140e+00  -1.497425999999997e-01  8.19215750e-01   7.62433400e-02  -4.50027900e-02
C     4.395844631826090e+00   2.364757503930579e+00  -1.071515999999981e-01 -5.68217700e-01  -5.97764610e-01  -4.72085030e-01
C     4.733051090008207e+00   9.955178830161731e-01  -1.914636000000023e-01 -1.06115482e+00  -3.70317630e-01   2.27166450e-01
C     6.074955775528961e+00   6.083548668479499e-01  -1.504829999999977e-01  1.63868778e+00  -1.22246527e+00  -4.98000400e-01
C     1.087656326293927e+01   6.900671261005150e+00  -1.725867000000001e-01  2.43036450e-01  -2.07447200e-02  -8.31051300e-02
C     1.982567736433625e+00   1.739492338927120e+00  -2.061227999999993e-01 -7.90763780e-01   7.04791890e-01  -1.12443000e-02
C     2.310349072486622e+00   3.790421845493710e-01  -2.530161000000000e-01  1.71538940e-01  -7.61018240e-01   5.11741570e-01
C     3.680452245961949e+00   1.610273310916270e-02  -2.627109000000019e-01  5.39140890e-01  -9.02832560e-01   1.06336570e-01
C     4.394299600161094e+00   7.448509087495626e+00  -1.810425000000002e-01 -1.65932499e+00   9.73697380e-01   3.47106970e-01
C     5.730338192118539e+00   7.055477524152530e+00  -1.614480000000000e-01  9.23828200e-01   1.54991778e+00  -4.55862560e-01
