26
Lattice="8.88768389401873 1.33226762955019e-15 0 4.44384194700937 7.69696003302603 0 0 0 30 " PBC="1 1 1" Properties=species:S:1:pos:R:3:force:R:3 Energy="-209.0202639"
C     3.299238467001878e-01   3.794431191973337e-01   3.558838200000000e+00 -4.82516330e-01   1.14009647e+00  -4.44105630e-01
C     7.135146216371330e+00   7.511026567764898e+00   3.398932500000000e+00  1.53428510e-01  -1.21750434e+00   2.32082770e-01
C     4.055480332811238e+00   1.807738050789917e-01   3.348293700000000e+00  3.12858260e-01   4.96782010e-01   5.76783300e-01
C     9.540625545937520e+00   6.898920818355128e+00   3.334507200000000e+00 -1.03218156e+00  -1.34931081e+00  -4.88763990e-01
C     1.089320465136716e+01   7.263069539185650e+00   3.416832000000000e+00  8.03171080e-01   1.01374937e+00   4.21623130e-01
C     1.194623214715356e+01   6.312283232110224e+00   3.501456600000000e+00 -4.31682340e-01  -7.98271420e-01  -7.53284700e-02
C     4.417179742034768e+00   6.734529607851989e+00   3.611699400000000e+00 -5.19684800e-02  -2.01512651e+00  -2.46453560e-01
C     5.433115377832284e+00   5.718536502672811e+00   3.619614900000000e+00 -9.12121000e-02  -1.76021720e-01  -8.01972620e-01
C     6.790641723643438e+00   6.114992597472455e+00   3.481769400000000e+00  6.26869480e-01  -5.20509330e-01  -1.85339660e-01
C     7.813785715452423e+00   5.087430037732984e+00   3.375035700000000e+00 -1.55119180e-01   9.52246940e-01  -4.85491300e-02
C     9.195575838222057e+00   5.473117700602657e+00   3.247968900000000e+00 -4.92675330e-01   1.59774869e+00   9.18048880e-01
C     1.023131709991432e+01   4.526910392018680e+00   3.333457200000000e+00  2.28320380e-01  -8.38653920e-01   1.20875700e-01
C     1.160857797009020e+01   4.902483941530530e+00   3.455189400000000e+00 -6.45694650e-01   1.36553232e+00  -1.22557450e-01
C     3.723533740813667e+00   3.925580001802908e+00   3.529752900000000e+00  5.47613440e-01  -4.92233300e-02   1.56529420e-01
C     5.085308710594019e+00   4.323330494370798e+00   3.538885200000000e+00  5.66818290e-01  -2.11249900e-02   1.20695375e+00
C     6.119068018737380e+00   3.313345713160638e+00   3.621565800000000e+00 -1.30178895e+00   3.70727310e-01  -1.38064632e+00
C     7.449413560854720e+00   3.711646230492271e+00   3.452804400000000e+00  1.91080248e+00  -7.99521000e-02   9.90227000e-02
C     8.515383968477501e+00   2.729257360077670e+00   3.392370000000000e+00 -5.35329770e-01   5.76798500e-02   4.99525400e-01
C     9.892637595206629e+00   3.128873364848030e+00   3.382164300000000e+00 -9.93820470e-01   1.09881647e+00  -1.15232140e-01
C     2.024865379752773e+00   2.182426526867919e+00   3.453780000000000e+00 -1.91543380e-01  -1.25303284e+00   1.30107800e-01
C     3.379808298027422e+00   2.545354124989680e+00   3.557451000000000e+00 -3.72816640e-01   9.67779470e-01  -7.23768230e-01
C     4.367145900086803e+00   1.575507604883166e+00   3.501720900000000e+00  1.95659149e+00  -1.54116154e+00  -3.49352150e-01
C     5.760891601890322e+00   1.930891951266727e+00   3.516940200000000e+00 -1.33936980e-01   7.43342960e-01   6.10868870e-01
C     6.798718091964449e+00   9.655869454563129e-01   3.504839700000000e+00 -4.72512620e-01  -8.76311710e-01  -3.40915600e-01
C     8.165247128281399e+00   1.340889638944708e+00   3.498291000000000e+00  4.99505940e-01   1.01779156e+00  -2.52382300e-02
C     1.683974219355963e+00   7.974505481417772e-01   3.451990800000000e+00 -2.21180580e-01  -8.60888600e-02   3.75801460e-01
