32
Lattice="9.86 0 0 4.93 8.53901048131456 0 0 0 30 " PBC="1 1 1" Properties=species:S:1:pos:R:3:force:R:3 Energy="-256.714723"
C     4.975489159299999e+00   7.439295144120039e+00  -2.511915000000009e-01  9.49472190e-01   5.48499000e-01   5.22352390e-01
C     6.220929620500000e+00   8.163614829503734e+00  -2.275154999999991e-01 -1.14917877e+00   1.10658552e+00   2.48908740e-01
C     7.441625869399999e+00   7.507059108877328e+00  -3.297810000000112e-02 -3.28318360e-01  -1.67860939e+00  -4.83718880e-01
C     8.654234847700000e+00   8.193002004850863e+00  -1.041455999999990e-01  8.13944370e-01  -4.39984680e-01   8.24520300e-02
C     9.885942399499999e+00   7.470699746083174e+00  -1.477836000000003e-01  7.53787630e-01  -2.80425660e-01  -3.01361940e-01
C     1.113256507470000e+01   8.156753734583054e+00  -1.686705000000011e-01  6.43076520e-01   5.56615410e-01  -5.01746610e-01
C     1.238015501590000e+01   7.463909183389058e+00  -2.565735000000018e-01 -6.10857550e-01  -3.57846120e-01   9.86168730e-01
C     1.362223533700000e+01   8.172231971929627e+00  -2.279273999999987e-01 -5.19770720e-01  -4.48703800e-02  -3.56973730e-01
C     1.279604769600000e+00   1.053953839426488e+00  -3.657959999999996e-01  7.62431490e-01   4.88684530e-01  -5.00443560e-01
C     2.550013018600000e+00   1.784634746057363e+00  -4.351185000000015e-01 -1.70543108e+00  -1.29942179e+00   7.46300430e-01
C     3.738635131200000e+00   1.045872007567587e+00  -2.143727999999996e-01  8.87628470e-01   7.24703310e-01  -8.49747930e-01
C     5.003758617399999e+00   1.705971673713507e+00  -2.375520000000009e-01 -9.78799210e-01   2.35154917e+00  -3.90376600e-02
C     6.220008055599999e+00   1.038679086699654e+00  -1.932282000000001e-01  1.70756007e+00   2.84583770e-01   7.61128370e-01
C     7.495578162499999e+00   1.804787237740687e+00  -1.291460999999998e-01 -2.21684833e+00  -1.99374718e+00  -2.86096000e-01
C     8.710507001599998e+00   1.069811635788896e+00  -2.009129999999999e-01 -6.58161260e-01  -7.33703600e-02  -8.31863510e-01
C     9.906090471399999e+00   1.782407942904389e+00  -4.201011000000001e-01  9.82321410e-01  -2.33240800e-01   1.12180078e+00
C     2.525569881400000e+00   3.181674071955579e+00  -5.163642000000017e-01  2.69027560e-01   1.30471218e+00   6.29341800e-01
C     3.788185279400000e+00   3.914133312909019e+00  -3.716957999999977e-01 -1.90690965e+00  -1.07666267e+00   1.16109040e-01
C     4.988811991300000e+00   3.165865887244060e+00  -2.495390999999998e-01  3.51595700e-01   3.94739470e-01   1.12674029e+00
C     6.179536601000000e+00   3.912765704990542e+00   7.889520000000000e-02  6.75390490e-01  -1.34762490e+00  -2.01565201e+00
C     7.422502695200000e+00   3.201058308866017e+00  -7.085430000000059e-02  1.27894794e+00   9.25442640e-01   2.56584390e-01
C     8.666548755199999e+00   3.928003569192102e+00  -2.291619000000011e-01 -2.73629910e-01  -4.24070910e-01   3.63074150e-01
C     9.913942778199999e+00   3.214542089534776e+00  -3.882245999999974e-01 -1.53971607e+00  -5.32357400e-01  -2.41954870e-01
C     1.112083547080000e+01   3.896958118009757e+00  -4.586273999999975e-01  2.05058364e+00   5.54120740e-01  -3.02475540e-01
C     3.721658725500000e+00   5.322762893902054e+00  -2.349263999999991e-01  1.61697741e+00   1.43994640e-01  -1.13997320e-01
C     5.000248901100000e+00   6.023858178582245e+00  -1.580784000000008e-01 -1.76793975e+00   1.02937800e-01   3.30699700e-01
C     6.211915953599999e+00   5.322231511279883e+00   3.673680000000000e-02  2.31321970e-01   9.31546840e-01  -1.56627600e-01
C     7.451493461600000e+00   6.078978601302007e+00   4.129800000000000e-02 -2.68135640e-01  -1.07078237e+00  -7.15844960e-01
C     8.662966518600001e+00   5.345767415085698e+00  -1.779428999999979e-01  8.09903310e-01   5.51958250e-01   3.14837600e-01
C     9.925296272399999e+00   6.058068272438582e+00  -2.961321000000012e-01 -1.17428534e+00  -5.97603960e-01   6.23047250e-01
C     1.116149963910000e+01   5.330224110479268e+00  -3.880493999999999e-01 -2.37110824e+00  -4.83332590e-01   4.24790090e-01
C     1.233501874600000e+01   6.026370782415984e+00  -2.325900000000019e-01  2.68511972e+00   9.63277910e-01  -9.56793630e-01
