32
Lattice="9.86 0 0 4.93 8.53901048131456 0 0 0 30 " PBC="1 1 1" Properties=species:S:1:pos:R:3:force:R:3 Energy="-258.08720277"
C    -4.908472414350848e-04  -7.716785627172706e-04   2.999564145298727e+00  2.00442900e-02   6.89209100e-02   6.38780000e-03
C     1.232908572690761e+00   7.117492898006028e-01   2.999749196008685e+00 -5.83216900e-02  -4.86398000e-03  -2.83384000e-03
C     2.464702757766768e+00  -1.206416514059145e-03   2.999187451206450e+00 -3.62893000e-03   8.95292300e-02   1.73575800e-02
C     3.696571664658726e+00   7.120584759225498e-01   3.000922998446812e+00  4.39786100e-02  -5.73405300e-02  -1.56745300e-02
C     4.929599183369934e+00   1.213911991300134e-03   2.999091746274482e+00 -3.02807000e-03  -7.35671400e-02   1.65403100e-02
C     6.162500813047115e+00   7.110582263248884e-01   2.999311241667093e+00 -2.52905700e-02   4.44249500e-02   8.55047000e-03
C     7.395005140872462e+00   3.353941604324197e-04   3.000334443654781e+00 -1.60973500e-02  -3.33715100e-02   2.67945000e-03
C     8.626465767563504e+00   7.117849409742441e-01   3.000836105468468e+00  7.69984500e-02  -1.24952800e-02  -1.32834000e-02
C     1.231989789991396e+00   2.135955367189600e+00   3.000116325914826e+00  6.91758500e-02  -6.20215400e-02  -5.59420000e-03
C     2.466132386224439e+00   2.845982574756527e+00   3.000042466506223e+00 -5.91203500e-02   4.06516600e-02   9.82174000e-03
C     3.698702953020418e+00   2.134023601589270e+00   3.001173470321043e+00 -1.01327840e-01   2.41571900e-02  -1.51604600e-02
C     4.928865925643243e+00   2.845151967367564e+00   2.999245752376690e+00  8.58750100e-02   7.60679900e-02   1.32655400e-02
C     6.161296058368128e+00   2.134621661501844e+00   3.000374525473211e+00  7.52729600e-02  -1.38670500e-02  -1.11001000e-02
C     7.395520894877285e+00   2.845732922928951e+00   3.000650559185871e+00 -3.36549100e-02   4.20381100e-02  -1.23220000e-03
C     8.628650120440675e+00   2.134838299554835e+00   2.999829589412825e+00 -6.88625600e-02  -7.08140000e-03   8.17121000e-03
C     9.859999743273507e+00   2.846992912138128e+00   2.999566993998206e+00  1.24139800e-02  -9.66256000e-03   3.72027000e-03
C     2.464170952955611e+00   4.269796975897723e+00   3.000344696636883e+00  7.73357200e-02   1.10193000e-02   1.03200000e-04
C     3.698204294732360e+00   4.982143836999555e+00   3.000833392993699e+00 -3.47756700e-02  -5.15872400e-02  -2.47572300e-02
C     4.931140829842716e+00   4.269635537800617e+00   2.998839900810129e+00 -9.80545500e-02  -3.05601300e-02   1.80898700e-02
C     6.161620688456365e+00   4.981020261177585e+00   3.000448897959531e+00  8.03375700e-02   2.62910800e-02  -7.87385000e-03
C     7.395464265218778e+00   4.270062505194455e+00   3.001206402678841e+00 -4.47828900e-02  -4.85683600e-02  -4.43937000e-03
C     8.627235454422832e+00   4.981122391146806e+00   3.001037560959995e+00  1.70908300e-02   2.30476100e-02  -6.45186000e-03
C     9.859720373336152e+00   4.269374415693783e+00   2.999871297551144e+00 -1.52705000e-03   3.99401100e-02   3.97019000e-03
C     1.109191649019207e+01   4.982146500085809e+00   3.000039522517074e+00 -1.37258000e-03  -7.07102000e-02  -1.10497000e-03
C     3.697904576197781e+00   6.405076948011461e+00   2.998775924394837e+00 -1.53659600e-02  -3.49658400e-02   2.59332100e-02
C     4.930204774969044e+00   7.115812832001550e+00   2.999441931260074e+00 -9.69038000e-03   2.28808300e-02  -5.90160000e-03
C     6.161951506080797e+00   6.405004419806936e+00   2.999860731928391e+00  1.97956100e-02  -5.02115300e-02   2.90080000e-03
C     7.394570062526308e+00   7.116139281324056e+00   3.000255854540879e+00  1.25822900e-02  -4.01326800e-02  -8.44605000e-03
C     8.627484519803359e+00   6.404779202817650e+00   3.000228143222511e+00 -1.18353800e-02  -2.42767500e-02   9.82070000e-03
C     9.859941130541106e+00   7.115631734261186e+00   3.000631815921486e+00 -2.91249600e-02   5.87595900e-02  -1.55144700e-02
C     1.109133249515676e+01   6.404003367098498e+00   3.000015526949755e+00  8.17729300e-02   5.05136700e-02   9.53508000e-03
C     1.232559669881820e+01   7.115824122607543e+00   3.000843064347662e+00 -5.68124200e-02   7.04149000e-03  -1.74792900e-02
