26
Lattice="8.88768389401873 1.33226762955019e-15 0 4.44384194700937 7.69696003302603 0 0 0 30 " PBC="1 1 1" Properties=species:S:1:pos:R:3:force:R:3 Energy="-209.28340929"
C     5.123769319407230e-01   6.030832958930031e-01   3.528803700000000e+00 -5.34328000e-01   3.02754530e-01   1.87010400e-02
C     2.872411311875807e+00   2.089855496465510e-02   3.638477100000000e+00  3.43643430e-01  -1.37195881e+00  -4.23865580e-01
C     4.236461350958293e+00   3.878201056459842e-01   3.593460300000000e+00  3.57119290e-01   1.62183110e-01   3.23990900e-02
C     9.718474944221509e+00   7.096721145686083e+00   3.531848700000000e+00 -6.11314400e-01  -7.10511240e-01  -4.85871880e-01
C     1.107543154504456e+01   7.474182605554093e+00   3.426745200000000e+00  8.78496680e-01   5.38115810e-01   5.33323810e-01
C     1.214008515343969e+01   6.518728477068474e+00   3.426277800000000e+00 -8.83801860e-01  -5.43170000e-01  -4.66372700e-02
C     4.615901332674040e+00   6.933333464831656e+00   3.446603400000000e+00 -2.64983390e-01  -9.44878590e-01   4.19304620e-01
C     5.624621235685447e+00   5.933512134493110e+00   3.491622900000000e+00  1.62566070e-01  -9.16728810e-01  -4.75460180e-01
C     6.996330547432247e+00   6.305312711167856e+00   3.529823100000000e+00 -7.19232340e-01   8.50587280e-01   4.83850390e-01
C     7.988219132444761e+00   5.302890731974373e+00   3.513040500000000e+00  1.28343986e+00  -7.83434800e-02  -4.65455000e-01
C     9.381740286938470e+00   5.694713333805558e+00   3.487283400000000e+00 -5.84538990e-01   7.61174200e-01   4.29323550e-01
C     1.042337883795063e+01   4.733024128908436e+00   3.488914800000000e+00 -7.63675810e-01  -5.15346530e-01   1.02063500e-02
C     1.178118865643305e+01   5.119618339730443e+00   3.461752200000000e+00  8.31306630e-01   7.14034800e-01  -9.23906000e-03
C     3.923829695784200e+00   4.135139590728497e+00   3.483337200000000e+00 -3.85951480e-01   3.88697660e-01  -2.38656570e-01
C     5.283345105243997e+00   4.522452928526105e+00   3.429267600000000e+00 -2.35367650e-01   1.05581213e+00   7.03229200e-01
C     6.283053607811262e+00   3.531260352198791e+00   3.473945400000000e+00  6.64931840e-01  -5.96561070e-01  -1.01519890e+00
C     7.650673385136258e+00   3.910636661783065e+00   3.433750200000000e+00  2.82004570e-01   8.61504410e-01   7.62774220e-01
C     8.695476707066492e+00   2.949113788192192e+00   3.494081100000000e+00  2.61156000e-03  -2.39906230e-01  -8.15101900e-02
C     1.006606314884538e+01   3.343625938766659e+00   3.539242200000000e+00  3.31477810e-01   4.84700290e-01  -3.01596660e-01
C     2.231854116193318e+00   2.381958824144824e+00   3.571270800000000e+00 -1.88321414e+00  -2.40664930e-01   3.73012520e-01
C     3.567232264865806e+00   2.766180139159182e+00   3.544732200000000e+00  8.55571190e-01   3.56147000e-02   1.46760900e-02
C     4.568937652246149e+00   1.769867237141510e+00   3.549648300000000e+00  1.29520846e+00  -3.79439120e-01  -5.66625940e-01
C     5.957154237031256e+00   2.135097226917046e+00   3.402569100000000e+00 -8.56023290e-01   7.97384770e-01   1.26546062e+00
C     6.983053277568996e+00   1.166206669246257e+00   3.452381700000000e+00  1.49578760e-01  -2.93579520e-01  -4.61485370e-01
C     8.356215947840543e+00   1.563614185275209e+00   3.488366400000000e+00 -1.05811150e-01   2.78025000e-01  -2.70254300e-02
C     1.862000615874659e+00   1.010704908790567e+00   3.632997000000000e+00  3.90286340e-01  -3.99500360e-01  -4.47633460e-01
