32
Lattice="9.86 0 0 4.93 8.53901048131456 0 0 0 30 " PBC="1 1 1" Properties=species:S:1:pos:R:3:force:R:3 Energy="-255.75805297"
C     9.770431316300000e+00   4.006943476255720e-01   4.151007300000000e+00  1.87870713e+00  -3.75187586e+00  -1.02869975e+00
C     1.200829433500000e+00   1.003124440253135e+00   4.112827500000000e+00 -2.14412784e+00   2.58677183e+00   9.53025290e-01
C     2.412677712800000e+00   3.192351763000400e-01   3.999056400000000e+00 -1.41276960e-01   1.00246215e+00  -5.61938330e-01
C     3.586033883200000e+00   1.118355739587486e+00   3.977529600000000e+00  2.65591351e+00  -2.72788377e+00   5.83980650e-01
C     4.863637270000000e+00   4.071244786873264e-01   3.960803700000000e+00 -1.08664288e+00  -1.72275024e+00  -8.40046650e-01
C     6.100125393499999e+00   1.062237106542612e+00   3.961711500000000e+00 -7.36419720e-01   1.44144702e+00   3.03961930e-01
C     7.317753013199999e+00   3.520429084652481e-01   4.091800800000000e+00 -2.34419580e-01  -3.60666040e-01  -1.11930013e+00
C     8.539402576200001e+00   1.038448704196904e+00   4.075586400000001e+00  6.51007530e-01   1.20876381e+00   1.57012931e+00
C     1.100532877530000e+01   2.448794284735999e+00   4.292093400000001e+00  1.78012892e+00  -1.86969850e-01  -2.91346380e-01
C     2.376635123700000e+00   3.214972541053073e+00   4.243605899999999e+00  1.06893780e-01  -6.15168170e-01   7.01739000e-02
C     3.670803606300000e+00   2.476112799404244e+00   4.135451700000000e+00 -3.22829888e+00   2.45967266e+00  -2.35688150e-01
C     4.866396837500000e+00   3.186423896535080e+00   4.033358400000000e+00  9.16908980e-01   1.34953999e+00  -7.52996280e-01
C     6.077281942700000e+00   2.498361874330723e+00   3.902876700000000e+00  2.60214361e+00  -9.64271020e-01   1.52761976e+00
C     7.403674433600000e+00   3.161986017052262e+00   4.075125300000000e+00 -4.26874053e+00   1.02018127e+00  -1.40999260e+00
C     8.568066582200000e+00   2.450037137711363e+00   4.226021700000000e+00  8.61496300e-02  -3.36201150e-01  -4.52875290e-01
C     9.774117033600000e+00   3.149698893312171e+00   4.356121200000000e+00  1.46121483e+00   1.14774866e+00  -1.12818861e+00
C     1.218340251200000e+01   4.629994083731016e+00   4.226783699999999e+00  3.24595512e+00   9.10207120e-01  -1.06652495e+00
C     3.690328624800000e+00   5.347081398018360e+00   3.990947400000000e+00 -3.66694870e+00  -1.67715235e+00   1.27877288e+00
C     4.894405005599999e+00   4.642344225368450e+00   3.941837100000000e+00 -1.36992926e+00  -1.85311289e+00   1.84809630e-01
C     6.085683402199999e+00   5.324180967372467e+00   3.816084000000000e+00  2.22870253e+00  -7.64080330e-01   7.48865700e-02
C     7.343248951900000e+00   4.567409711950686e+00   3.901152600000000e+00  1.27847630e-01   1.48019352e+00   7.44143200e-01
C     8.552255973599999e+00   5.315688067549059e+00   4.002959100000000e+00  1.04014737e+00  -8.12874140e-01  -5.16647000e-02
C     9.815780907299999e+00   4.591570671323636e+00   4.176210599999999e+00 -2.77517284e+00   3.68004580e-01   5.31257550e-01
C     1.096486925130000e+01   5.386399698724044e+00   4.181505300000000e+00  1.85067137e+00  -2.53335982e+00   8.46045600e-02
C     1.352022328400000e+01   6.722850561151525e+00   4.040414700000000e+00 -8.07693370e-01   3.18489832e+00  -2.80983900e-02
C     4.896525102800000e+00   7.475760390644146e+00   4.045219200000000e+00 -1.01930380e+00  -2.75593000e-01  -8.91445390e-01
C     6.107967938900000e+00   6.731025724394972e+00   3.801177600000000e+00  3.92071720e-01   2.01926588e+00   1.06177315e+00
C     7.366969104599999e+00   7.472244196908691e+00   3.824159400000001e+00 -7.43670530e-01  -1.86331632e+00   5.74144620e-01
C     8.585224510499998e+00   6.737701181227816e+00   3.928905000000000e+00 -4.46284860e-01   6.56541550e-01  -9.09520110e-01
C     9.804704725599999e+00   7.485888340194264e+00   3.894708000000001e+00 -1.50492360e+00   9.18630560e-01   1.20559107e+00
C     1.097964066520000e+01   6.774010505420558e+00   4.056909600000000e+00  1.87971056e+00   1.24805613e+00  -4.37586540e-01
C     1.222912421940000e+01   7.498311063420777e+00   4.052861399999999e+00  1.26967914e+00  -2.55711011e+00   4.57038200e-01
