32
Lattice="9.86 0 0 4.93 8.53901048131456 0 0 0 30 " PBC="1 1 1" Properties=species:S:1:pos:R:3:force:R:3 Energy="-256.68903977"
C     9.734109097599998e+00   1.809714332177752e+00   3.616235100000000e+00 -4.25279660e-01   1.75545501e+00   6.01299600e-02
C     1.096985643930000e+01   2.536369180757412e+00   3.592139700000000e+00  4.50882800e-01  -1.44064900e-02  -8.98531800e-02
C     2.356197463600000e+00   1.806932151783158e+00   3.535460400000000e+00 -1.52577529e+00  -8.46246550e-01  -1.52016000e-02
C     3.534716132800000e+00   2.528040486105534e+00   3.612969900000000e+00  1.06974552e+00   2.22361198e+00   6.77954560e-01
C     4.751564023699999e+00   1.827531404494796e+00   3.811562100000000e+00  8.70746140e-01   1.02669260e-01  -7.85448790e-01
C     6.013153340800000e+00   2.509999264763390e+00   3.841627200000000e+00 -1.44138350e-01   7.79132790e-01   2.66404850e-01
C     7.254124707699999e+00   1.827852642069054e+00   3.835126500000000e+00  4.50395350e-01   5.59329460e-01  -4.74076260e-01
C     8.480294439800000e+00   2.537208309317281e+00   3.767607900000000e+00  4.31974220e-01   8.25897020e-01  -3.70648000e-01
C     1.099642411070000e+01   3.984039032274902e+00   3.689197200000000e+00 -1.41617428e+00  -2.40281264e+00  -1.46622610e-01
C     1.219370231730000e+01   4.696731317868189e+00   3.696540900000000e+00 -1.05332170e-01   8.29312790e-01   2.35584280e-01
C     3.531915744900000e+00   4.029951583823766e+00   3.662177700000000e+00  2.29249147e+00  -3.55647189e+00  -1.05852360e-01
C     4.815517117599999e+00   4.665490579516166e+00   3.729360300000000e+00 -9.80712120e-01   8.26954790e-01   3.44229200e-02
C     6.046977232700000e+00   3.936171047326118e+00   3.832107600000000e+00 -1.49680036e+00   6.37210450e-01   2.64664600e-02
C     7.219466856999999e+00   4.717864600295246e+00   3.902853900000000e+00  1.59799473e+00  -1.07180536e+00  -1.19528537e+00
C     8.459481261599999e+00   3.984426617960589e+00   3.780564000000000e+00  1.23038972e+00  -1.02132752e+00   7.43979840e-01
C     9.752625536699998e+00   4.629732192279595e+00   3.776305199999999e+00 -1.38169394e+00   1.14995560e+00  -8.17848100e-02
C     1.219098978200000e+01   6.101552158626725e+00   3.813039600000000e+00 -1.76402588e+00   9.44893770e-01  -2.06421310e-01
C     1.336279315030000e+01   6.835827049378527e+00   3.798958799999999e+00  3.44008846e+00  -1.19509727e+00  -1.07862136e+00
C     4.797948964000000e+00   6.102883731920976e+00   3.696216900000000e+00 -9.00803680e-01   2.10929290e-01   1.22043845e+00
C     6.014039853400000e+00   6.834694349638355e+00   3.770951999999999e+00  6.97323600e-02   2.98733260e-01  -1.11541013e+00
C     7.244679813699999e+00   6.139900427741881e+00   3.783679200000000e+00  1.97980900e-01  -1.26896426e+00   7.71774580e-01
C     8.529709555299998e+00   6.765059487684899e+00   3.791025900000000e+00 -1.43278004e+00   5.16089280e-01  -5.06579800e-01
C     9.728957937800001e+00   6.050512955965878e+00   3.815302200000001e+00  6.48994080e-01   4.52582450e-01   1.19454000e-01
C     1.093385797370000e+01   6.815831760878140e+00   3.833172000000000e+00  1.07578551e+00  -6.52873700e-01   2.16649970e-01
C     1.344528250190000e+01   8.234304856982204e+00   3.690121200000000e+00 -1.93159200e-01   9.61680230e-01   1.63529740e-01
C     9.757794937500000e+00   4.061702442661864e-01   3.563785200000000e+00 -1.15316697e+00  -7.63845000e-03   6.10778320e-01
C     6.041577206500000e+00   8.264166288971394e+00   3.605726700000000e+00  3.26566100e-02  -2.04004833e+00   2.46384800e-02
C     2.354569676200000e+00   3.406486236609456e-01   3.533887500000000e+00  8.23372870e-01   2.05220833e+00   5.84886170e-01
C     8.528751853499999e+00   8.171557133931392e+00   3.672891900000000e+00 -8.23632730e-01   1.18780955e+00   4.13333050e-01
C     4.771798173400001e+00   4.103681072082592e-01   3.817193100000000e+00  1.37457975e+00  -9.78583640e-01  -1.36363010e-01
C     1.096836511430000e+01   8.227616079293011e+00   3.881018700000000e+00  1.33136750e-01   1.42633268e+00  -8.05041400e-01
C     7.319747346100000e+00   4.464701042265464e-01   3.754288800000000e+00 -2.44747256e+00  -2.68451191e+00   9.42784340e-01
