32
Lattice="9.86 0 0 4.93 8.53901048131456 0 0 0 30 " PBC="1 1 1" Properties=species:S:1:pos:R:3:force:R:3 Energy="-254.18955295"
C     5.000256591899999e+00   8.465877868573726e+00  -1.781115000000000e-01  2.85305550e+00   2.65600080e-01   4.30004030e-01
C     1.345168543800000e+00   6.508594321253024e-01  -7.581959999999910e-02  3.05349710e-01  -8.79450580e-01  -1.99288168e+00
C     7.489943764100000e+00   8.505515955221886e+00  -2.590115999999973e-01  1.17493576e+00  -1.71761275e+00   7.24907680e-01
C     3.831942332500000e+00   7.116210667285719e-01  -2.616863999999985e-01 -7.58236270e-01  -5.43945610e-01   7.31267720e-01
C     5.111856607500000e+00   2.218136057337200e-02  -1.403375999999987e-01 -2.34808851e+00  -1.10813691e+00  -2.44307126e+00
C     6.297291080699999e+00   6.952323146945176e-01  -3.687359999999984e-01  2.40199026e+00   1.12764427e+00   1.95436349e+00
C     7.562858365499999e+00   1.211540423933840e-02  -2.751516000000009e-01 -2.08351545e+00  -3.20733950e+00  -3.04612800e-02
C     8.771354787099998e+00   6.320875276563848e-01  -7.558709999999991e-02 -9.46973840e-01   3.83494826e+00  -1.33203617e+00
C     1.434466570500000e+00   2.040875507293823e+00  -2.451645000000013e-01 -3.60801653e+00   2.95633641e+00   4.89866230e-01
C     2.559844720400000e+00   2.845481957864146e+00  -2.912625000000020e-01  3.57485700e+00  -2.08521610e-01  -6.30476860e-01
C     3.835245629699999e+00   2.132028248706356e+00  -2.744970000000002e-01  8.19207630e-01  -1.17731400e-02   5.09191540e-01
C     5.176555068100000e+00   2.794041336320634e+00  -1.974528000000007e-01 -6.14317693e+00   2.47926058e+00  -8.35647860e-01
C     6.331390263799999e+00   2.128263142815410e+00  -2.444465999999998e-01  2.27278050e+00  -1.64459022e+00  -3.85812290e-01
C     7.579757863199999e+00   2.859022949903120e+00  -2.184854999999999e-01 -3.44477100e-02  -7.10421459e+00   2.50775130e-01
C     8.791291707099999e+00   2.100808089369590e+00  -1.545564000000006e-01  1.04251763e+00   1.84992610e-01  -1.90151580e-01
C     1.002744878110000e+01   2.841535141830184e+00  -2.786238000000019e-01 -4.71525770e-01  -2.44305358e+00   1.80626421e+00
C     2.581419238500000e+00   4.307313331312191e+00  -4.183349999999990e-01  5.94304000e-02  -2.43501690e+00   9.99065520e-01
C     3.811243628900000e+00   4.998891376471793e+00  -3.788657999999998e-01  1.19397627e+00  -2.31955918e+00   9.26846860e-01
C     5.077811457199999e+00   4.241653549517384e+00  -2.698746000000014e-01 -1.08439720e-01  -1.90878600e-01  -6.31617040e-01
C     6.317610470100000e+00   4.916229314739943e+00  -3.414770999999988e-01 -2.06154290e-01  -2.86934560e-01   1.33155506e+00
C     7.583611989300000e+00   4.145953358073728e+00  -2.466374999999985e-01 -1.16621563e+00   8.58222558e+00  -1.51848330e-01
C     8.776473458200000e+00   4.959706455109806e+00  -1.767117000000020e-01 -3.76017970e-01  -3.48905950e-01  -3.52788700e-01
C     9.990090079200000e+00   4.252755287822642e+00  -1.181985000000019e-01  8.49967070e-01  -3.25713850e-01  -1.83643648e+00
C     1.120662807030000e+01   4.953371448624799e+00  -3.111081000000020e-01  2.93311700e-01   1.20034185e+00  -1.12042130e-01
C     3.808370523500000e+00   6.402401222951334e+00  -2.246604000000012e-01  2.16599100e-01  -3.15469516e+00  -1.60898018e+00
C     4.951458860300000e+00   7.079762157222154e+00  -3.633266999999982e-01  6.23276517e+00   3.15983410e-01   2.19127757e+00
C     6.271636839699999e+00   6.334651859901966e+00  -2.291526000000026e-01 -2.29632757e+00  -4.44018030e-01  -1.86028108e+00
C     7.465278875499999e+00   6.988601559919980e+00  -2.865636000000009e-01  1.93712796e+00   4.91474639e+00   3.07720100e-01
C     8.734680714300000e+00   6.392124865399072e+00  -2.891288999999979e-01  1.53576651e+00  -8.26050570e-01   5.87889060e-01
C     1.000871014690000e+01   7.148224698426812e+00  -2.819175000000023e-01 -2.07679140e-01  -2.02698144e+00   2.47207530e-01
C     1.125100940930000e+01   6.363813434592213e+00  -3.788213999999996e-01 -1.27656360e+00   1.75609599e+00   1.02297068e+00
C     1.251027847120000e+01   7.057475766819879e+00  -3.021171000000002e-01 -4.73225924e+00   3.60921732e+00  -1.16639460e-01
