32
Lattice="9.86 0 0 4.93 8.53901048131456 0 0 0 30 " PBC="1 1 1" Properties=species:S:1:pos:R:3:force:R:3 Energy="-250.81834025"
C     9.821168953599999e+00   1.692916892931264e-01   4.442974800000000e+00 -1.44560725e+00   8.49013714e+00  -2.48108837e+00
C     1.080001098800000e+00   1.019385363300304e+00   4.158464400000001e+00  4.27977609e+00  -1.63403970e-01   8.40295160e-01
C     2.362164784900000e+00   3.352619596798472e-01   4.486857600000000e+00 -1.01365718e+00  -8.93667680e-01   1.74827456e+00
C     3.600065846400000e+00   1.035883756228922e+00   4.591693500000000e+00 -2.34708290e-01   2.39288731e+00  -1.88280207e+00
C     4.837933876900000e+00   3.472162327914280e-01   4.747895400000000e+00 -1.77818470e-01   2.66342317e+00   3.70922630e-01
C     6.057959103499999e+00   1.191265824400652e+00   4.584081900000000e+00 -7.79776240e-01  -3.83020283e+00  -5.54018600e-02
C     7.260272121899999e+00   3.728313856491224e-01   4.362883500000000e+00  2.62799622e+00   3.73218319e+00   7.21801200e-01
C     8.614840203699998e+00   9.620401867900824e-01   4.235320800000000e+00 -3.90975112e+00   2.36979569e+00  -2.08096200e-02
C     1.102129472820000e+01   2.524277344186998e+00   3.803796300000000e+00  8.13121720e-01  -3.59021213e+00   6.39857450e-01
C     2.405408378500000e+00   3.278762194162655e+00   3.866304900000000e+00  4.20184330e-01  -4.82472576e+00   1.04086960e+00
C     3.625086681000000e+00   2.549319700221694e+00   4.264098000000000e+00 -2.25724407e+00  -2.54549759e+00   5.27698560e-01
C     4.751120372999999e+00   3.262269010030430e+00   4.620995100000000e+00  1.14364741e+00   2.85776080e-01   1.04412030e-01
C     5.992094007699999e+00   2.576578697986893e+00   4.667671200000000e+00  3.16460132e+00  -7.56152990e-01  -1.04444368e+00
C     7.356216084400000e+00   3.206443862775753e+00   4.460718300000000e+00 -2.23747972e+00  -3.98277950e-01   7.67733560e-01
C     8.491129051500000e+00   2.498243011304841e+00   4.065315900000000e+00  4.18545374e+00  -3.40496214e+00  -8.78177400e-02
C     9.820626357799998e+00   3.168398472362323e+00   3.768933300000000e+00 -4.71361835e+00   3.09724529e+00   2.51396690e+00
C     1.226498937780000e+01   4.622024112909403e+00   3.952670700000000e+00 -3.43504490e-01   4.60929386e+00   1.07282776e+00
C     3.578116894800000e+00   5.366024680427611e+00   4.361836500000001e+00  3.28687380e-01  -6.82325810e-01   1.11523378e+00
C     4.748074471099999e+00   4.670331429947383e+00   4.799871600000000e+00  2.10789925e+00  -9.58964230e-01  -1.10761752e+00
C     6.075534997199999e+00   5.218266838543158e+00   5.067131400000000e+00 -1.17798890e-01   2.91549017e+00  -4.19582380e-01
C     7.434915892899999e+00   4.562198353854741e+00   4.815179400000000e+00 -3.82300269e+00   1.32984197e+00  -6.24122780e-01
C     8.574950883500000e+00   5.347972614542157e+00   4.603759500000000e+00  1.47003780e+00  -1.25533286e+00   5.04490670e-01
C     9.765757183300000e+00   4.621717647823275e+00   4.099328400000000e+00  1.37150710e+00   1.37074913e+00   1.26182620e-01
C     1.104196483780000e+01   5.398930440433130e+00   4.114952100000000e+00 -2.54586068e+00  -7.27316250e-01   8.95917600e-02
C     1.339853205140000e+01   6.739227187790697e+00   4.543326599999999e+00  1.80850966e+00   2.77742845e+00   1.80804910e-01
C     4.843022475000000e+00   7.467425633294827e+00   4.858867800000000e+00 -1.41173949e+00  -6.42191927e+00   7.47740500e-02
C     6.039091352600000e+00   6.719874886779455e+00   5.128788900000000e+00  1.31981111e+00  -1.56102221e+00  -1.09091123e+00
C     7.294261415299999e+00   7.408441137552655e+00   5.010729900000000e+00 -6.20805950e-01   2.45931992e+00  -1.24305992e+00
C     8.565553071000000e+00   6.743269213791510e+00   4.993120500000001e+00 -1.34696065e+00  -7.76123510e-01  -8.91242540e-01
C     9.731515966899998e+00   7.487595544559531e+00   4.925781900000000e+00  3.02580131e+00  -6.23629330e-01  -2.57493672e+00
C     1.095214571010000e+01   6.820766625814742e+00   4.451878200000000e+00  1.43244876e+00  -1.12893818e+00   2.11061980e-01
C     1.223172844260000e+01   7.559401193757213e+00   4.359309300000000e+00 -2.52014968e+00  -3.95089669e+00   8.73037220e-01
