32
Lattice="9.86 0 0 4.93 8.53901048131456 0 0 0 30 " PBC="1 1 1" Properties=species:S:1:pos:R:3:force:R:3 Energy="-250.41088513"
C     1.190741273100000e+00   9.970564486258376e-01   4.145107800000000e+00 -7.43411550e-01  -5.08562000e-01  -2.24576970e-01
C     2.442721823000000e+00   1.648889071775546e+00   4.322851200000001e+00 -1.90851040e+00   2.09978802e+00   7.70839420e-01
C     3.608714200300000e+00   9.919200630419079e-01   3.868964700000000e+00  1.28781899e+00   5.40574610e-01  -3.59432940e-01
C     4.878925791600000e+00   1.692073921816678e+00   3.905262900000000e+00  5.05713200e-01  -2.26287529e+00  -1.11496030e-01
C     6.110018227300000e+00   9.242890506777929e-01   3.645424200000000e+00 -3.75577450e-01   1.85749260e-01   5.55480020e-01
C     7.334759097499999e+00   1.652545561453186e+00   3.725639700000000e+00 -7.92465860e-01  -3.49340550e-01   7.72334150e-01
C     8.557785954600000e+00   1.006175343307534e+00   3.824500500000000e+00  1.32969981e+00   2.02496680e+00   2.36199221e+00
C     9.775607816299999e+00   1.747448294708116e+00   4.408637100000000e+00 -3.31409870e-01  -2.71631197e+00  -4.19934325e+00
C     2.392873015400000e+00   3.149962407175584e+00   4.820629500000000e+00 -1.23068957e+00  -2.46621470e+00  -2.53770733e+00
C     3.628026489300000e+00   3.774752496475761e+00   4.580398500000000e+00  2.49128341e+00   1.25888412e+00  -1.71840804e+00
C     4.923950347700000e+00   3.062611830959481e+00   4.175694900000000e+00 -2.32051028e+00   2.61689550e-01  -8.05312400e-02
C     6.116929150600000e+00   3.714907439257414e+00   3.809039400000000e+00 -1.07952615e+00   4.32407778e+00   1.44387322e+00
C     7.327278660599999e+00   3.018532007229939e+00   3.909296100000000e+00  1.14801263e+00   3.80080842e+00  -2.08097572e+00
C     8.583836814100000e+00   3.870199677038896e+00   3.897009300000000e+00 -2.02891842e+00  -3.83476855e+00   7.52012420e-01
C     9.741646081599999e+00   3.173229161371069e+00   4.331558999999999e+00  2.75659880e-01  -6.57207700e-01   9.85412620e-01
C     1.089032839080000e+01   3.892998408069971e+00   4.707129900000000e+00  3.20834854e+00  -6.44085040e-01  -1.50506600e-02
C     3.649566694600000e+00   5.191813837977167e+00   4.270336800000000e+00  1.12213938e+00   6.49380090e-01   1.63974846e+00
C     4.935428521600000e+00   6.058208312210454e+00   3.979830600000000e+00 -3.49435702e+00  -2.55026801e+00  -8.78389300e-01
C     6.067784593499999e+00   5.284272962603034e+00   3.671792400000000e+00  2.61955437e+00  -1.55989112e+00   2.34164580e-01
C     7.356087707199999e+00   5.959349113839722e+00   3.363674400000000e+00 -1.81667511e+00  -1.05756904e+00   7.06381290e-01
C     8.583195273199999e+00   5.202203764368812e+00   3.585336000000000e+00 -9.12468080e-01   1.94923609e+00   5.26097600e-01
C     9.741871333299999e+00   5.953913606718677e+00   3.841317300000000e+00  1.94048293e+00   7.41579330e-01   5.93418570e-01
C     1.092807710500000e+01   5.312727592615643e+00   4.569104700000000e+00 -6.20388600e-02  -6.54781000e-01  -2.97280186e+00
C     1.226415724310000e+01   5.830479306966715e+00   4.372854599999999e+00 -4.43656140e-01   4.37362848e+00  -2.15940094e+00
C     4.818298672899999e+00   7.484518768303377e+00   3.803179800000000e+00  1.32452627e+00  -1.71245457e+00   3.13314390e-01
C     6.089527569700000e+00   8.101324455854229e+00   3.613413600000000e+00 -2.50757980e-01   2.27833651e+00   1.58375715e+00
C     7.316980383599999e+00   7.380616344953051e+00   3.321804600000000e+00  3.09801160e-01   2.06384540e+00   7.57559040e-01
C     8.547222049199998e+00   8.210020167347398e+00   3.338848200000000e+00 -8.24807000e-02  -3.62907941e+00   1.38875986e+00
C     9.780106983600000e+00   7.348880770943712e+00   3.468846900000000e+00  1.48776000e-01   1.13274314e+00   1.30262897e+00
C     1.105779003920000e+01   8.000133339111514e+00   3.660460200000000e+00 -1.08287808e+00   4.65337190e-01  -5.65765940e-01
C     1.227754224240000e+01   7.261157637700366e+00   3.838302600000000e+00 -8.10777920e-01   1.86222485e+00   1.64388327e+00
C     1.341474539170000e+01   8.191600582450885e+00   3.867739800000000e+00  2.05529290e+00  -5.40944069e+00  -4.27777030e-01
