32
Lattice="9.86 0 0 4.93 8.53901048131456 0 0 0 30 " PBC="1 1 1" Properties=species:S:1:pos:R:3:force:R:3 Energy="-256.81373567"
C     9.832374350599999e+00   1.010039587110154e+00   3.702531900000000e+00 -2.36698580e-01   1.58201551e+00   2.76756130e-01
C     1.204612962000000e+00   1.750413807657715e+00   3.702474000000000e+00 -6.43522310e-01  -5.57928130e-01  -1.73653480e-01
C     2.443837876400000e+00   1.010613408614410e+00   3.798082200000000e+00 -1.22824594e+00   2.02891093e+00  -2.94961500e-01
C     3.632872531399999e+00   1.764517862047741e+00   3.668754000000000e+00  1.19042902e+00  -1.64771446e+00   8.64053700e-02
C     4.856640466100000e+00   1.013104494141740e+00   3.647431500000000e+00  1.20614200e+00   3.30342730e-01   6.71058740e-01
C     6.120385277800001e+00   1.703789273415029e+00   3.731179500000000e+00 -1.32960512e+00   1.88604969e+00  -7.93653370e-01
C     7.343630386000000e+00   1.037144114175770e+00   3.625993500000000e+00 -2.48227000e-02  -7.94224280e-01   4.42964570e-01
C     8.584889418400000e+00   1.733639946251013e+00   3.676319400000000e+00  4.68531020e-01  -1.69053110e-01   6.78951400e-02
C     1.101189898630000e+01   3.166481891460087e+00   3.492451800000000e+00  1.58778841e+00  -3.13096170e-01   2.84598700e-02
C     2.430948342100000e+00   3.848176544329717e+00   3.362358600000000e+00 -1.53517738e+00   1.68575708e+00   2.77301880e-01
C     3.641213943499999e+00   3.165929929822660e+00   3.526970400000000e+00  2.01109970e-01   3.96698330e-01  -1.46335820e-01
C     4.860641851300000e+00   3.913845633645948e+00   3.592095000000000e+00  1.08122698e+00  -2.36799756e+00   7.94923880e-01
C     6.105313183200000e+00   3.160857159866806e+00   3.764293500000000e+00 -5.08912650e-01  -1.40648030e-01  -7.54661400e-01
C     7.327884705499999e+00   3.879256663894612e+00   3.735912900000000e+00  5.96337150e-01  -7.26215430e-01   9.18983050e-01
C     8.607384367500000e+00   3.156861671473110e+00   3.715647900000000e+00 -2.69075191e+00   6.95337300e-02  -5.81792210e-01
C     9.771671605700000e+00   3.874679071156494e+00   3.516470700000000e+00  1.92581274e+00   2.25558890e-01  -2.44961900e-02
C     1.230258442390000e+01   5.319862021261788e+00   3.260375700000000e+00 -8.11653940e-01  -2.12327702e+00   4.14611480e-01
C     3.659455732300000e+00   6.008665912696648e+00   3.407469300000000e+00 -8.03015800e-02   1.89933239e+00   5.59709350e-01
C     4.874873282300000e+00   5.299626445006494e+00   3.641866800000000e+00  1.86164200e-01   1.14100284e+00  -6.77323700e-01
C     6.120658695600000e+00   6.005998240432590e+00   3.805315500000000e+00 -1.57540976e+00   8.60043260e-01   5.29768930e-01
C     7.308013600999999e+00   5.300231946239631e+00   3.856140600000000e+00  2.51651032e+00  -6.83348010e-01  -1.28824653e+00
C     8.580510000799999e+00   5.992062404549021e+00   3.692002800000000e+00 -5.15491560e-01   1.04042097e+00   5.72715640e-01
C     9.798655171899998e+00   5.298999852417471e+00   3.436597200000000e+00 -5.54755830e-01  -3.24543910e-01   4.42777630e-01
C     1.103670684490000e+01   5.988771042959505e+00   3.297200700000000e+00  5.35654730e-01   3.30865690e-01   3.50701250e-01
C     1.348689806160000e+01   7.478462816680856e+00   3.510681300000000e+00  1.13630070e+00  -1.87155938e+00   3.02084590e-01
C     4.890177481299999e+00   8.154414216491743e+00   3.744682200000000e+00 -6.91952970e-01  -1.00732481e+00  -3.70512780e-01
C     6.114662484499999e+00   7.433455827193396e+00   3.897785700000000e+00  1.68789200e-01   1.13849860e-01  -5.46619320e-01
C     7.360264304599999e+00   8.159192561366247e+00   3.932986800000000e+00 -9.81121000e-03  -1.31120450e+00  -4.24223680e-01
C     8.598255486499999e+00   7.438364904318348e+00   3.811187400000001e+00 -5.45378770e-01  -1.24491084e+00  -5.71152800e-01
C     9.818452424999998e+00   8.121540819335944e+00   3.635180400000000e+00 -5.12172700e-02   2.89943760e-01  -1.64487020e-01
C     1.105715535100000e+01   7.395396688973093e+00   3.433566000000000e+00 -1.73195479e+00   9.79872460e-01   3.12612880e-01
C     1.223564005250000e+01   8.144540046333089e+00   3.504261600000000e+00  1.96486784e+00   4.22847530e-01  -2.37610600e-01
