32
Lattice="9.86 0 0 4.93 8.53901048131456 0 0 0 30 " PBC="1 1 1" Properties=species:S:1:pos:R:3:force:R:3 Energy="-251.58980291"
C     4.939548867700000e+00   8.416087752365893e+00  -1.600815000000004e-01  5.83660550e-01   3.02757264e+00  -6.84915040e-01
C     1.260282817800000e+00   6.751083433061968e-01  -9.587069999999898e-02 -6.08414230e-01  -1.71633493e+00  -9.56864160e-01
C     2.482280488100000e+00   1.050785012637360e-02  -1.656621000000023e-01  1.62717844e+00  -4.36689482e+00  -1.02458702e+00
C     3.735422299499999e+00   6.099163285054841e-01  -4.737986999999997e-01  9.44486480e-01   2.81137796e+00   1.31243176e+00
C     9.971233765899999e+00   8.476297852282260e+00  -5.075735999999971e-01 -3.94980234e+00  -1.71552133e+00   5.08638230e-01
C     6.271468036500000e+00   6.649645965866904e-01  -2.994863999999993e-01 -2.63231874e+00  -5.94837866e+00  -2.78866082e+00
C     7.466123335199999e+00   5.962910564330719e-02  -6.118662000000015e-01  5.22434000e-02  -6.83041007e+00   1.10004921e+00
C     8.674887751599998e+00   6.361327130910752e-01  -3.177179999999993e-01  7.01657600e-02  -3.10982190e-01   5.08603050e-01
C     1.223817678400000e+00   2.036934327006779e+00  -4.260516000000010e-01  4.33726710e-01   1.30918350e+00  -5.57879040e-01
C     2.446406061300000e+00   2.790910081177619e+00  -7.744770000000010e-01  2.12255902e+00  -6.49944225e+00   2.18974364e+00
C     3.742714706200000e+00   2.079435202308464e+00  -5.690655000000007e-01  4.30628320e-01  -1.40518956e+00  -7.18900000e-03
C     5.063620254999999e+00   2.719804801619505e+00  -4.489847999999981e-01 -5.03449247e+00   1.75197559e+00  -1.78259720e+00
C     6.205155789699999e+00   1.960604880837002e+00  -3.037595999999994e-01  4.22852500e-02   5.89620686e+00   1.13374182e+00
C     7.406419112500000e+00   2.644768161636401e+00  -1.946175000000032e-01 -6.27673210e-01   5.43932417e+00  -5.20127910e-01
C     8.582730374199999e+00   2.042773473153213e+00  -1.759352999999990e-01  5.18343156e+00  -2.06068773e+00  -7.60278640e-01
C     9.843264967100000e+00   2.688735868158340e+00  -4.290404999999993e-01 -4.15175510e-01   3.16572183e+00   3.65281300e-01
C     2.558230638400000e+00   4.072643647570097e+00  -1.007550300000002e+00 -2.99877564e+00   6.16643711e+00  -4.09754240e-01
C     3.780037961400000e+00   4.851474668056016e+00  -9.181856999999987e-01  5.49036500e-02  -1.01571720e-01   8.59300920e-01
C     5.010401200800000e+00   4.185630297219571e+00  -6.564023999999975e-01  8.68885870e-01  -2.05385816e+00   1.76169787e+00
C     6.203992211099999e+00   4.857960302685891e+00  -2.718456000000025e-01  6.68634560e-01   1.37987030e+00  -1.95568104e+00
C     7.485986206600000e+00   4.126472203394341e+00  -2.676378000000028e-01 -3.31609697e+00  -8.33543600e-02   6.63212690e-01
C     8.645828408899998e+00   4.904606013674567e+00  -3.901448999999992e-01  7.48755300e-01  -3.73955319e+00  -9.72609000e-02
C     9.862457259899999e+00   4.159911395384545e+00  -6.252090000000017e-01  9.53503270e-01  -1.24271923e+00  -2.39483180e-01
C     1.108932606600000e+01   4.778205176291747e+00  -9.893336999999995e-01  1.07341316e+00   3.48673767e+00   2.97064540e-01
C     3.724284640700000e+00   6.260161801979685e+00  -6.918885000000010e-01 -8.92064700e-01   1.99610135e+00  -7.41851330e-01
C     4.920847652199999e+00   7.066952189870372e+00  -3.926715000000023e-01  5.83774780e-01  -3.67260905e+00  -1.28289070e-01
C     6.180578162100000e+00   6.329513083395102e+00  -3.308384999999987e-01  2.26005080e-01  -8.57332750e-01   1.19203357e+00
C     7.430332324000000e+00   6.999826516146464e+00  -1.976222999999990e-01 -2.58210478e+00   2.78512171e+00   3.48458930e-01
C     8.599567606000001e+00   6.256880174862117e+00  -3.042221999999981e-01  1.48868767e+00   3.61709160e+00  -1.64249867e+00
C     9.751928040299999e+00   7.027316579535252e+00  -6.661434000000028e-01  5.41527842e+00   6.66475930e-01   4.14969400e-02
C     1.108364606510000e+01   6.379653128252404e+00  -1.028759399999998e+00 -2.32437906e+00  -3.82751402e+00   2.11669249e+00
C     1.231319713630000e+01   6.995005646999770e+00  -8.038670999999979e-01  1.80909040e+00   2.93315579e+00  -1.00529700e-01
