32
Lattice="9.86 0 0 4.93 8.53901048131456 0 0 0 30 " PBC="1 1 1" Properties=species:S:1:pos:R:3:force:R:3 Energy="-255.45638034"
C     9.825602798400000e+00   7.993941531832256e-01   3.804626700000000e+00 -2.75316080e-01   1.21900229e+00  -7.74477600e-02
C     1.141056240100000e+00   1.633967065571641e+00   3.740001600000000e+00  6.23254180e-01  -2.89538932e+00   4.58479800e-01
C     2.368537401499999e+00   9.133603127248600e-01   3.698240100000000e+00  1.16347112e+00  -2.68472946e+00  -4.82831280e-01
C     3.674832451600000e+00   1.501080849729261e+00   3.558699900000000e+00 -1.95660570e+00   4.75468790e-01   4.07455160e-01
C     4.883514684900000e+00   7.236291356061768e-01   3.567300600000000e+00 -1.12856215e+00   3.01219322e+00   8.65099000e-02
C     6.044355754500001e+00   1.489805171780525e+00   3.675510900000000e+00  4.09599719e+00   4.86560880e-01   5.16058900e-01
C     7.372076929700000e+00   8.298942177662136e-01   3.870320100000000e+00 -2.09876451e+00   2.68382550e-01  -9.49725840e-01
C     8.623760989399999e+00   1.534331414977962e+00   3.931003500000000e+00 -2.47901010e+00   6.30099700e-02  -4.56865870e-01
C     1.098050060510000e+01   3.014460180082551e+00   3.816080700000000e+00  1.66890845e+00   2.69757140e-01   1.31487410e-01
C     2.432997348700000e+00   3.676209412272998e+00   3.650177400000000e+00 -1.55605903e+00  -2.21129245e+00  -2.58512340e-01
C     3.655060834500000e+00   2.930175364799082e+00   3.532791000000000e+00  3.34713590e-01   1.23525400e-02   5.57865650e-01
C     4.901326035399999e+00   3.645169853007883e+00   3.571149300000000e+00 -2.64794913e+00   3.78689490e-01  -1.23905321e+00
C     6.087433404299999e+00   2.937696696010076e+00   3.625418400000000e+00 -6.10831600e-01  -1.31838984e+00   7.46900080e-01
C     7.246926858399999e+00   3.671404596466006e+00   3.820419900000000e+00  4.13972474e+00  -5.56334650e-01  -8.98669680e-01
C     8.527409365200000e+00   2.974215055179368e+00   3.917308800000000e+00 -5.27543010e-01  -9.86586150e-01   9.31018880e-01
C     9.739936801300001e+00   3.677790495453474e+00   4.023183599999999e+00  6.72620360e-01   6.61462980e-01  -2.17670737e+00
C     1.228051744810000e+01   5.049040301899995e+00   3.558890400000000e+00 -1.26891716e+00   2.02592037e+00   5.74996980e-01
C     3.604614363000000e+00   5.791998170848490e+00   3.610464300000000e+00  1.16051170e+00   7.71086940e-01  -5.89966400e-02
C     4.853623947000000e+00   5.058085248750935e+00   3.507062700000000e+00  6.20296040e-01   1.31394309e+00   1.69268495e+00
C     6.102393538599999e+00   5.755920510010070e+00   3.683181300000000e+00 -7.47916150e-01   1.83723420e+00  -1.52566604e+00
C     7.355323902300000e+00   5.089071695370864e+00   3.653236500000000e+00 -2.27797355e+00   1.73312340e-01   1.47699413e+00
C     8.536420123399999e+00   5.864124289109486e+00   3.702082200000000e+00  1.26559725e+00  -3.34565952e+00  -1.69679580e-01
C     9.764649954599999e+00   5.051474005276899e+00   3.761183100000000e+00  2.68505500e-01   3.53474610e+00  -1.63961660e-01
C     1.102081691260000e+01   5.769619815303344e+00   3.569716500000000e+00  1.91723920e-01   1.64477080e-01   1.42769203e+00
C     1.342067682260000e+01   7.251500699968324e+00   3.807555900000000e+00  4.49354589e+00  -3.06562391e+00  -1.81215232e+00
C     4.855326276000000e+00   7.911414557246200e+00   3.672545700000000e+00 -1.34582383e+00   1.22706406e+00   1.40860282e+00
C     6.070327388900000e+00   7.227405917926594e+00   3.662952300000000e+00  6.30254540e-01  -1.87913573e+00   5.30701840e-01
C     7.275027463999999e+00   7.955012012273726e+00   3.746651400000000e+00  1.19386333e+00   1.71223302e+00  -1.38710416e+00
C     8.538636355600000e+00   7.246300954926634e+00   3.611708700000000e+00 -9.39390060e-01   4.54903520e-01   5.82556080e-01
C     9.788590330399998e+00   7.892822569728096e+00   3.570139500000000e+00  1.07151462e+00  -6.61271050e-01   7.37871610e-01
C     1.105969464610000e+01   7.228259989754804e+00   3.682069500000000e+00 -2.20581449e+00  -2.04673464e+00  -1.15071090e+00
C     1.226497838390000e+01   7.942671007377506e+00   3.775312500000000e+00 -1.52802587e+00   1.58934616e+00   5.40208420e-01
