32
Lattice="10.036 0 0 5.018 8.69143095238062 0 0 0 30 " PBC="1 1 1" Properties=species:S:1:pos:R:3:force:R:3 Energy="-257.42495688"
C    -3.508457690752355e-03   6.971466259531861e-04   2.999163931680217e+00  2.55162340e-01  -7.39667100e-02   4.66387500e-02
C     1.255586693129109e+00   7.213962250884302e-01   3.003578708716255e+00 -1.37072510e-01   1.08608050e-01  -8.09522500e-02
C     2.506937782926917e+00  -1.507388342972164e-03   2.996973873922323e+00  1.59813440e-01   1.35915990e-01   4.89799800e-02
C     3.764596558005426e+00   7.265629324910854e-01   2.997336489537946e+00 -1.28856070e-01  -1.21246980e-01   2.61927800e-02
C     5.014942706542770e+00  -1.871970595682039e-03   2.999015200922326e+00  1.19723940e-01   7.67700600e-02  -1.23738500e-02
C     6.270424934567829e+00   7.249720928395532e-01   2.997398409995469e+00  1.42515900e-02   4.09866700e-02   2.49712600e-02
C     7.523022718613173e+00   1.747518566824702e-03   2.999526463737903e+00  2.08745430e-01  -6.72371000e-02   2.22357400e-02
C     8.785011719414785e+00   7.283802504890432e-01   3.003903040370874e+00 -3.62944810e-01  -2.87977330e-01  -6.92890900e-02
C     1.255823094436616e+00   2.172161738333998e+00   2.998821510688607e+00 -5.14799200e-02  -1.85405500e-02   3.36199700e-02
C     2.508330733236374e+00   2.898114057804706e+00   3.000286030116263e+00  3.33464900e-02  -9.24572700e-02  -1.38845400e-02
C     3.765085703970004e+00   2.174363701234736e+00   3.001675295652305e+00 -1.07714490e-01  -2.68241700e-02  -4.24212200e-02
C     5.015441547957135e+00   2.898911588159807e+00   2.999385489268611e+00  2.03327190e-01   2.13834600e-02   2.65842500e-02
C     6.274323447331041e+00   2.176284496740310e+00   2.998905951516551e+00 -1.47359100e-01  -1.04533290e-01   2.41786000e-03
C     7.529206975962757e+00   2.897659806377958e+00   3.000387993315461e+00 -1.54950460e-01  -6.06593100e-02  -2.11889300e-02
C     8.778660877830307e+00   2.168400272682706e+00   2.999117082012857e+00  2.75024230e-01   3.45842530e-01   2.43964500e-02
C     1.003720964542092e+01   2.897775332565859e+00   2.997805724498059e+00 -7.37138500e-02  -9.49253200e-02   3.48027200e-02
C     2.505845089163435e+00   4.343857019593346e+00   2.997073884072226e+00  1.47147850e-01   6.10352000e-02   4.38512800e-02
C     3.760990145935294e+00   5.070083434147996e+00   2.998804821429789e+00  3.81257400e-02  -6.99477900e-02  -7.40458000e-03
C     5.015976880798531e+00   4.347170405282221e+00   3.001580981441438e+00  3.57414500e-02   4.60062200e-02  -1.25476600e-02
C     6.272563788070948e+00   5.073508419194949e+00   3.002754882941823e+00 -5.11451300e-02  -1.87459740e-01  -5.03923300e-02
C     7.524334132411467e+00   4.343996283616337e+00   2.998826484331816e+00  1.48249400e-01   1.59159390e-01   1.58372900e-02
C     8.780538494358968e+00   5.071380121219120e+00   2.996652298910267e+00  5.52070000e-04  -1.52332780e-01   4.88501400e-02
C     1.003799870710030e+01   4.345996476824159e+00   3.002486732432382e+00 -1.00653630e-01  -2.40170000e-03  -6.55752700e-02
C     1.129271034236489e+01   5.068980967741211e+00   3.000987735926278e+00 -1.29287050e-01   6.37176000e-03  -3.53706500e-02
C     3.763737666137935e+00   6.515522995941106e+00   2.997312454457743e+00  2.83027800e-02   1.44509390e-01   2.46744000e-02
C     5.020686350864182e+00   7.241877539246966e+00   2.997408889652333e+00 -1.76409120e-01   3.24482700e-02   3.96079000e-03
C     6.275275821539455e+00   6.520005573183371e+00   2.997694983129610e+00 -8.54098500e-02   2.38232000e-02   3.28613400e-02
C     7.526806956339066e+00   7.245228293578307e+00   2.999453701902349e+00  7.79489100e-02  -1.33047010e-01  -3.51196200e-02
C     8.780255109935949e+00   6.516192654360006e+00   2.998303720196499e+00  8.03988100e-02   1.53051870e-01   1.23790600e-02
C     1.003784570282054e+01   7.241293052012811e+00   3.000918261619077e+00 -1.13645770e-01  -3.18547600e-02  -4.13074300e-02
C     1.129242560270263e+01   6.516867556115534e+00   2.997099528893640e+00 -4.79671000e-02   4.20739800e-02   6.03862300e-02
C     1.254465101171398e+01   7.241141350376299e+00   3.000550026699633e+00  4.27471800e-02   1.27425770e-01  -4.58128700e-02
