32
Lattice="9.968 0 0 4.984 8.63254122492328 0 0 0 30 " PBC="1 1 1" Properties=species:S:1:pos:R:3:force:R:3 Energy="-257.83939778"
C     3.894103496005284e-04   1.133614231267763e-03   3.001173423079205e+00 -4.38030500e-02  -1.05096750e-01  -8.33337000e-03
C     1.244997797785870e+00   7.187323717404003e-01   3.000918655831389e+00  7.73141000e-02   3.56648900e-02  -5.30763000e-03
C     2.492118252712656e+00   5.461300184384648e-04   3.001060803731783e+00 -2.72755400e-02  -4.30449600e-02  -1.87700400e-02
C     3.738291660233842e+00   7.197942514234579e-01   2.999586083388473e+00 -2.39377700e-02  -4.55043000e-02   6.73969000e-03
C     4.983209814199043e+00  -3.427458635723764e-04   2.999755425373134e+00  7.23371300e-02   3.96934100e-02  -2.41701000e-03
C     6.230652681863680e+00   7.187971390870961e-01   2.999419602044378e+00 -2.27945500e-02  -1.17495300e-02   3.38842000e-03
C     7.477186383808353e+00  -1.090874150342017e-03   2.999798671151340e+00 -7.13016100e-02   5.91661900e-02  -6.89821000e-03
C     8.721629314559564e+00   7.183554329579134e-01   2.999245815865457e+00  4.01839500e-02   4.87383400e-02   1.13488900e-02
C     1.247098618396278e+00   2.156915635287826e+00   2.999217775804457e+00 -4.43725900e-02   7.74910500e-02   1.73185900e-02
C     2.493209835740802e+00   2.877115647955876e+00   2.999567744188591e+00 -2.87006400e-02  -1.43161300e-02   5.14930000e-04
C     3.738383544564749e+00   2.156944171824571e+00   2.999232560623530e+00  4.11102700e-02   9.17293100e-02   2.39508000e-03
C     4.985127584882010e+00   2.878138494046298e+00   2.999319564167907e+00 -2.81810200e-02  -5.41970600e-02   9.91498000e-03
C     6.230343628191087e+00   2.156968920803097e+00   2.999781220380973e+00  2.68633600e-02   6.05685500e-02  -5.09799000e-03
C     7.477114129588062e+00   2.878165061929294e+00   2.999905347670564e+00 -6.36691400e-02  -7.40488600e-02  -9.45507000e-03
C     8.721647079027010e+00   2.157566608645311e+00   2.999162616561001e+00  4.75329000e-02   2.79935700e-02   1.19767700e-02
C     9.968370936282357e+00   2.878012019683766e+00   3.000632022639777e+00  7.50124000e-03  -6.61118800e-02  -1.71139100e-02
C     2.493081244041578e+00   4.316565228523774e+00   3.000494794456923e+00 -6.72907400e-02  -6.51435400e-02  -1.82045000e-03
C     3.737270223594337e+00   5.034436529810369e+00   3.000975397405818e+00  6.47114400e-02   9.63821100e-02  -1.08336200e-02
C     4.984865186989661e+00   4.317070446628982e+00   3.000755167863669e+00 -4.15909400e-02  -5.35162900e-02  -1.16409400e-02
C     6.229926678562091e+00   5.035420285746061e+00   2.999315837295062e+00  4.73627000e-03   2.33072100e-02   7.87244000e-03
C     7.475516417547214e+00   4.315711507412488e+00   2.999075154290463e+00  2.02012000e-02   2.47970800e-02   6.65797000e-03
C     8.721413700686105e+00   5.034525827892758e+00   2.999885704413798e+00  2.61611200e-02   7.31546500e-02   1.65045000e-03
C     9.967832781904553e+00   4.316491391823352e+00   3.000266920924960e+00  5.00594000e-03  -2.97109200e-02   2.59423000e-03
C     1.121396621402333e+01   5.034884625010683e+00   3.000336768114263e+00  2.80838500e-02   5.55876700e-02  -6.66914000e-03
C     3.737634833696653e+00   6.474526641124113e+00   2.999390924178633e+00  4.56248000e-03  -2.66405000e-02   2.04335300e-02
C     4.984261622729320e+00   7.192980289959868e+00   3.001187907404632e+00 -4.65261700e-02   6.23030000e-02  -1.25127400e-02
C     6.229001356300447e+00   6.474350736333861e+00   2.999921268765889e+00  4.51045900e-02  -1.84313100e-02  -2.32845000e-03
C     7.474776563776456e+00   7.193760301522739e+00   2.998841067487968e+00  7.98012300e-02   8.13422000e-03   2.89668800e-02
C     8.722805544873852e+00   6.474375343172796e+00   3.000814434746848e+00 -5.70232600e-02  -5.59085000e-03  -2.00436900e-02
C     9.968839470955860e+00   7.194850368274110e+00   3.000099284936581e+00 -3.24184000e-02  -7.73457000e-02  -2.44872000e-03
C     1.121500597870181e+01   6.474470359801426e+00   2.998886609480267e+00 -4.78425100e-02  -6.71533000e-03   1.79390100e-02
C     1.245953930058611e+01   7.194833329782938e+00   2.999713079849744e+00  5.55168700e-02  -8.75473400e-02  -8.02089000e-03
