32
Lattice="9.86 0 0 4.93 8.53901048131456 0 0 0 30 " PBC="1 1 1" Properties=species:S:1:pos:R:3:force:R:3 Energy="-256.80620048"
C     4.963118803300000e+00   8.468496441527522e+00  -1.753838999999999e-01 -1.19981492e+00  -2.42306686e+00  -7.73779000e-02
C     1.225105739500000e+00   6.361507304031880e-01  -1.747146000000015e-01  1.86930750e+00  -1.36864079e+00   2.92349940e-01
C     7.389087451000000e+00   8.445262391742176e+00  -1.681703999999975e-01  1.21774431e+00  -4.74032250e-01  -3.19079600e-01
C     3.723975628300000e+00   5.938749434177559e-01  -2.407995000000014e-01  7.22215800e-02   7.64900340e-01   8.10489930e-01
C     9.910076524299999e+00   8.445747834487964e+00  -1.662986999999987e-01 -2.20781817e+00  -1.69831860e+00   1.21816330e-01
C     6.172819426699999e+00   5.715527745615687e-01  -1.170648000000014e-01  2.50738599e+00   1.86712587e+00  -6.57628950e-01
C     1.234877393900000e+01   8.396449650673885e+00  -1.626596999999990e-01  4.80280460e-01   1.85606407e+00   2.91604240e-01
C     8.650528966700000e+00   6.040983591050408e-01  -2.067273000000007e-01 -2.60198810e-01  -8.12169640e-01   2.72570980e-01
C     1.287473838400000e+00   2.024065355092581e+00  -1.228815000000019e-01 -2.26990316e+00   4.77220920e-01  -9.77491520e-01
C     2.485252193500000e+00   2.687409930611006e+00  -1.375835999999993e-01  2.81480806e+00   3.47041742e+00  -2.73048270e-01
C     3.772389115700000e+00   2.037954311808615e+00  -2.087499000000008e-01 -1.83209533e+00  -1.81827556e+00   2.99382080e-01
C     5.002763151800000e+00   2.715795053078307e+00  -1.736396999999990e-01 -3.46941120e-01   3.17209770e-01  -2.20331490e-01
C     6.249305763800000e+00   2.033142835573450e+00  -1.596954000000004e-01 -2.43644370e+00  -2.18142857e+00   2.74823860e-01
C     7.430675895699999e+00   2.731211638769214e+00  -1.366154999999978e-01  1.28872495e+00  -8.65911740e-01  -7.61038250e-01
C     8.658134921400000e+00   1.999090286460467e+00  -2.202386999999995e-01  1.62049750e-01   1.14923031e+00   3.44059050e-01
C     9.886000524199998e+00   2.726666408880815e+00  -2.309181000000002e-01 -1.97421700e-02  -9.99021540e-01   7.49039240e-01
C     2.514159889400000e+00   4.184704839263749e+00  -1.517891999999996e-01 -1.36997625e+00  -2.15704824e+00   1.21973090e-01
C     3.749683162600000e+00   4.865186781865010e+00  -1.092078000000001e-01 -4.09355220e-01  -5.86299900e-01  -8.62771420e-01
C     4.960998706100000e+00   4.119536392131961e+00  -1.848704999999988e-01  1.00697092e+00   1.29289891e+00   5.15330230e-01
C     6.209531115400000e+00   4.831397575835230e+00  -1.843340999999974e-01 -1.87066860e+00   1.21864515e+00  -1.02786220e-01
C     7.405875234900000e+00   4.122278609957508e+00  -1.791504000000010e-01  7.67635710e-01   1.12364102e+00   4.39963690e-01
C     8.620907801200000e+00   4.834573404612953e+00  -1.285308000000001e-01  6.76281190e-01   1.85565605e+00  -5.21711550e-01
C     9.823469094400000e+00   4.115310179675094e+00  -1.829406000000020e-01  2.51619694e+00   1.73731636e+00  -8.71304400e-02
C     1.111092538200000e+01   4.866072448031995e+00  -1.975046999999996e-01 -5.51714810e-01  -8.22518130e-01   4.56874130e-01
C     3.751017910800000e+00   6.276249212333902e+00  -1.647923999999996e-01 -1.02546400e-01   7.07152790e-01   4.97288830e-01
C     4.964056834400000e+00   6.984507189784924e+00  -1.493085000000001e-01  5.48514190e-01   1.79930971e+00  -5.16162990e-01
C     6.182973895600000e+00   6.284812985944292e+00  -1.936769999999974e-01  1.30400125e+00  -8.06076510e-01   5.51093090e-01
C     7.435253893700001e+00   7.003109509505709e+00  -1.470333000000004e-01 -1.22949625e+00   7.85435690e-01  -2.32671400e-01
C     8.669486295700001e+00   6.321474629709440e+00  -1.287774000000006e-01 -1.04560029e+00  -2.36601263e+00   7.50185900e-02
C     9.889734210400000e+00   6.998754187210386e+00  -1.130793000000025e-01  4.77468020e-01   8.14469900e-01  -5.46881810e-01
C     1.109473294490000e+01   6.270406052852541e+00  -1.694108999999990e-01  2.19822336e+00   1.16647897e+00   4.69509800e-01
C     1.240973432570000e+01   7.026685375880571e+00  -1.355997000000002e-01 -2.75549898e+00  -3.02435229e+00  -4.27075320e-01
