32
Lattice="9.86 0 0 4.93 8.53901048131456 0 0 0 30 " PBC="1 1 1" Properties=species:S:1:pos:R:3:force:R:3 Energy="-251.84267358"
C     5.122268373099999e+00   8.078060434142099e+00  -4.464420000000047e-02 -9.14934900e-01  -2.75852128e+00   7.63767000e-03
C     1.358420285200000e+00   2.036261965321584e-01   5.943900000000000e-03  5.98691935e+00   3.30019580e-01  -4.64365110e-01
C     7.729977526799999e+00   8.025553802530265e+00   8.166420000000001e-02 -4.34577928e+00  -1.30968385e+00  -1.00676176e+00
C     3.951628386200000e+00   1.617968290146208e-01  -2.643510000000049e-02  3.13807894e+00   3.35980271e+00  -1.93866087e+00
C     1.022521523810000e+01   8.015083182489583e+00  -2.054085000000008e-01 -6.03689343e+00  -1.57112742e+00   3.31613208e+00
C     6.362436199299999e+00   2.644399190993560e-01   8.431169999999999e-02  2.38169808e+00  -3.31968200e+00  -1.39411171e+00
C     1.248346232780000e+01   8.008394148630076e+00   9.030569999999999e-02  2.36397315e+00  -2.03867870e-01  -1.30946055e+00
C     8.786308117999999e+00   1.273719790447104e-01  -1.123362000000014e-01 -7.22864170e-01   3.17898305e+00   2.92235630e-01
C     1.415327571000000e+00   1.579472893880482e+00  -1.423379999999987e-01  9.64876820e-01   3.00429626e+00   2.43473547e+00
C     2.720654960700000e+00   2.372217634212827e+00   1.786950000000000e-02 -2.31014636e+00  -1.94471090e+00  -1.48101940e+00
C     3.924670850400000e+00   1.683455498539214e+00  -1.680861000000000e-01  1.52277406e+00  -1.70258243e+00   2.42938882e+00
C     5.177341107299999e+00   2.400361358853858e+00  -2.812830000000233e-02 -2.06584187e+00   5.17897040e-01  -4.61416200e-02
C     6.379989464300000e+00   1.613386854853373e+00  -2.399910000000105e-02 -6.12640490e-01   4.14868395e+00  -8.37017250e-01
C     7.584860117399999e+00   2.321351688074619e+00  -2.750430000000001e-01 -8.35963700e-01   1.15597230e-01   1.82975572e+00
C     8.726465362299999e+00   1.563558825439010e+00  -2.859164999999990e-01  4.86490436e+00   7.60955580e-01   2.03322967e+00
C     1.006209790570000e+01   2.350766956766228e+00  -1.501619999999804e-02 -1.36334288e+00  -3.37078855e+00  -3.65257103e+00
C     2.606214624200000e+00   3.760260173279209e+00   6.003330000000000e-02  2.90387664e+00   2.19941568e+00  -7.89612870e-01
C     3.854305749199999e+00   4.665085488858995e+00   5.205540000000000e-02  2.11197153e+00  -1.01980661e+01   3.97753930e-01
C     5.124519460400000e+00   3.878910919360277e+00   8.577690000000000e-02  1.54252156e+00  -1.59759787e+00  -1.01811863e+00
C     6.490134932699999e+00   4.493368976759863e+00  -2.652900000001068e-03 -5.30376123e+00   1.80963770e+00  -5.90838600e-02
C     7.641186402699999e+00   3.745984399388431e+00  -1.026342000000007e-01  7.75598730e-01  -4.67273030e-01  -8.91842590e-01
C     8.871587011499999e+00   4.426770501542990e+00  -1.359725999999988e-01 -1.23080400e-02   1.03353295e+00   4.76350920e-01
C     1.007719045980000e+01   3.728599742562094e+00  -2.195652000000017e-01 -9.39845220e-01   1.85098770e-01   1.27393140e+00
C     1.126072190370000e+01   4.452814654287200e+00  -1.183703999999999e-01  2.46657525e+00  -1.87040693e+00   7.52146940e-01
C     4.013121410100000e+00   5.951050818065153e+00  -4.475370000000112e-02 -1.39014758e+00   3.82229069e+00  -5.57421200e-02
C     5.201227253099999e+00   6.661757783721840e+00  -3.422339999999835e-02  1.60991205e+00  -4.91944630e-01  -3.56201660e-01
C     6.421750853400000e+00   5.943392777296375e+00  -1.018949999999990e-01  3.45570922e+00  -6.41506640e-01   1.27479793e+00
C     7.792839858199999e+00   6.589820633762766e+00  -2.397150000000181e-02 -4.75821455e+00   1.32229556e+00   7.30523040e-01
C     8.953565861600000e+00   5.854941437239295e+00   7.278510000000001e-02  4.64234520e-01  -4.85451270e-01  -1.51942842e+00
C     1.019471002500000e+01   6.555814024526166e+00   2.971500000000000e-02  1.23570250e+00   1.15244869e+00  -1.17792941e+00
C     1.144394993860000e+01   5.799825027854457e+00  -1.973070000000021e-02 -2.58407366e+00   3.96227155e+00  -2.41719430e-01
C     1.264401403890000e+01   6.591811674836388e+00  -4.373460000000051e-02 -3.59256941e+00   1.02998372e+00   9.91169070e-01
