32
Lattice="9.86 0 0 4.93 8.53901048131456 0 0 0 30 " PBC="1 1 1" Properties=species:S:1:pos:R:3:force:R:3 Energy="-250.87659942"
C     5.109481925100000e+00   7.373866000998297e+00   3.598770000000000e-01 -4.15507151e+00   3.68320519e+00  -9.44609690e-01
C     6.221144075500000e+00   8.230748529897493e+00   2.495511000000000e-01  3.84772628e+00  -1.39034401e+00  -1.60696348e+00
C     7.560490535800000e+00   7.542386361474765e+00   1.778787000000000e-01 -5.88837658e+00  -4.40231313e+00   1.59654100e-01
C     8.713984426400000e+00   8.184191539227704e+00   5.603100000000000e-02  4.09009361e+00   4.01435910e-01  -2.89396452e+00
C     9.925504909999999e+00   7.419406678640756e+00  -2.223777000000027e-01  1.84299738e+00   1.91181184e+00   7.87409840e-01
C     1.131834739190000e+01   8.098158873889084e+00  -3.227367000000001e-01 -4.21130347e+00  -9.19152070e-01   3.24826772e+00
C     1.245901327460000e+01   7.421627504486396e+00   1.779672000000000e-01  6.12843600e-01   2.81698998e+00  -3.19461082e+00
C     1.369334565700000e+01   8.279089149076347e+00   2.635692000000000e-01  1.13336469e+00  -4.32427634e+00  -2.64646210e-01
C     1.370858083600000e+00   1.061627335804235e+00  -2.482901999999996e-01 -8.26654940e-01   4.59807330e-01   3.46703356e+00
C     2.660035237000000e+00   1.756136481701202e+00  -2.188101000000024e-01 -4.53006885e+00   1.53400444e+00  -1.46724387e+00
C     3.824412004000000e+00   1.051014882799482e+00  -2.437880999999997e-01  6.55993540e-01  -1.53272370e-01   2.00149949e+00
C     5.014455041200000e+00   1.768514460512800e+00  -1.508900999999980e-01  2.61155523e+00  -3.24368572e+00  -4.51275040e-01
C     6.296705446000000e+00   9.181588096640960e-01  -1.643994000000006e-01 -1.42114967e+00   5.10149977e+00   1.76878200e-02
C     7.429638623700000e+00   1.746676026600305e+00  -7.361699999999871e-02  4.05209498e+00   7.45548020e-01  -8.52305240e-01
C     8.792560294699998e+00   1.141524380552556e+00  -8.018999999990228e-04 -1.98388775e+00  -6.01026310e-01   5.33915910e-01
C     1.003000828920000e+01   1.885541769921410e+00  -1.734399000000018e-01  2.81897370e-01  -5.51764842e+00  -7.56670500e-01
C     2.573759053800000e+00   3.223302089605998e+00  -3.391659000000011e-01  7.46016700e-01  -9.04151890e-01  -6.52164900e-01
C     3.846299577100000e+00   3.832707102163940e+00  -3.895923000000003e-01 -2.12072604e+00   3.92728250e+00   1.46494989e+00
C     5.050875465500000e+00   3.154397483828792e+00  -8.786759999999916e-02 -3.72532410e-01  -3.76535210e-01  -2.26537738e+00
C     6.269505896499999e+00   3.852658500150460e+00  -2.292722999999981e-01  1.83950000e-04   1.58107004e+00   1.89404471e+00
C     7.519742458900000e+00   3.214863070938719e+00  -2.382741000000017e-01 -7.83170340e-01  -3.16234519e+00  -6.11175050e-01
C     8.776588524399999e+00   3.847954103106713e+00  -4.681212000000023e-01 -1.91461291e+00   1.55809190e+00   1.85736181e+00
C     1.005070738720000e+01   3.190639862179370e+00  -4.705280999999992e-01 -2.87535536e+00   2.98039190e+00   1.12079590e-01
C     1.116457388850000e+01   3.988920443005898e+00  -4.386302999999998e-01  3.47662793e+00  -1.12277803e+00   6.96962810e-01
C     3.737936106499999e+00   5.396969627456607e+00  -3.127694999999981e-01  7.46085530e-01  -4.50379627e+00   1.15191437e+00
C     4.923392123799999e+00   5.951169254140511e+00   1.363971000000000e-01  2.23859883e+00   2.30766719e+00  -1.88039530e-01
C     6.151171846000000e+00   5.235950958467029e+00   5.886000000000001e-02  2.28723370e+00   1.50658395e+00  -1.40462525e+00
C     7.397017602500000e+00   5.997631291013763e+00   1.110000000000000e-04  2.23954775e+00   6.21438730e-01   7.39180720e-01
C     8.657524833900000e+00   5.250347815526414e+00  -2.175117000000029e-01  8.40934010e-01   2.30334021e+00   3.64612900e-02
C     9.944038801300000e+00   6.045290924106834e+00  -1.567578000000012e-01 -4.17764469e+00  -5.26304640e-01  -5.33013130e-01
C     1.113038369760000e+01   5.395673832616267e+00  -2.199869999999997e-01  2.24728771e+00  -2.35615260e+00  -1.68104863e+00
C     1.237602638740000e+01   6.056643453149889e+00  -2.115705000000005e-01  1.30947170e+00   6.36133200e-02   1.59930964e+00
