26
Lattice="8.88768389401873 1.33226762955019e-15 0 4.44384194700937 7.69696003302603 0 0 0 30 " PBC="1 1 1" Properties=species:S:1:pos:R:3:force:R:3 Energy="-208.44915993"
C     1.302309387947185e+01   7.407073580748526e+00  -1.347050999999979e-01  2.83485763e+00  -9.71738850e-01   4.09927400e-02
C     9.280176324688863e+00   7.180146032424044e+00  -1.482156000000003e-01  2.06625255e+00  -1.32992392e+00   5.74505400e-02
C     1.065524824666462e+01   6.732372534803583e+00  -2.451372000000021e-01  1.08482160e-01   3.50267873e+00   3.40219150e-01
C     1.096152298750021e+01   5.392377821401562e+00  -2.525988000000012e-01  3.67949192e+00   1.37231540e-01   1.54970080e-01
C     6.950525913421972e+00   6.624422054626030e+00  -1.149765000000009e-01 -1.28446864e+00  -2.74889295e+00   5.52621120e-01
C     8.295298076802846e+00   6.188412667685022e+00  -5.292150000000007e-02 -5.82539200e-01   2.42303650e-01  -1.02882964e+00
C     8.639951791946832e+00   4.819055283282156e+00  -1.522635000000001e-01 -6.04567500e-01  -8.06481590e-01   4.64422500e-02
C     1.000375057571840e+01   4.435760143468207e+00  -2.407457999999991e-01 -1.99302246e+00  -2.15761800e+00   6.33394260e-01
C     1.034315718004139e+01   3.057130847074004e+00  -1.385550000000002e-01 -1.32067225e+00  -1.25764074e+00   2.91859680e-01
C     4.494346701454729e+00   6.045484045377536e+00  -1.470062999999975e-01  9.45733720e-01  -3.42667593e+00  -5.24117420e-01
C     5.918333680377363e+00   5.595123599490992e+00  -1.858907999999992e-01 -1.30928291e+00   6.95889770e-01   8.20798720e-01
C     6.242150442796956e+00   4.169752127257004e+00  -1.436495999999998e-01 -4.41236490e-01   1.74693949e+00  -5.77968780e-01
C     7.630444305521020e+00   3.807670886860140e+00  -1.495046999999978e-01 -9.18926760e-01  -9.92602830e-01  -1.92268600e-02
C     7.931373148875116e+00   2.375196813849668e+00  -1.560216000000025e-01  1.22804202e+00   3.21270412e+00   4.97648400e-02
C     9.303483694651851e+00   2.039987508187942e+00  -7.117620000000002e-02  1.07068129e+00  -5.44359220e-01  -5.30269610e-01
C     3.472231279941623e+00   4.978379123179943e+00  -1.922999999999995e-01  2.51771630e-01   1.94088805e+00   2.94203750e-01
C     3.801428379591210e+00   3.604585441924586e+00  -9.601709999999741e-02  1.49660448e+00   7.64496210e-01  -7.75133380e-01
C     5.173409565088061e+00   3.206468958907270e+00  -1.791444000000020e-01  1.26493837e+00  -5.36447770e-01   4.72653400e-01
C     5.565105302217662e+00   1.803948221610346e+00  -2.177285999999974e-01 -1.53690179e+00   1.94273324e+00   2.92763170e-01
C     6.908944169963276e+00   1.444952923398310e+00  -2.264118000000011e-01  1.10882480e-01  -1.11977604e+00   2.35233810e-01
C     7.266668868491719e+00   7.973596470438229e-02  -2.028581999999979e-01 -2.88556394e+00  -1.16168786e+00  -2.61711820e-01
C     2.799673975348632e+00   2.621884536750369e+00  -6.282870000000074e-02 -1.86963210e-01   7.29546530e-01  -7.49159300e-02
C     3.169678253462453e+00   1.280681477593239e+00  -4.859099999997341e-03 -2.77409670e-01  -1.88320421e+00  -4.07106300e-01
C     4.542521322076227e+00   8.389819590108519e-01  -1.263830999999982e-01 -1.31635178e+00   1.19051185e+00   1.80731710e-01
C     7.851592812593622e-01   6.370705313886733e-01  -6.314850000000050e-02 -1.56698507e+00   1.85352887e+00   9.68521100e-02
C     2.129881851406340e+00   2.660391888993257e-01  -1.356029999999819e-02  1.16715344e+00   9.77597860e-01  -3.61671590e-01
