32
Lattice="9.86 0 0 4.93 8.53901048131456 0 0 0 30 " PBC="1 1 1" Properties=species:S:1:pos:R:3:force:R:3 Energy="-256.91863921"
C     4.922079264799999e+00   8.428470256853046e+00  -1.709733000000000e-01 -6.46924170e-01   1.47717090e-01   1.25303600e-02
C     1.223203055300000e+00   6.128568221543768e-01  -1.749453000000010e-01 -2.82159590e-01  -3.57628090e-01   1.00954119e+00
C     7.366848122400000e+00   8.421199801769955e+00  -2.167820999999996e-01  7.50936600e-02  -1.02097240e-01  -1.84084610e-01
C     3.658518194200000e+00   5.823249924524031e-01  -1.480917000000019e-01  1.39831250e-01   7.07559310e-01  -7.36021800e-02
C     9.799341378599999e+00   8.373007505203141e+00  -1.825317000000020e-01  1.00068307e+00   2.82171058e+00   7.79733830e-01
C     6.091778607699999e+00   5.681673984666680e-01  -1.167128999999996e-01  1.45678130e+00   1.00859742e+00  -1.19521460e-01
C     1.228587808360000e+01   8.410330153769545e+00  -6.293940000000120e-02 -7.60015500e-02  -7.61963300e-02  -3.58766430e-01
C     8.594599940799998e+00   5.798064967014320e-01  -1.821741000000010e-01  8.07844600e-02   7.88894510e-01   4.38459930e-01
C     1.221591487600000e+00   2.004365345574592e+00   1.309731000000000e-01  1.25966420e-01   7.56488840e-01  -1.56234582e+00
C     2.451543910100000e+00   2.745533437926479e+00   1.649625000000000e-01 -6.41459300e-02  -3.03926710e-01   5.42858230e-01
C     3.682245889799999e+00   2.035692413322568e+00  -1.459200000002880e-03 -1.22771910e+00  -1.24261037e+00   2.47264590e-01
C     4.876578322799999e+00   2.745093935057074e+00  -2.925599999997530e-03  1.99149757e+00   2.10866450e-01  -3.22854580e-01
C     6.133002873299999e+00   2.025734475471106e+00  -1.212915000000017e-01 -5.73007450e-01  -3.68696930e-01  -2.78538300e-02
C     7.373628252800000e+00   2.755982198100331e+00  -1.678418999999991e-01 -9.56316800e-02  -1.00984885e+00  -2.95912960e-01
C     8.621724751500000e+00   2.025804153796623e+00  -2.057825999999991e-01 -5.73735500e-01  -2.53286510e-01   9.94668470e-01
C     9.852457888800000e+00   2.723972180294165e+00   2.308290000000000e-02 -6.56778780e-01   1.61232730e-01  -3.23087290e-01
C     2.446955312600000e+00   4.173794545573453e+00   3.388395000000000e-01 -6.27316870e-01  -5.81029340e-01  -8.96981970e-01
C     3.678646891200000e+00   4.893831746421218e+00   2.728644000000000e-01 -8.33063400e-02  -4.93741170e-01  -1.34415593e+00
C     4.888577992100000e+00   4.179295119954355e+00   3.254370000000000e-02 -2.56702430e-01  -6.23061050e-01   2.55179130e-01
C     6.099884710900000e+00   4.862259523682360e+00  -1.966794000000007e-01  1.33905874e+00   8.96401190e-01   3.41027640e-01
C     7.350342235899999e+00   4.178755283711808e+00  -2.036405999999999e-01  4.14273490e-01  -6.01711520e-01   2.38897810e-01
C     8.603945544600000e+00   4.874559199767857e+00  -1.145549999999993e-01 -4.16581570e-01   2.76317970e-01  -3.55391640e-01
C     9.821965592300000e+00   4.161690412827948e+00   3.939660000000000e-02  3.26395100e-01  -7.70448390e-01   2.72393960e-01
C     1.104583163400000e+01   4.860195559459240e+00   1.992726000000000e-01  8.45319410e-01   6.25921270e-01   3.13547600e-01
C     3.665877155900000e+00   6.290043386033608e+00   4.838040000000000e-02  1.94364102e+00   4.09378060e-01   8.72198300e-01
C     4.929945720699999e+00   7.019305279902915e+00  -8.891369999999910e-02 -1.71507640e-01  -9.87499660e-01  -8.61436500e-01
C     6.180963096499999e+00   6.295151080542325e+00  -2.548401000000027e-01 -2.65328285e+00  -6.26679430e-01   7.52817910e-01
C     7.387121169799999e+00   6.981169290588292e+00  -3.011921999999991e-01  7.33665890e-01   1.32554804e+00   4.05035850e-01
C     8.627931276399998e+00   6.303319071016968e+00  -1.768298999999978e-01 -1.43574120e-01  -9.96573780e-01   5.00397600e-02
C     9.858669294399999e+00   7.007037539716615e+00  -6.651659999999993e-02 -5.90440940e-01  -1.86333373e+00  -1.93584990e-01
C     1.108071966640000e+01   6.291152859665273e+00   1.237812000000000e-01 -6.69685560e-01  -6.18629810e-01  -2.25096100e-01
C     1.231375683920000e+01   6.972082758756315e+00   8.304510000000000e-02 -6.64489290e-01   1.74036545e+00  -3.81518300e-01
