52
Lattice="8.88768389401873 1.33226762955019e-15 0 4.44384194700937 7.69696003302603 0 0 0 30 " PBC="1 1 1" Properties=species:S:1:pos:R:3:force:R:3 Energy="-414.74767254"
C     4.431121141293339e+00   7.588950822017419e+00  -1.029863999999989e-01  3.04229690e-01   4.03612710e+00   4.98879410e-01
C     9.469219760926629e+00   7.523147663450541e+00  -5.530320000000088e-02  2.55753926e+00  -1.22129699e+00   5.17341840e-01
C     1.091935750542696e+01   7.083735065632268e+00   1.140834000000000e-01 -1.20004818e+00   1.18007351e+00  -5.61462090e-01
C     1.119164734281584e+01   5.690730003050832e+00   1.428423000000000e-01  4.63798733e+00   2.46393530e+00  -7.14031580e-01
C     7.154726938972534e+00   6.883920597800662e+00  -1.419587999999976e-01 -3.89817860e-01  -1.49029465e+00   1.88950530e-01
C     8.471021274535900e+00   6.487921702426800e+00  -9.615090000000137e-02  2.63024078e+00   3.25595320e-01   3.68834200e-02
C     8.861422387209048e+00   5.112163064245385e+00  -5.019120000000044e-02 -2.24602600e-02   5.71754250e-01   1.20640130e-01
C     1.024509252128083e+01   4.772637611277236e+00   5.683230000000000e-02 -3.31774504e+00  -3.25992282e+00  -5.48464060e-01
C     1.060523604741362e+01   3.400131092647696e+00  -3.673530000000014e-02 -2.28911585e+00  -2.99225777e+00  -5.81653480e-01
C     4.815025623749495e+00   6.330311744618894e+00   3.838170000000000e-02 -3.04379580e-01  -7.43690630e+00  -3.31150750e-01
C     6.208994539200376e+00   5.864375268598040e+00   5.230200000000000e-03 -3.04579199e+00  -6.13515630e-01  -3.91073090e-01
C     6.498835019229824e+00   4.390886404675706e+00   2.518680000000000e-02  1.78474946e+00   6.56805818e+00  -5.41916650e-01
C     7.889358135308863e+00   4.095409191536842e+00  -8.698319999999882e-02 -1.36297631e+00  -3.54053450e-01   1.08650705e+00
C     8.162220472872139e+00   2.727976124111076e+00  -1.468530000000001e-02  2.80313837e+00  -3.92151370e-01  -1.04890360e-01
C     9.543325932404462e+00   2.330351015022075e+00  -9.493439999999964e-02  1.42265367e+00  -3.14698480e-01  -1.00223660e-01
C     3.704758909380570e+00   5.216748818345822e+00   2.669010000000000e-02  1.59490370e-01   7.29514604e+00   7.73110190e-01
C     4.059270088121993e+00   3.970200664549624e+00  -1.421025000000000e-01  2.31314289e+00  -5.14310880e+00   8.35219180e-01
C     5.466381266209378e+00   3.550357356698824e+00  -6.998700000000468e-03 -1.69646993e+00  -3.07458129e+00  -2.75442710e-01
C     5.863421167659973e+00   2.144660853693522e+00   7.059600000000001e-02 -6.54121117e+00   8.41241280e-01  -1.17645377e+00
C     7.141166996340612e+00   1.771677946988568e+00   1.158552000000000e-01  3.76909726e+00  -3.01451010e+00  -7.97217280e-01
C     7.558381318070407e+00   3.456205216767053e-01   6.344909999999999e-02 -3.30393890e+00   4.50920620e-01   2.18440000e-02
C     3.054073572748966e+00   2.931019158796865e+00  -1.520180999999994e-01 -1.36777027e+00   3.63187444e+00   3.66143830e-01
C     3.314197193030088e+00   1.621132413035395e+00  -1.648619999999994e-01  2.61787741e+00  -4.57284185e+00  -5.46216350e-01
C     4.725869885997490e+00   1.201770473064872e+00  -1.190727000000003e-01  3.90052590e-01   1.32634700e-01   9.61379680e-01
C     1.043117196160426e+00   8.540102734694268e-01  -2.095002000000008e-01 -4.87800270e+00   4.62961188e+00   7.17498770e-01
C     2.316667104865065e+00   5.224190778090029e-01  -2.225642999999984e-01  4.33367642e+00   1.74767184e+00   2.82851300e-01
C     8.923292351132071e+00   1.003758248424291e-01   3.395526900000000e+00 -6.44475100e-02  -2.27190592e+00  -4.36131060e-01
C     6.857394362844682e+00   7.170181932817207e+00   3.446797200000000e+00 -3.50267670e-01  -2.30058587e+00   6.60767810e-01
C     8.197626164555562e+00   7.537816298966914e+00   3.473792100000000e+00  8.55613530e-01  -2.95804269e+00   5.44344920e-01
C     9.209833239180485e+00   6.480168477618981e+00   3.515425500000000e+00  5.92867450e-01   1.86461526e+00  -5.47370360e-01
C     1.058283326482971e+01   6.866583965029091e+00   3.415343400000000e+00  8.79945570e-01   2.26895893e+00   7.90830300e-02
C     1.167504633672076e+01   5.955428920300134e+00   3.388605000000000e+00 -2.47703700e-02   1.52015417e+00  -1.12138090e-01
C     4.170330232060929e+00   6.366806033935535e+00   3.381365700000000e+00 -8.48984970e-01   1.36235836e+00  -3.36318550e-01
C     5.187775129926703e+00   5.394650733698421e+00   3.349374300000000e+00 -1.32517960e+00  -1.99593944e+00  -3.54154400e-01
C     6.516647316193331e+00   5.710058763017368e+00   3.528399300000000e+00 -2.90194000e-02   3.79801913e+00  -6.70095520e-01
C     7.488902029880087e+00   4.757637313753170e+00   3.628011600000000e+00  2.73187676e+00  -2.93232627e+00  -9.60355420e-01
C     8.877898286740081e+00   5.131544009600925e+00   3.559251000000000e+00  7.55017110e-01  -3.95803370e-01   2.97772350e-01
C     9.990045589241966e+00   4.182714577643527e+00   3.516011400000000e+00 -2.63703539e+00   6.26521710e-01   5.91844000e-03
C     1.134785083060142e+01   4.622008873186140e+00   3.394117800000000e+00 -5.88182840e-01  -2.45990408e+00   2.20564660e-01
C     3.486718114940040e+00   3.646122471574482e+00   3.324200700000000e+00 -1.29257049e+00  -2.67052373e+00   7.43238750e-01
C     4.837830752503111e+00   3.972222040192702e+00   3.178762200000000e+00 -8.94424400e-02   1.75282575e+00   1.79911409e+00
C     5.788414804283617e+00   2.972168261661249e+00   3.339115800000000e+00  2.91894109e+00  -1.59372400e+00   1.79186680e-01
C     7.229036950536433e+00   3.316796337311687e+00   3.491227500000000e+00 -3.95477889e+00   2.98302365e+00  -3.81132450e-01
C     8.227178332279690e+00   2.383943562258160e+00   3.413206800000000e+00 -4.37188870e-01   2.65948380e-01   3.07343970e-01
C     9.547946372953490e+00   2.830857848230472e+00   3.523392300000000e+00  3.25748869e+00  -9.08054550e-01   2.15250460e-01
C     1.718638498014386e+00   1.859032208791443e+00   3.612202800000000e+00  1.12234493e+00  -3.59788300e-01  -1.34301258e+00
C     3.114017711693540e+00   2.237620041790243e+00   3.574856700000000e+00  2.50932990e-01  -2.25945140e-01  -1.11152230e+00
C     4.131087726972567e+00   1.141903902799533e+00   3.513467100000000e+00 -1.05006470e+00   4.32145898e+00  -3.19466810e-01
C     5.476625298231719e+00   1.539739138897353e+00   3.392712900000000e+00 -7.19267090e-01   2.53066487e+00  -7.26435900e-02
C     6.484083239052394e+00   6.088959631380588e-01   3.346083300000000e+00  1.02911340e+00  -2.17493126e+00   2.13674900e-01
C     7.853491396157043e+00   1.030308142351773e+00   3.310005000000000e+00  8.86112760e-01  -1.05662233e+00   7.10011520e-01
C     1.429060513861815e+00   4.587639868472981e-01   3.426646500000000e+00 -1.88224900e+00   1.02350719e+00   9.04633380e-01
