72
Lattice="7.395 0 0 3.6975 6.40425786098592 0 0 0 13.6 " PBC="1 1 1" Properties=species:S:1:pos:R:3:force:R:3 Energy="-583.48806626"
C     3.667481994150000e+00   6.294151247805221e+00   1.353371251200000e+01  3.93337370e-01  -5.65584170e-01   3.35412000e-02
C     1.187382538050000e+00   6.084869835412368e-01   1.353974860000000e+01  8.90177530e-01  -6.65500090e-01   1.11291900e-02
C     1.302043824825000e+00   8.424737812677187e-01   3.456087760000000e+00 -1.39204490e-01   7.44523470e-01  -1.30960000e-02
C     2.534083880475000e+00   1.556373440247826e+00   3.467460760000000e+00  1.90251650e-01   1.90050770e-01  -1.63699800e-02
C     6.120053932499999e+00   6.284144722984129e+00   1.354393495200000e+01  8.89579570e-01   7.24504300e-02  -6.17439100e-02
C     3.674091423299999e+00   5.949997445732340e-01   1.351664968000000e+01 -4.31471900e-02  -4.57308900e-02   2.40242980e-01
C     3.771630253125000e+00   8.569033427372418e-01   3.484177472000000e+00  1.21578580e-01  -7.55384300e-02  -3.57022300e-02
C     5.011094629950000e+00   1.591001582709739e+00   3.491712688000000e+00 -3.95181470e-01  -8.24075300e-01  -1.36299400e-01
C     8.620510418549999e+00   6.284487094609323e+00   1.352836336000000e+01 -2.46291150e-01   2.43683900e-02  -3.77036000e-02
C     6.169510657199999e+00   6.181620239754960e-01   1.355352308800000e+01 -1.67640355e+00  -7.03788850e-01  -4.51487400e-02
C     6.231485120249999e+00   8.722391707365337e-01   3.468427584000000e+00  2.73755580e-01  -7.23332670e-01   5.29404300e-02
C     7.467570499724999e+00   1.579993239831607e+00   3.447064024000000e+00 -3.02143360e-01  -5.12528990e-01   7.75640300e-02
C     1.199150090625000e+00   2.023611570728148e+00   1.354035135200000e+01  6.24129280e-01  -4.69896310e-01   4.10375500e-02
C     2.443630532925000e+00   2.722075687414083e+00   1.350952396000000e+01 -3.25305950e-01   3.85426400e-02   6.80637700e-02
C     2.541077516850000e+00   2.989873124086649e+00   3.468236232000000e+00 -2.80886880e-01  -5.37653550e-01   5.09568000e-03
C     3.767785333800000e+00   3.692111013759169e+00   3.496131192000000e+00  1.83312870e-01   3.27817080e-01  -1.59540620e-01
C     3.666908918624999e+00   2.040919589935426e+00   1.352335760800000e+01  9.29905780e-01  -1.36175640e+00   1.52125080e-01
C     4.911530568449999e+00   2.749152825603585e+00   1.358961599200000e+01 -2.97515770e-01  -8.99068690e-01  -1.78393360e-01
C     5.015500792799999e+00   3.001343662254538e+00   3.493277912000000e+00 -5.36359110e-01   1.77569630e-01   8.40317000e-03
C     6.234807102149999e+00   3.726034367643588e+00   3.480186008000000e+00 -1.94479710e-01  -7.35524750e-01  -1.18770670e-01
C     6.157258103549999e+00   2.038468104069197e+00   3.858320000000000e-03 -1.01727615e+00  -7.21683970e-01  -1.40264800e-01
C     7.375158808275000e+00   2.713852107981214e+00   1.359677911200000e+01  9.55960400e-02   1.20151634e+00  -1.33743970e-01
C     7.446300557025000e+00   2.997827532561662e+00   3.446615632000000e+00  1.24846817e+00   1.96431010e-01   9.91895500e-02
C     8.706571653750000e+00   3.698748002349801e+00   3.450350872000000e+00 -6.21016050e-01  -1.02319840e-01   1.27221540e-01
C     2.457966664800000e+00   4.129633900109718e+00   1.349629891200000e+01 -5.88079050e-01   7.07277200e-01   1.57908230e-01
C     3.674204234025000e+00   4.849522885083076e+00   1.351626344000000e+01 -1.67118980e-01   8.89280690e-01   1.83121570e-01
C     3.757305694425000e+00   5.113116502853760e+00   3.482119520000000e+00  1.77435370e-01   3.83540800e-01  -2.22865200e-02
C     4.995158737725000e+00   5.834569983979738e+00   3.470206872000000e+00 -3.67126070e-01  -1.20761970e-01   2.27208800e-02
C     4.894755269775000e+00   4.150833338520469e+00   1.358616172800000e+01  8.06191310e-01   2.84894510e-01  -1.71767970e-01
C     6.144273223050000e+00   4.846829318269739e+00   1.358682608800000e+01 -5.08855260e-01   9.23388730e-01  -3.25622500e-02
C     6.225684519225000e+00   5.135734676508236e+00   3.474947696000000e+00  2.11251200e-01   6.87826000e-02   7.06626000e-03
C     7.460589471824999e+00   5.825822920509392e+00   3.477365231999999e+00  2.63862510e-01   8.21713870e-01  -8.51116000e-03
C     7.366349514525000e+00   4.137667593297038e+00   1.358792891200000e+01  7.47779790e-01   4.24609240e-01  -2.48631270e-01
C     8.617208514074999e+00   4.840201487767846e+00   1.351421555200000e+01 -3.97342010e-01   9.10182710e-01   2.64547950e-01
C     8.695249982699998e+00   5.115869245009724e+00   3.478471047999999e+00  2.47075600e-02   1.38139460e-01  -1.25889940e-01
C     9.922878107399999e+00   5.829685008211865e+00   3.477095408000000e+00  1.65574090e-01   6.15860950e-01  -9.35550000e-03
C     7.423455072599999e+00   9.902698992666480e-02   6.995347272000000e+00 -1.50551350e-01   9.00839000e-02  -4.02526090e-01
C     1.255440645750000e+00   8.059252580439061e-01   6.928090784000000e+00  8.45624220e-01   1.87493050e-01  -2.08578330e-01
C     1.139047671825000e+00   5.931548700115038e-01   1.006326301600000e+01  7.94184100e-01  -5.76775350e-01   1.77425190e-01
C     2.388917848950000e+00   1.307240444597287e+00   1.009360869600000e+01 -4.49170440e-01  -5.80685930e-01  -1.29052800e-02
C     2.503940825174999e+00   8.633624850871020e-02   6.852639480000001e+00 -5.02444920e-01   6.16380690e-01   1.20252300e-01
C     3.725762654700000e+00   8.203960629340477e-01   6.816973615999999e+00  3.31619100e-02   5.97655100e-02   2.66470060e-01
C     3.622836456450000e+00   5.968081789077408e-01   1.015320484800000e+01 -1.13388910e-01  -5.13984500e-01  -2.52602260e-01
C     4.855834238550000e+00   1.296085892512211e+00   1.011018233600000e+01 -5.50671540e-01  -5.79200000e-04  -6.45650600e-02
C     4.953414332475000e+00   9.432338274138781e-02   6.891346304000001e+00 -2.75015340e-01   1.67083880e-01   1.42088000e-03
C     6.177070861499999e+00   7.948972540941432e-01   6.962762488000000e+00  5.83609030e-01   5.58019410e-01  -3.14403110e-01
C     6.069812339475000e+00   5.729619888086095e-01   1.009370716000000e+01  3.54118560e-01   3.48607330e-01   2.34607000e-02
C     7.303590996600000e+00   1.270218838845356e+00   1.004614564800000e+01 -1.93245000e-03   1.09588210e+00   1.80982380e-01
C     8.669907539550000e+00   2.239801704372633e+00   6.909011616000000e+00 -2.96895950e-01  -3.22875290e-01  -1.25303130e-01
C     2.496682817550000e+00   2.973013915270199e+00   6.855632024000000e+00  2.26763550e-01  -5.93660150e-01   1.85408250e-01
C     2.381096823000000e+00   2.717029708603611e+00   1.005145821600000e+01  1.28552090e-01   2.93961280e-01   1.86428300e-01
C     3.619134926175000e+00   3.424632509128030e+00   1.003225080000000e+01 -4.33334320e-01   3.52603340e-01   1.85103320e-01
C     3.733477303575000e+00   2.262245874341053e+00   6.816198823999999e+00 -4.38791740e-01  -9.61385340e-01   1.78228640e-01
C     4.964852363850000e+00   2.946117953535557e+00   6.855999904000000e+00  3.32580850e-01   5.04825500e-01   8.45710700e-02
C     4.840496712749999e+00   2.709344086830982e+00   1.003868849600000e+01  7.06278320e-01   5.61656120e-01   3.09756550e-01
C     6.083623056600000e+00   3.426366718113940e+00   1.005672087200000e+01 -2.14254630e-01   3.37297910e-01   5.12937300e-02
C     6.190972722000000e+00   2.220426774983617e+00   6.915160312000000e+00  3.23961200e-02   2.52015130e-01  -7.45669000e-02
C     7.429528992825000e+00   2.939830445296345e+00   6.926704264000000e+00  1.34844030e-01  -3.75482970e-01  -2.11718910e-01
C     7.311684195524999e+00   2.706377698632808e+00   1.004515937600000e+01 -2.06860660e-01   3.10296000e-03   2.79231340e-01
C     8.539039185900000e+00   3.424185427886824e+00   1.007156908000000e+01  1.96056220e-01  -3.97058200e-02   7.41827100e-02
C     9.901335658950000e+00   4.388860198275353e+00   6.928604183999999e+00 -2.70824640e-01  -4.62920330e-01  -2.09634060e-01
C     3.732431391750000e+00   5.087298057504062e+00   6.960833328000000e+00  5.77896290e-01   2.10472700e-02  -3.41659040e-01
C     3.609459899775000e+00   4.856487899761298e+00   1.004024501600000e+01  2.43520380e-01  -1.05920830e-01   2.66219310e-01
C     4.844168071425000e+00   5.569390671962918e+00   1.006167440000000e+01  1.92022310e-01   4.35678600e-02   1.42841710e-01
C     4.976914792050000e+00   4.383452442938369e+00   6.887817512000000e+00 -6.12040420e-01  -8.09387410e-01   3.75332400e-02
C     6.203677479900000e+00   5.068132803517384e+00   6.868256495999999e+00  6.84759620e-01   3.66826700e-01   6.65722500e-02
C     6.089061598424999e+00   4.866486867558116e+00   1.009587867200000e+01 -1.77925020e-01  -6.54083670e-01   1.62276100e-02
C     7.330317968625000e+00   5.565765349673529e+00   1.016026800800000e+01 -6.81779700e-01   3.34076160e-01  -1.94198780e-01
C     7.454801959950000e+00   4.353997980188657e+00   6.888070336000000e+00 -1.25815028e+00   2.28586050e-01  -3.05823100e-02
C     8.662662879899999e+00   5.075778590806123e+00   6.914285152000000e+00  1.59640550e-01   3.46861010e-01  -9.51886400e-02
C     8.549945775599999e+00   4.846908859152360e+00   1.013406910400000e+01 -2.05843930e-01   8.63572000e-03  -1.55079320e-01
C     9.768858892799999e+00   5.572796520335445e+00   1.010112528000000e+01  3.75539280e-01  -9.12941940e-01  -5.63291000e-03
