32
Lattice="9.86 0 0 4.93 8.53901048131456 0 0 0 30 " PBC="1 1 1" Properties=species:S:1:pos:R:3:force:R:3 Energy="-256.77517973"
C     9.828736207800000e+00   3.285865882371072e-01   3.623217000000000e+00  5.36842000e-01  -1.22407146e+00   3.61710260e-01
C     1.214381264000000e+00   1.010014653199552e+00   3.659917800000000e+00 -8.88538900e-01   2.53239570e-01  -2.17909100e-01
C     2.423521050600000e+00   2.891928880688848e-01   3.710235600000000e+00  6.40717410e-01   4.07591130e-01  -8.13331300e-02
C     3.671216148700000e+00   9.699152038151576e-01   3.640092300000000e+00  9.85825320e-01  -7.88608950e-01  -2.99402300e-02
C     4.920537259400001e+00   2.559771619829424e-01   3.624476400000000e+00 -1.88405470e-01   6.26988780e-01   5.50287710e-01
C     6.137203874200000e+00   1.013745176098054e+00   3.655934400000000e+00 -9.40095300e-02  -4.92437740e-01   1.23692750e-01
C     7.392685710100000e+00   2.483747955624936e-01   3.616771200000000e+00 -1.46048889e+00   2.06116735e+00   2.73328470e-01
C     8.593010163699999e+00   9.988766240997544e-01   3.651597000000000e+00  3.45528010e-01   1.32305740e-01  -5.95681680e-01
C     1.105125374660000e+01   2.426963365152726e+00   3.569458500000000e+00  1.74611906e+00  -8.72186800e-02  -9.10976800e-02
C     2.461442659900000e+00   3.109696959427458e+00   3.525796800000000e+00 -9.20737800e-01   6.75578960e-01  -1.40388820e-01
C     3.718012645400000e+00   2.357985238495286e+00   3.578901900000000e+00 -2.68511282e+00   2.80457898e+00   1.12076050e-01
C     4.857951205200000e+00   3.167665825263139e+00   3.652968000000000e+00  2.14406229e+00  -7.52173310e-01  -2.63238200e-02
C     6.080844163500000e+00   2.465647388159956e+00   3.743664600000000e+00  2.68872193e+00  -1.29576500e+00  -1.02115205e+00
C     7.401933847799999e+00   3.138381801162608e+00   3.662877000000000e+00 -2.78637004e+00  -2.94261980e-01   2.54195370e-01
C     8.599985176999999e+00   2.421468853469266e+00   3.611673900000000e+00  3.60430370e-01   2.51162520e-01   1.86538740e-01
C     9.841162322099999e+00   3.145498981007583e+00   3.551739600000000e+00 -4.60299800e-02  -2.06467570e-01   2.47126650e-01
C     1.228242890770000e+01   4.567441989410300e+00   3.461766300000000e+00  2.17702740e+00  -1.15602682e+00   6.06792580e-01
C     3.720095866200000e+00   5.247190687181643e+00   3.580631700000000e+00 -3.57969125e+00   1.83997743e+00  -5.69937030e-01
C     4.911648124300000e+00   4.607522396801324e+00   3.631136700000000e+00  6.54096500e-02  -3.13570318e+00   4.51026830e-01
C     6.122993099900000e+00   5.262167513832829e+00   3.754823700000000e+00  1.35581329e+00   1.22809070e+00  -3.66854610e-01
C     7.364626368600000e+00   4.545638053100144e+00   3.658813800000000e+00  4.01428440e-01   6.46809990e-01   7.31524600e-01
C     8.586987725000000e+00   5.261275272627774e+00   3.666702900000000e+00  1.36701839e+00   5.89469260e-01  -4.28444710e-01
C     9.891635612800000e+00   4.563394071492256e+00   3.576399900000000e+00 -3.32464301e+00   3.19500030e-01  -3.15846580e-01
C     1.106763731980000e+01   5.306859413833577e+00   3.475235700000000e+00  1.02319535e+00  -1.43407987e+00   7.96284260e-01
C     1.354770413930000e+01   6.661284380980830e+00   3.595995300000000e+00 -2.37156300e-01   1.67039328e+00  -2.63023150e-01
C     4.910788233700000e+00   7.439106261208221e+00   3.627403800000000e+00 -5.21379510e-01  -1.34908685e+00   8.73723720e-01
C     6.123906579600000e+00   6.696632554153942e+00   3.808790100000000e+00  6.78098200e-01   5.24039040e-01  -9.24863890e-01
C     7.374249531399999e+00   7.429398174803405e+00   3.792273600000001e+00 -7.05220490e-01  -1.36669133e+00  -4.28973460e-01
C     8.593934686599999e+00   6.705707643711877e+00   3.678657000000000e+00  3.82206960e-01  -1.13340966e+00   5.88590380e-01
C     9.861368617299998e+00   7.366806288693851e+00   3.659414100000000e+00 -1.86463677e+00   1.78548113e+00  -2.25005190e-01
C     1.106416378970000e+01   6.706148171262540e+00   3.610841400000000e+00  7.00363580e-01  -1.02269773e+00  -7.21820190e-01
C     1.228647486010000e+01   7.383959452946076e+00   3.572766600000000e+00  1.70361311e+00  -7.76737400e-02   2.91696960e-01
