32
Lattice="9.86 0 0 4.93 8.53901048131456 0 0 0 30 " PBC="1 1 1" Properties=species:S:1:pos:R:3:force:R:3 Energy="-257.2594149"
C     9.766764037200000e+00   1.802619097589710e+00   3.676118400000000e+00 -2.47957960e-01  -8.93308740e-01   1.39613480e-01
C     1.100033823490000e+01   2.481099923084983e+00   3.770466900000000e+00  1.03699512e+00  -7.89379400e-02  -7.17835140e-01
C     2.408139598500000e+00   1.768613769204682e+00   3.728814300000000e+00 -9.94236020e-01  -4.23995600e-02   4.05285450e-01
C     3.637839703600000e+00   2.453782518488101e+00   3.650849700000000e+00 -9.61176490e-01   2.01499076e+00  -3.39998920e-01
C     4.848759072300000e+00   1.753243379560473e+00   3.533499300000000e+00  5.59631900e-01   9.29990910e-01   5.33252770e-01
C     6.086342346000000e+00   2.462376349415383e+00   3.478921500000000e+00 -1.61616660e-01   3.98574830e-01   8.47104900e-02
C     7.321833672800000e+00   1.756825579846938e+00   3.472170600000000e+00 -9.61803950e-01  -1.19124647e+00   4.11348330e-01
C     8.512917038599999e+00   2.471046519096355e+00   3.563576400000000e+00  1.62105037e+00   1.34896410e+00  -4.01049090e-01
C     1.101147919680000e+01   3.876856945779418e+00   3.648130800000000e+00  1.08616100e-01   1.54509563e+00  -2.73823050e-01
C     1.225374217440000e+01   4.617202646031976e+00   3.594213600000000e+00 -1.14702699e+00  -4.67315000e-02   4.94626600e-02
C     3.586644562300000e+00   3.912833931684278e+00   3.599172000000000e+00  2.87695721e+00  -9.56573470e-01  -8.90089000e-03
C     4.880816298700000e+00   4.628645176245491e+00   3.534701700000000e+00 -2.03748288e+00  -1.96296072e+00   3.03679490e-01
C     6.085575139400000e+00   3.903547672397173e+00   3.513629100000000e+00 -1.33490740e-01  -1.56205607e+00  -5.71843230e-01
C     7.300706453600000e+00   4.585270845561807e+00   3.431383200000000e+00  6.75259590e-01   1.39403920e+00   5.72399860e-01
C     8.550536044499999e+00   3.913717206928329e+00   3.468383700000000e+00 -4.53521170e-01  -1.21951302e+00   2.63035990e-01
C     9.787946866800000e+00   4.602669420975226e+00   3.498997800000000e+00 -3.27493200e-01   3.86313270e-01   2.61748740e-01
C     1.225995855930000e+01   6.042303465900302e+00   3.516387900000000e+00 -1.24609705e+00   5.73185450e-01   9.02308500e-02
C     1.349144786000000e+01   6.749176842801993e+00   3.570439800000000e+00  7.05141400e-02  -6.63908630e-01  -3.14577580e-01
C     4.877284643899999e+00   6.002722590622358e+00   3.570075000000000e+00 -1.29189374e+00   2.48352901e+00   2.99011500e-02
C     6.071459809900000e+00   6.752726253288215e+00   3.592714800000000e+00  4.18528950e-01   7.54857300e-02   3.47883710e-01
C     7.279199575099999e+00   6.011419060455609e+00   3.514454100000000e+00  9.48070640e-01   1.03438665e+00  -3.50875050e-01
C     8.520503618399999e+00   6.745194077533911e+00   3.480667500000000e+00  5.21987700e-02  -5.54435970e-01   3.59525740e-01
C     9.753538671299999e+00   6.043960546274050e+00   3.459703800000000e+00  5.66657310e-01  -7.28119470e-01  -1.19316100e-01
C     1.097510048030000e+01   6.764401471537310e+00   3.458016600000000e+00  1.30479355e+00  -6.40411130e-01   2.23507190e-01
C     1.347283972290000e+01   8.174124472822308e+00   3.554145000000000e+00  1.32828218e+00  -4.56169350e-01   2.34552930e-01
C     9.777439262000000e+00   3.897564729314256e-01   3.655535100000000e+00 -2.98461350e-01  -1.36842352e+00   2.35520720e-01
C     6.067333104100000e+00   8.187701328705298e+00   3.733670400000000e+00  7.34234050e-01   1.28750910e-01  -7.69768470e-01
C     2.402154923600000e+00   3.594409363649104e-01   3.726414600000000e+00 -4.47194430e-01  -1.29932408e+00  -3.22238750e-01
C     8.566418285999999e+00   8.155829215918384e+00   3.584687100000000e+00 -1.34034372e+00   9.54808920e-01   3.56965390e-01
C     4.848765333399999e+00   3.602323318561968e-01   3.577061700000000e+00 -2.80407760e-01  -1.18027058e+00  -8.01486260e-01
C     1.098357658000000e+01   8.185672203644936e+00   3.465615300000000e+00  1.22202012e+00  -9.81622910e-01   3.85355910e-01
C     7.324349599700000e+00   2.899577272375784e-01   3.501029100000000e+00 -1.19360589e+00   2.55829775e+00  -2.96268310e-01
