32
Lattice="9.86 0 0 4.93 8.53901048131456 0 0 0 30 " PBC="1 1 1" Properties=species:S:1:pos:R:3:force:R:3 Energy="-256.64998517"
C     4.972766616099999e+00   8.367680272734983e+00  -5.968413000000012e-01 -1.71246519e+00  -1.32946548e+00   2.18571210e-01
C     1.246747502800000e+00   5.526606408250928e-01  -5.721401999999998e-01  1.03117619e+00  -1.36787340e+00  -1.06452070e-01
C     7.393734666200000e+00   8.317101237348904e+00  -6.183771000000000e-01  1.35237046e+00   2.32459841e+00   2.03823790e-01
C     3.721577922799999e+00   5.080070809814000e-01  -5.500614000000006e-01 -3.99493380e-01  -4.38001400e-02   8.00143470e-01
C     9.892194872000001e+00   8.325663644717620e+00  -4.485330000000012e-01 -1.41860305e+00   1.07043388e+00  -3.23241560e-01
C     6.167021450899999e+00   5.057392051880168e-01  -4.546694999999978e-01  9.53849060e-01   2.55330900e-01  -3.79462870e-01
C     1.231692145550000e+01   8.295171094463853e+00  -4.557372000000015e-01  1.60707561e+00   1.56887504e+00   1.09137440e-01
C     8.637270471199999e+00   4.878128335368288e-01  -6.031292999999991e-01 -8.07752100e-02   4.01769310e-01   6.04951940e-01
C     1.296318603500000e+00   1.957609395960618e+00  -3.965166000000018e-01 -2.11055182e+00  -3.41708700e-02  -2.16564090e-01
C     2.482318892800000e+00   2.642930993531629e+00  -2.310312000000003e-01  1.63918282e+00   1.29727409e+00  -1.19917170e-01
C     3.732375707400000e+00   1.944071904915941e+00  -3.773513999999984e-01 -1.11273740e+00  -6.74693320e-01  -2.21406340e-01
C     4.924198523899999e+00   2.673642142453683e+00  -4.357860000000002e-01  1.69808864e+00  -2.58404360e-01  -1.52014600e-02
C     6.198489049299999e+00   1.949550790210223e+00  -5.492838000000013e-01 -2.43597332e+00  -6.51048780e-01   3.20194240e-01
C     7.391967014700000e+00   2.643130037865918e+00  -6.131184000000012e-01  2.06307457e+00   6.97973530e-01   2.01978560e-01
C     8.637144312500000e+00   1.904781441384422e+00  -5.943012000000003e-01  1.06628514e+00   1.84219973e+00   1.59833330e-01
C     9.921176665799999e+00   2.687844993194962e+00  -4.421372999999988e-01 -2.00817665e+00  -1.61996856e+00  -1.21432300e-02
C     2.472216041000000e+00   4.089482576236658e+00  -7.893209999999939e-02  7.40935670e-01  -9.97649270e-01  -6.04124990e-01
C     3.707651954600000e+00   4.796242298908862e+00  -1.884297000000004e-01 -5.04794200e-02  -8.89840440e-01   9.76303100e-02
C     4.903787042099999e+00   4.101448889353015e+00  -3.913007999999998e-01  2.36188233e+00  -4.27849990e-01  -2.49784750e-01
C     6.180521664300000e+00   4.823348106826049e+00  -5.628761999999981e-01 -4.33010360e-01  -1.07223824e+00  -1.82615870e-01
C     7.430208137300000e+00   4.087789034288160e+00  -6.071898000000004e-01 -1.16879872e+00  -2.37994860e-01   2.49634340e-01
C     8.658855588800000e+00   4.794099861179428e+00  -4.967091000000003e-01 -5.42147720e-01   3.52153110e-01   8.18137800e-02
C     9.872257311100000e+00   4.101273668857965e+00  -3.109016999999987e-01  1.16504964e+00  -7.44955710e-01  -2.36549070e-01
C     1.112900847410000e+01   4.804314823246338e+00  -1.289505000000020e-01 -2.10736014e+00  -2.25440270e-01  -3.83469240e-01
C     3.757412515200000e+00   6.182842855275487e+00  -2.307486000000019e-01 -8.95266370e-01   1.99647709e+00  -7.20203370e-01
C     4.944690512599999e+00   6.904844028533651e+00  -5.180633999999991e-01  9.76982830e-01   1.56710090e+00  -1.51153020e-01
C     6.182680609900000e+00   6.245514666523132e+00  -6.740259000000002e-01  2.07775800e-02  -1.61450759e+00   1.01104351e+00
C     7.435947298200000e+00   6.918733070639790e+00  -6.635318999999988e-01 -1.25172841e+00   2.94287980e-01   9.19789000e-03
C     8.642152502299998e+00   6.224444487383522e+00  -5.085585000000030e-01  1.64265120e-01  -9.21808260e-01  -1.69248200e-01
C     9.858049691999998e+00   6.920451802669205e+00  -3.831338999999971e-01  6.30769080e-01  -1.47996440e-01   1.39890600e-02
C     1.106188223500000e+01   6.209297222083156e+00  -2.166042000000026e-01  3.27215601e+00   5.94176000e-01   4.10477880e-01
C     1.239607571140000e+01   6.918315171466899e+00  -2.235942000000009e-01 -3.01635360e+00  -1.00294400e+00  -4.00883430e-01
