32
Lattice="9.86 0 0 4.93 8.53901048131456 0 0 0 30 " PBC="1 1 1" Properties=species:S:1:pos:R:3:force:R:3 Energy="-256.87493879"
C     9.868518103299998e+00   1.914232674354000e-02   3.685083000000000e+00 -8.29930800e-01   2.92555054e+00   3.29096550e-01
C     1.212356167900000e+00   8.272860624052024e-01   3.673750500000000e+00  9.68079700e-02  -2.31243076e+00   3.72604340e-01
C     2.464569019399999e+00   9.330593829516960e-02   3.849022500000000e+00 -1.36405784e+00   7.82178760e-01  -5.37885540e-01
C     3.664269630800000e+00   8.372069409511808e-01   3.806265600000000e+00  7.24204180e-01  -1.81035521e+00   1.80013680e-01
C     4.901679269900000e+00   8.189756412357521e-02   3.848048400000001e+00 -4.66398230e-01   6.43145600e-02  -2.68942550e-01
C     6.128257945500000e+00   7.899386507084072e-01   3.828376200000000e+00 -4.75313580e-01   3.59528590e-01  -1.78331500e-02
C     7.352655046800000e+00   1.610561552455856e-01   3.823331100000000e+00  1.08810878e+00  -3.63101689e+00  -5.28621880e-01
C     8.610587487100000e+00   7.723752723927241e-01   3.717993000000000e+00  6.44886980e-01   1.02554554e+00   2.33001100e-02
C     1.103774214490000e+01   2.228910324590550e+00   3.578014200000000e+00  1.23180147e+00   5.21438700e-01   2.33196120e-01
C     2.454647493000000e+00   2.938968069280443e+00   3.630217200000000e+00 -1.90537971e+00   4.61709940e-01  -1.78410040e-01
C     3.636462853200000e+00   2.242590246330034e+00   3.714415800000000e+00  2.56945190e+00  -2.93026000e-01   1.39963980e-01
C     4.919479330700000e+00   2.931968556999882e+00   3.754338300000000e+00 -6.68052230e-01   6.02088400e-02  -9.91089900e-02
C     6.158059302500000e+00   2.177225231176996e+00   3.795206400000000e+00 -1.62215044e+00   2.98659911e+00   3.61214260e-01
C     7.355555365800000e+00   2.943778093883827e+00   3.838797300000000e+00  1.11089465e+00  -1.01863191e+00  -9.47883590e-01
C     8.595677638799998e+00   2.216404175231646e+00   3.698463000000000e+00 -9.80681600e-02  -2.58983570e-01   2.54921030e-01
C     9.805266794900000e+00   2.930868732450058e+00   3.588546300000000e+00  2.08426070e-01   5.65969060e-01   3.02254000e-02
C     1.232605585810000e+01   4.367466219858342e+00   3.644805000000000e+00 -1.40224534e+00  -1.24638224e+00  -8.44435100e-02
C     3.629901713400000e+00   5.101520974919969e+00   3.765891000000000e+00  2.53592967e+00   5.63211500e-02  -2.25792710e-01
C     4.910946535999999e+00   4.363238982720217e+00   3.767583300000000e+00 -3.58753780e-01   1.82519440e-01   7.83333150e-01
C     6.160083609799999e+00   5.062112587653721e+00   3.929709900000000e+00 -1.15560489e+00   3.14483290e-01  -9.12249380e-01
C     7.381611500400000e+00   4.368993934223319e+00   3.838968900000000e+00  2.44216500e-01  -2.35244910e-01   8.36035430e-01
C     8.620583062100000e+00   5.104586052731765e+00   3.848114400000000e+00 -6.22623580e-01  -1.57995653e+00  -8.12805440e-01
C     9.823457804700000e+00   4.368752365616839e+00   3.615316800000000e+00 -3.64669600e-01  -7.89644360e-01   6.86113390e-01
C     1.106902851650000e+01   5.009687588982076e+00   3.621567600000000e+00  3.65820940e-01   2.58111120e+00   4.82172520e-01
C     1.350173336830000e+01   6.544130011096278e+00   3.798723000000000e+00  9.75889790e-01  -1.76211546e+00  -2.28795150e-01
C     4.929337802400000e+00   7.164394424842055e+00   3.807334500000000e+00 -1.42353682e+00   1.06263711e+00  -3.54627000e-03
C     6.129842102400000e+00   6.488558557842961e+00   3.920788200000000e+00  1.62092440e+00  -8.37039900e-01   1.19153330e-01
C     7.372553956499999e+00   7.206911780433965e+00   3.949164600000000e+00 -7.55564180e-01   6.23023210e-01  -2.69996040e-01
C     8.589662841599999e+00   6.507039367444616e+00   3.910664400000000e+00  5.99067430e-01  -3.29941670e-01  -1.99488230e-01
C     9.822133458800000e+00   7.183105104605830e+00   3.814463700000000e+00  1.10295290e+00   6.72476010e-01   4.26375450e-01
C     1.107974712530000e+01   6.448081171854723e+00   3.758307600000000e+00 -6.72081580e-01   1.31070305e+00  -4.26205100e-01
C     1.229331000930000e+01   7.248177231699405e+00   3.763399500000000e+00 -9.34952870e-01  -4.51548720e-01   4.84288830e-01
