32
Lattice="9.86 0 0 4.93 8.53901048131456 0 0 0 30 " PBC="1 1 1" Properties=species:S:1:pos:R:3:force:R:3 Energy="-257.04754843"
C     9.773147253299999e+00   1.808864273684468e+00   3.712042200000000e+00 -9.54551610e-01  -1.61454470e+00   2.25927790e-01
C     1.098060921300000e+01   2.498814356496058e+00   3.630675600000000e+00 -8.72377100e-02   2.01523868e+00   5.11219000e-02
C     2.328159814100000e+00   1.826584428232564e+00   3.545178300000000e+00  1.16731171e+00  -1.30814111e+00   1.12080160e-01
C     3.575307780800000e+00   2.525225345130488e+00   3.487712400000000e+00  6.62151290e-01  -7.62168400e-01   5.90310020e-01
C     4.795796279500000e+00   1.799956207171522e+00   3.591524100000000e+00  1.62139372e+00  -6.92420090e-01  -3.22515410e-01
C     6.066896306100000e+00   2.485703303634752e+00   3.686463300000000e+00 -6.56424420e-01   1.68773290e+00   5.70389810e-01
C     7.312187634799999e+00   1.787477724206574e+00   3.789371100000000e+00 -4.92916710e-01   3.32248120e-01  -5.04870620e-01
C     8.561475911700001e+00   2.504500739745004e+00   3.841192200000001e+00 -1.41570756e+00   5.42896560e-01  -2.34489420e-01
C     1.097529733520000e+01   3.954223283991781e+00   3.655149300000000e+00  2.62798240e-01  -1.53278288e+00  -4.52701930e-01
C     1.220743922000000e+01   4.632340603810920e+00   3.488999400000000e+00  6.86469550e-01   1.02612502e+00   6.25148660e-01
C     3.648710698700000e+00   3.927091859043152e+00   3.510956700000000e+00 -3.50204954e+00   4.31552090e-01  -3.20383700e-02
C     4.818546356100000e+00   4.641767927551155e+00   3.683568300000000e+00  1.36666847e+00   5.15409700e-01  -7.52550860e-01
C     6.052957914300000e+00   3.950059918652047e+00   3.768205500000000e+00  1.17793853e+00  -9.61637230e-01   2.76919400e-01
C     7.314127096800000e+00   4.675394806991709e+00   3.912469800000000e+00 -1.28877728e+00  -7.30108310e-01  -9.46532830e-01
C     8.535207885700000e+00   3.943743954160410e+00   3.886856100000000e+00 -9.78368190e-01  -8.87699440e-01   7.75420000e-02
C     9.732486683899999e+00   4.637482539751661e+00   3.795040800000000e+00  2.01537732e+00   1.03838153e+00  -2.79276030e-01
C     1.219088235730000e+01   6.079579149909065e+00   3.516468600000000e+00  2.04371588e+00  -1.00864084e+00   2.51707640e-01
C     1.347934609040000e+01   6.762398988189645e+00   3.544710000000000e+00 -2.45152581e+00   2.03375960e-01   1.14031820e-01
C     4.813132378000000e+00   6.070636329623466e+00   3.620920500000000e+00  9.64078330e-01  -8.21661980e-01   5.97179440e-01
C     6.034061865199999e+00   6.779438925162903e+00   3.744266700000000e+00  1.16014611e+00  -6.28415010e-01  -3.26994330e-01
C     7.300152863899999e+00   6.099471628723272e+00   3.807359100000000e+00 -1.76715160e-01  -7.24587660e-01   8.07895160e-01
C     8.537814425999999e+00   6.801188980316931e+00   3.829639200000000e+00  2.82010500e-02  -2.05830490e-01  -6.34662480e-01
C     9.782584456500000e+00   6.055361662286737e+00   3.760677900000000e+00 -1.25379157e+00   1.36185942e+00   2.00996440e-01
C     1.100095823170000e+01   6.807795527335203e+00   3.645550500000000e+00 -8.11960230e-01  -2.32365131e+00  -1.23274700e-01
C     1.344715447220000e+01   8.166051948484832e+00   3.641925600000000e+00 -6.67751360e-01   1.76467959e+00  -1.06693200e-01
C     9.726565359500000e+00   3.606720055058120e-01   3.668231700000000e+00  1.33918533e+00   8.24444400e-02   1.82841570e-01
C     6.058311450600000e+00   8.171473878579212e+00   3.700191000000000e+00 -1.06380228e+00   2.09701871e+00  -2.01819700e-01
C     2.341101705000000e+00   3.915732328011504e-01   3.659619000000000e+00  4.93672280e-01  -2.51386940e-01  -7.97388900e-02
C     8.518365871800000e+00   8.227477149592501e+00   3.710415600000000e+00  7.56796100e-02  -5.84895150e-01  -2.62531410e-01
C     4.838375161199999e+00   3.532735506556256e-01   3.601788600000000e+00 -1.50605725e+00   1.57453768e+00   6.29370600e-01
C     1.098033860530000e+01   8.191052890318698e+00   3.647393100000000e+00  1.55977950e-01   1.52360027e+00  -1.43378350e-01
C     7.256144577999999e+00   3.822916699698096e-01   3.675254400000000e+00  2.08687132e+00  -1.15852914e+00   9.06061300e-02
