32
Lattice="9.86 0 0 4.93 8.53901048131456 0 0 0 30 " PBC="1 1 1" Properties=species:S:1:pos:R:3:force:R:3 Energy="-257.26130117"
C     5.051601309400000e+00   6.784749848121045e+00  -8.673179999999903e-02 -8.53444740e-01  -1.94996330e-01  -1.52080400e-02
C     6.286973428800000e+00   7.498085462763896e+00  -1.734387000000019e-01 -9.62326360e-01  -6.36519810e-01  -5.95540540e-01
C     7.505250970399999e+00   6.779012657759742e+00  -2.426934000000003e-01 -1.10983306e+00  -4.27366740e-01   2.53798510e-01
C     8.701335377499998e+00   7.489513235533129e+00  -2.475251999999983e-01  1.52013916e+00  -2.92073940e-01   6.98683500e-01
C     9.928855535200000e+00   6.763238543700039e+00  -8.552219999999977e-02 -5.12778910e-01  -9.74152020e-01  -5.76364620e-01
C     1.113335855820000e+01   7.455745120859235e+00  -2.413109999999818e-02  1.57535018e+00   8.59197680e-01  -3.20476200e-02
C     1.239565306250000e+01   6.752790295866815e+00  -6.554699999998803e-03  8.54039330e-01   1.99927615e+00   5.56128500e-02
C     1.366822725770000e+01   7.499010493769194e+00  -3.289410000000004e-02 -9.31944300e-01  -4.44304590e-01  -2.70532630e-01
C     1.328306316900000e+00   3.641518230566216e-01  -2.855691000000000e-01 -1.11746283e+00   2.93954510e-01   1.17500493e+00
C     2.531454033600000e+00   1.064965747341496e+00  -2.377602000000003e-01  1.07723359e+00   1.24462595e+00  -6.91690280e-01
C     3.776265081700000e+00   3.643835718010488e-01  -2.286338999999984e-01 -3.87330690e-01   7.16668850e-01   3.01329170e-01
C     4.991459056199999e+00   1.104075269240944e+00  -1.317108000000005e-01  6.18903560e-01  -1.25652207e+00  -3.66128560e-01
C     6.221269001700000e+00   3.539118416890056e-01  -7.260330000000081e-02 -6.53560910e-01   3.66000450e-01  -2.64670480e-01
C     7.428418843100000e+00   1.074383678170202e+00  -1.615196999999995e-01  2.32633529e+00   5.84919560e-01   2.08599710e-01
C     8.716779440600000e+00   3.933676204634176e-01  -1.249487999999985e-01 -1.55088566e+00  -1.33641929e+00   1.14539600e-01
C     9.929488103499999e+00   1.077107964073742e+00  -1.928030999999990e-01  8.73891210e-01   4.63257870e-01  -5.31826000e-01
C     2.552407667500000e+00   2.516524861962311e+00  -2.424317999999985e-01  8.54921000e-02  -1.25272473e+00   3.07651540e-01
C     3.768688361900000e+00   3.209043393736180e+00  -2.153567999999986e-01  1.11657814e+00   1.12002189e+00   6.33831150e-01
C     5.023665513700000e+00   2.516706572105326e+00  -1.864836000000025e-01 -9.84776550e-01  -5.50980160e-01  -1.97007560e-01
C     6.251240788800000e+00   3.195860613186841e+00  -2.375553000000004e-01  3.40272140e-01   1.42901102e+00   2.79939870e-01
C     7.496264221299999e+00   2.518558683478437e+00  -2.521766999999997e-01 -1.12745514e+00  -1.20697515e+00   1.57986210e-01
C     8.729771568200000e+00   3.229451031052646e+00  -2.687844000000013e-01 -9.74597910e-01  -6.18537060e-01   1.12891110e-01
C     9.915520526100000e+00   2.494665336693930e+00  -2.276774999999986e-01  2.70810719e+00   7.38105000e-01   1.64916100e-02
C     1.121586817210000e+01   3.235129558411951e+00  -1.960905000000004e-01 -2.80032739e+00  -1.41678243e+00  -2.00821320e-01
C     3.778339182000000e+00   4.646546272425658e+00  -8.036129999999986e-02 -2.17842980e-01  -4.84958740e-01  -6.21747720e-01
C     5.011055066700000e+00   5.345095480351026e+00  -1.210076999999998e-01  3.72479860e-01   5.69226410e-01   2.54977770e-01
C     6.232403505300000e+00   4.630618029226790e+00  -2.002109999999995e-01  9.59711690e-01   2.02944570e-01  -1.20155720e-01
C     7.480579870000000e+00   5.358193895476822e+00  -2.181348000000014e-01  5.67407000e-03  -6.60304710e-01  -3.30818410e-01
C     8.726824118400000e+00   4.642930513828007e+00  -2.564400000000013e-01 -1.22352526e+00  -3.05956330e-01   4.07640760e-01
C     9.945093279000000e+00   5.302004132474650e+00  -1.281261000000029e-01 -6.00440810e-01   2.67558048e+00  -1.92947980e-01
C     1.115230760480000e+01   4.628604103605081e+00  -1.191240000000029e-01  2.40377801e+00   3.98605810e-01   2.17289560e-01
C     1.241352485480000e+01   5.369592108225945e+00  -3.864420000000024e-02 -8.29452020e-01  -1.60182208e+00  -1.88760350e-01
