32
Lattice="9.86 0 0 4.93 8.53901048131456 0 0 0 30 " PBC="1 1 1" Properties=species:S:1:pos:R:3:force:R:3 Energy="-256.70018985"
C     9.738962731899999e+00   1.857216762087887e+00   3.759072900000000e+00  1.08366290e+00  -1.56052610e+00  -8.70106250e-01
C     1.101192329120000e+01   2.505994127287851e+00   3.634714800000000e+00 -9.40880740e-01   2.62451196e+00  -3.17337300e-02
C     2.394096247000000e+00   1.828114362740266e+00   3.504686100000000e+00 -1.61966227e+00  -8.78377290e-01   3.29713100e-01
C     3.618658651200000e+00   2.500167789657137e+00   3.482379000000000e+00  3.45779130e-01   9.80932940e-01   2.68238420e-01
C     4.834855930000000e+00   1.803586567477095e+00   3.636818100000000e+00  1.84101100e-01  -1.44899180e+00   7.74357460e-01
C     6.049437746400000e+00   2.507160385339209e+00   3.842862300000000e+00 -1.67414585e+00   1.18918915e+00  -1.07204810e+00
C     7.254017578799999e+00   1.802010607702906e+00   3.782538600000000e+00  8.94702350e-01   5.79714260e-01   5.13470370e-01
C     8.488299182200000e+00   2.509577779206098e+00   3.817134600000000e+00  8.01035160e-01   6.60233550e-01   1.19326790e-01
C     1.097512956730000e+01   3.984661696919103e+00   3.645568200000000e+00 -8.61860500e-02  -2.08036790e+00   3.15513190e-01
C     1.221701963970000e+01   4.647283786760815e+00   3.603477000000000e+00  5.01398280e-01   1.31281478e+00  -4.17441910e-01
C     3.619110091300000e+00   3.926490371144942e+00   3.490162800000000e+00 -2.46248332e+00   3.67896520e-01   5.36825480e-01
C     4.774386078299999e+00   4.667186341607390e+00   3.629547600000000e+00  2.28847104e+00   5.71427780e-01   1.25548612e+00
C     5.990658934000000e+00   3.946222060391811e+00   3.845736000000000e+00  1.40425591e+00  -9.07920360e-01  -6.06732760e-01
C     7.264595140300001e+00   4.603714168907454e+00   3.883426800000000e+00 -8.94138930e-01   7.89715860e-01   6.98353850e-01
C     8.510427783000001e+00   3.925711015658432e+00   3.878091300000000e+00 -9.42072030e-01  -2.20171260e-01  -3.94399420e-01
C     9.709708752799999e+00   4.662333024220872e+00   3.773052900000000e+00  1.44231882e+00  -8.41570800e-02   1.48506610e-01
C     1.221918011360000e+01   6.103741390133588e+00   3.666120300000000e+00  6.81993780e-01  -8.31517460e-01  -4.31571350e-01
C     1.347848008660000e+01   6.834513664176598e+00   3.603472800000000e+00 -1.29244066e+00  -8.47337970e-01   5.01578640e-01
C     4.827836349499999e+00   6.111142065126498e+00   3.742740300000000e+00 -8.30036270e-01  -7.31466430e-01  -1.24987717e+00
C     6.058525757700000e+00   6.791303965614969e+00   3.753077700000000e+00  1.52037130e-01   1.31220160e-01   4.10427590e-01
C     7.249646640800000e+00   6.014373643471793e+00   3.924473400000000e+00  6.07531370e-01   1.82181603e+00  -1.58851742e+00
C     8.463427184299999e+00   6.762713309165414e+00   3.789249000000000e+00  8.20280730e-01   7.19566750e-01   5.13388580e-01
C     9.716993222199999e+00   6.080876652551501e+00   3.781675500000000e+00  7.49019000e-03   6.84920400e-02  -7.26295000e-02
C     1.097369000730000e+01   6.797976006843622e+00   3.732442800000000e+00 -4.91596900e-02  -2.83242658e+00  -7.86102000e-02
C     1.347621021600000e+01   8.242568142813806e+00   3.584691900000000e+00 -1.35114812e+00   1.24170672e+00   8.09107500e-01
C     9.763007229299999e+00   4.366615136683800e-01   3.645963600000000e+00  3.54461570e-01  -1.11505905e+00  -2.41833320e-01
C     6.088660136200000e+00   8.232490402645308e+00   3.609430200000000e+00 -2.05455110e+00  -3.23423290e-01   5.72430640e-01
C     2.349144901400000e+00   4.033557010218736e-01   3.573932700000000e+00  1.31207844e+00   1.28519650e-01   2.74437420e-01
C     8.487653697299999e+00   8.217515283796217e+00   3.699326700000000e+00  7.71579740e-01  -1.01103219e+00   1.18072640e-01
C     4.823228426400000e+00   3.549816943120448e-01   3.760576500000000e+00 -7.93098410e-01   4.04734430e-01  -9.67870150e-01
C     1.097421224220000e+01   8.150424705405383e+00   3.745469700000000e+00  3.02931910e-01   4.34802578e+00   1.03826670e-01
C     7.258238201099999e+00   4.203017942699576e-01   3.696392400000000e+00  1.03389388e+00  -3.06774359e+00  -2.39689780e-01
