32
Lattice="9.86 0 0 4.93 8.53901048131456 0 0 0 30 " PBC="1 1 1" Properties=species:S:1:pos:R:3:force:R:3 Energy="-256.84031169"
C     9.858104612200000e+00   2.254558352638592e-01   3.869930400000000e+00 -2.16702410e+00  -1.33921101e+00  -2.81945750e-01
C     1.204220534000000e+00   8.917565308203552e-01   3.883475999999999e+00  1.74548313e+00   1.28640331e+00  -2.41219780e-01
C     2.436394463800000e+00   1.891534276696064e-01   3.718743900000000e+00  9.38274160e-01   1.11333639e+00   6.04797380e-01
C     3.683865937100000e+00   9.279606544039832e-01   3.773851800000000e+00 -7.02730550e-01  -3.02311350e-01  -8.84560900e-02
C     4.910632297799999e+00   2.227394052499616e-01   3.757128900000000e+00 -6.57063200e-02  -4.14200860e-01   3.94697090e-01
C     6.141566579099999e+00   9.085070807284472e-01   3.812465700000000e+00 -8.88333200e-02   1.20541023e+00  -4.67815540e-01
C     7.374027237700000e+00   1.589981683298008e-01   3.811246500000000e+00 -9.84106500e-02   5.16013200e-01   1.54488550e-01
C     8.586692664499999e+00   8.657186115537960e-01   3.815689200000000e+00  1.08004455e+00   2.87827805e+00   8.64126320e-01
C     1.108771474480000e+01   2.318344931704402e+00   3.997638900000001e+00  1.64480130e-01  -8.41444800e-02  -1.54971140e-01
C     2.449895564600000e+00   3.068563606654146e+00   3.967251300000000e+00 -3.41440390e-01  -8.31384110e-01   1.57518290e-01
C     3.694926786500000e+00   2.334540275151084e+00   3.878875800000000e+00 -1.21466261e+00   1.07130331e+00   1.35374200e-01
C     4.894220919400000e+00   3.085937589717382e+00   3.877442700000000e+00  3.84365270e-01  -1.11536226e+00  -4.36498990e-01
C     6.100076487900000e+00   2.379047134794730e+00   3.773674200000000e+00  2.59852546e+00  -1.96961631e+00   3.14453840e-01
C     7.399314982500000e+00   3.049844473269995e+00   3.746102400000000e+00 -1.70276504e+00  -5.14748400e-01   6.73370700e-01
C     8.617560922800001e+00   2.363993115488805e+00   3.893375400000000e+00 -7.45069350e-01  -3.11441962e+00  -6.61497370e-01
C     9.852888179199999e+00   3.013697048715954e+00   4.011389100000000e+00  5.35931580e-01   1.36992665e+00  -4.11731910e-01
C     1.227971819650000e+01   4.490549737059786e+00   4.003999800000000e+00  1.02898431e+00   4.17206190e-01  -3.91468740e-01
C     3.698916290400000e+00   5.175959969559579e+00   3.853386000000000e+00 -1.86287901e+00  -4.83255480e-01   8.03306300e-01
C     4.897681976599999e+00   4.490091789927744e+00   3.851946300000000e+00  1.36882319e+00  -2.91473300e-02  -8.93444570e-01
C     6.135173601600000e+00   5.194316109608225e+00   3.654976800000000e+00  1.50852830e-01  -5.92004890e-01   9.08027690e-01
C     7.381691957999999e+00   4.441392788479047e+00   3.725218800000000e+00 -8.78344350e-01   1.85278993e+00  -5.83630230e-01
C     8.586038404200000e+00   5.159040603414297e+00   3.756345300000000e+00  2.38716898e+00   1.05491680e-01   6.73986590e-01
C     9.876276099199998e+00   4.447740518089669e+00   3.954018000000000e+00 -2.22106531e+00   1.05498147e+00  -9.17061300e-02
C     1.104970454340000e+01   5.236973931922533e+00   4.028262000000000e+00  5.81915060e-01  -1.48162134e+00  -5.37113850e-01
C     1.356192797810000e+01   6.557897799253601e+00   3.835805700000000e+00 -5.12542790e-01   2.74730476e+00   2.36661360e-01
C     4.906941650499999e+00   7.354601310234578e+00   3.817454100000000e+00  7.25053070e-01  -2.20220410e+00  -7.70791180e-01
C     6.138385052899999e+00   6.615169967224218e+00   3.647531400000000e+00  5.84151210e-01   5.82553090e-01   5.46211360e-01
C     7.413513727600000e+00   7.330812907888871e+00   3.645396300000000e+00 -1.46057302e+00  -1.26692068e+00   5.36049200e-02
C     8.626836767100000e+00   6.591664803856133e+00   3.721506300000000e+00 -1.50638470e-01   2.76779810e-01  -1.02608110e-01
C     9.850013446900000e+00   7.339025301218010e+00   3.807046200000000e+00 -1.33639271e+00   2.03825570e-01  -2.41949850e-01
C     1.104924634920000e+01   6.666232822944095e+00   3.920592900000000e+00  1.14686794e+00  -2.43724232e+00   1.70102530e-01
C     1.231508527700000e+01   7.267462672258589e+00   3.883742400000000e+00  1.28157140e-01   1.49619091e+00  -3.33877880e-01
