32
Lattice="9.86 0 0 4.93 8.53901048131456 0 0 0 30 " PBC="1 1 1" Properties=species:S:1:pos:R:3:force:R:3 Energy="-256.87701979"
C     9.773465435499999e+00   1.258870707392698e+00   3.481144800000000e+00  1.46415773e+00   8.20757580e-01  -4.05602420e-01
C     1.188921659400000e+00   1.991523527713720e+00   3.490310400000000e+00 -7.28907960e-01  -9.01218240e-01   2.30799570e-01
C     2.438510863500000e+00   1.252953002349849e+00   3.435652500000000e+00 -1.94670334e+00   9.94123260e-01  -2.48792050e-01
C     3.624191688800000e+00   2.005041122863979e+00   3.499764600000000e+00  8.81121450e-01  -8.56639860e-01   3.46975120e-01
C     4.865847438299999e+00   1.298600503013414e+00   3.551899200000000e+00  1.51371320e-01  -9.94711660e-01  -5.45831050e-01
C     6.124046493000000e+00   1.976916354826213e+00   3.555113400000000e+00 -1.74177339e+00   1.03568929e+00  -4.75253280e-01
C     7.324336732400000e+00   1.273635425023562e+00   3.549776700000000e+00  5.79377190e-01  -3.65668280e-01  -8.94747500e-02
C     8.532852085200000e+00   1.988217735196493e+00   3.493182000000000e+00  1.73180676e+00  -4.67860840e-01   1.65879200e-01
C     1.104100984750000e+01   3.405137329123931e+00   3.657942000000000e+00  1.02203468e+00  -4.23776800e-02   1.30245210e-01
C     2.436299314800000e+00   4.139753097174094e+00   3.785237100000000e+00 -2.72053797e+00  -6.74498060e-01  -3.26789190e-01
C     3.604280158300000e+00   3.411709976270596e+00   3.622761900000000e+00  1.47886722e+00   8.61549970e-01  -1.26354700e-01
C     4.831075556699999e+00   4.149426173635943e+00   3.522403800000000e+00  1.93562120e+00  -2.06389912e+00  -5.29782200e-02
C     6.097142842099999e+00   3.407172687661943e+00   3.434897700000000e+00 -1.00959260e-01   4.85016060e-01   7.70678890e-01
C     7.341874369299999e+00   4.128803950986114e+00   3.451982100000000e+00 -2.97439190e-01  -8.86394420e-01  -3.41890380e-01
C     8.589865760399999e+00   3.398176583950949e+00   3.492121800000000e+00 -9.70933530e-01   8.87212330e-01   2.51578590e-01
C     9.820951984299999e+00   4.112610059171214e+00   3.626025300000000e+00 -2.40636630e-01  -1.18113415e+00  -3.96687350e-01
C     1.224281078680000e+01   5.559076507941756e+00   3.898449300000000e+00  6.26142250e-01  -6.83446430e-01  -6.36322690e-01
C     3.609843959100000e+00   6.224430995746964e+00   3.766817700000000e+00  1.96233176e+00   2.02909565e+00  -9.56659330e-01
C     4.889129166100000e+00   5.541613975339843e+00   3.530052000000000e+00 -1.74771778e+00   7.09218620e-01   9.69679410e-01
C     6.120047868599999e+00   6.256683265280448e+00   3.446268900000000e+00 -4.80463430e-01   3.39748240e-01  -8.60946610e-01
C     7.336632744000000e+00   5.543366436460653e+00   3.404232300000000e+00  1.17928870e+00  -2.39575440e-01   6.32890500e-01
C     8.613197034700001e+00   6.210904178465387e+00   3.504947700000000e+00 -1.79834285e+00   1.54264021e+00  -8.12525570e-01
C     9.834266385999999e+00   5.507714189124347e+00   3.619254900000000e+00 -1.06300422e+00   1.44993348e+00   6.95356180e-01
C     1.100537275090000e+01   6.265704473682253e+00   3.821911200000000e+00  1.43305132e+00  -1.78187060e-01  -1.96679190e-01
C     1.351244206780000e+01   7.675112812431064e+00   3.629470800000000e+00  3.09583040e-01  -9.26099120e-01   1.06204000e-03
C     4.900753218700000e+00   8.373728795418387e+00   3.443784000000000e+00 -1.96088934e+00   5.77041970e-01   2.39012860e-01
C     6.107932492200000e+00   7.687557566304616e+00   3.321650100000000e+00 -1.80148710e-01  -1.26160992e+00   8.14091390e-01
C     7.314324099599999e+00   8.379646585851342e+00   3.311349900000000e+00  1.80588239e+00   1.96730850e-01   5.22044200e-01
C     8.546479246099999e+00   7.664456554302547e+00   3.424135500000000e+00  1.68922698e+00  -5.88815950e-01   2.63305500e-01
C     9.792242572999999e+00   8.392819717318837e+00   3.528301200000000e+00  3.65328950e-01   9.12710200e-02   8.20351950e-01
C     1.106377175610000e+01   7.680267898447944e+00   3.754322700000000e+00 -1.88967714e+00   5.88951000e-01  -1.17005044e+00
C     1.229725366420000e+01   8.393152567947347e+00   3.626009700000000e+00 -7.47058200e-01  -2.96843290e-01   7.88886640e-01
