32
Lattice="9.86 0 0 4.93 8.53901048131456 0 0 0 30 " PBC="1 1 1" Properties=species:S:1:pos:R:3:force:R:3 Energy="-257.43651132"
C     9.830610051499999e+00   1.170719684334200e-01   3.769462200000000e+00  8.04410130e-01  -1.51130046e+00  -1.61207020e-01
C     1.216243867300000e+00   7.983143953080296e-01   3.715231200000000e+00 -1.06626896e+00   1.40479559e+00  -5.87775000e-02
C     2.422687486200000e+00   1.170947675914016e-01   3.844848300000000e+00  4.61800990e-01  -1.05577114e+00  -8.42686500e-02
C     3.667633714900000e+00   7.870369241670937e-01   3.831642900000000e+00 -2.52950200e-02   9.40356680e-01  -6.73805000e-02
C     4.883207052900000e+00   8.018276003898160e-02   3.902139000000000e+00  1.65978515e+00   4.28798720e-01  -6.34513840e-01
C     6.132262584499999e+00   8.014661440761975e-01   3.819134400000000e+00  2.61692700e-02   3.35800760e-01   4.80508400e-01
C     7.392195470899999e+00   7.548493803330480e-02   3.796905900000000e+00 -1.24675262e+00   1.41053170e+00  -8.84006900e-02
C     8.620537262399999e+00   8.175585070564912e-01   3.763907100000000e+00 -9.04403760e-01  -6.87189320e-01  -3.73752900e-01
C     1.106709260410000e+01   2.230678070540119e+00   3.578977200000000e+00 -5.61573560e-01  -1.74814170e-01   3.19570490e-01
C     2.431943709100000e+00   2.930010561896818e+00   3.623995800000000e+00  8.28479260e-01   1.98454740e-01  -1.00553900e-02
C     3.689706902500000e+00   2.209473145815135e+00   3.717761700000000e+00 -1.27934921e+00   4.04405330e-01   1.13304560e-01
C     4.892580067499999e+00   2.948409909338493e+00   3.767027400000000e+00  1.47948040e-01  -4.33616570e-01   2.52089270e-01
C     6.114735399199999e+00   2.257749380854968e+00   3.845916000000000e+00  1.09480896e+00  -1.94039580e+00  -3.47991330e-01
C     7.371136680100000e+00   2.927580359514211e+00   3.831701999999999e+00 -3.84965100e-01   1.28202887e+00  -3.12282830e-01
C     8.601395502099999e+00   2.220482150466580e+00   3.685008600000000e+00 -1.85527040e-01   1.05059507e+00   4.66917420e-01
C     9.819622215400001e+00   2.957892395086429e+00   3.576358200000000e+00  6.68261070e-01  -3.55122460e-01   5.66127410e-01
C     1.229879734580000e+01   4.358943860448778e+00   3.643299300000000e+00  6.27378380e-01   4.18231290e-01  -5.57598700e-02
C     3.698572127100000e+00   5.072108438711714e+00   3.765629100000000e+00 -1.88100322e+00  -2.20693220e-01  -3.91215900e-01
C     4.902480247000000e+00   4.356754116601286e+00   3.794427600000000e+00 -1.88068030e-01   3.31734870e-01   5.08814340e-01
C     6.106851343200000e+00   5.069574145791355e+00   3.951818700000000e+00  1.39631108e+00  -2.15322080e-01  -5.51476960e-01
C     7.353315420300000e+00   4.379251762122837e+00   3.889309800000000e+00  8.41643190e-01  -1.00469689e+00   9.20044700e-02
C     8.607393734500000e+00   5.086055546089118e+00   3.853877100000000e+00 -6.78847170e-01   3.42664800e-01  -3.08591760e-01
C     9.836323132699999e+00   4.384226248068066e+00   3.678852600000000e+00 -8.42956600e-02  -1.60671010e-01  -2.85629360e-01
C     1.107802542140000e+01   5.106077390912097e+00   3.621357000000000e+00 -2.74508390e-01  -1.56512649e+00   6.68541850e-01
C     1.352056764450000e+01   6.490036233606525e+00   3.797077800000000e+00  4.94806940e-01   4.00686170e-01  -3.37450740e-01
C     4.893994090100000e+00   7.209594054405944e+00   3.816885600000000e+00  2.81553830e-01   1.27625650e-01   6.28401720e-01
C     6.137790445600000e+00   6.477441620099050e+00   3.954121200000000e+00 -1.02876698e+00   1.65740909e+00  -5.55582040e-01
C     7.345651883200000e+00   7.238659223667872e+00   3.932106300000000e+00  1.06031587e+00  -1.24465504e+00   3.19575900e-02
C     8.607780739499999e+00   6.521780175846136e+00   3.890923200000000e+00 -5.55417700e-01  -4.18943920e-01   2.59680820e-01
C     9.854806097099999e+00   7.206191258729663e+00   3.866547600000000e+00 -1.13555992e+00   7.84152400e-02  -5.86331300e-02
C     1.107245126760000e+01   6.501015266331185e+00   3.755808900000000e+00 -2.91181690e-01   3.30982270e-01  -1.88361120e-01
C     1.228175931510000e+01   7.208185630017372e+00   3.746796000000000e+00  1.37811188e+00  -1.55198290e-01   4.83413190e-01
