32
Lattice="9.86 0 0 4.93 8.53901048131456 0 0 0 30 " PBC="1 1 1" Properties=species:S:1:pos:R:3:force:R:3 Energy="-257.23713971"
C     9.789177000399999e+00   1.703585532624976e+00   3.335929500000000e+00 -1.07290660e-01   1.25036434e+00   1.94610740e-01
C     1.101819139180000e+01   2.435695698829994e+00   3.427615800000000e+00  7.38317850e-01  -4.45747180e-01  -3.62285860e-01
C     2.432673743500000e+00   1.693061629158900e+00   3.448130700000000e+00 -2.23348997e+00   1.00843893e+00   5.72863130e-01
C     3.612100715900000e+00   2.426055412168388e+00   3.610634100000000e+00  6.81797310e-01   1.05373828e+00  -9.80274150e-01
C     4.855858321600000e+00   1.745486627830546e+00   3.518338200000000e+00 -9.74958900e-02  -5.23313640e-01   3.26024640e-01
C     6.094516976200000e+00   2.429905395823506e+00   3.419147700000000e+00 -5.11385980e-01  -1.81868600e-02  -2.52359300e-02
C     7.315049302599999e+00   1.738936352891338e+00   3.346990800000000e+00 -2.56911990e-01  -1.04337391e+00   4.76691540e-01
C     8.528544990699999e+00   2.423592078425117e+00   3.305953500000000e+00  1.78137619e+00   6.12318620e-01  -4.00728720e-01
C     1.102149133660000e+01   3.870565061297334e+00   3.461740500000000e+00 -6.25899540e-01  -8.57180690e-01   1.21219300e-02
C     1.225627560280000e+01   4.562599601957197e+00   3.616119300000000e+00 -1.05147731e+00   6.24548690e-01  -2.53442760e-01
C     3.577921568200000e+00   3.873553031844496e+00   3.605354100000000e+00  3.33509625e+00  -1.49641573e+00  -7.41005700e-02
C     4.877902372900000e+00   4.564326616826777e+00   3.478769700000000e+00 -1.53795959e+00  -1.83651880e-01   3.32050290e-01
C     6.100427503900000e+00   3.831590028812946e+00   3.380122800000000e+00 -8.66132760e-01   7.44125520e-01  -1.72686000e-01
C     7.303019708200000e+00   4.542521826615573e+00   3.248386200000000e+00  8.11755250e-01   1.15336107e+00   3.35242700e-01
C     8.555432865600000e+00   3.857277848649826e+00   3.227483400000000e+00 -3.19732860e-01  -4.74839700e-01   4.36866250e-01
C     9.779023961200000e+00   4.573846161880195e+00   3.323325900000000e+00  6.12127190e-01  -3.81420890e-01   4.98942980e-01
C     1.228450281080000e+01   5.975801566891956e+00   3.642637500000000e+00 -1.69562292e+00   6.63518290e-01  -3.15123300e-01
C     1.346855298930000e+01   6.720798380762867e+00   3.607833900000000e+00  1.66947715e+00  -2.32418310e-01  -7.77233380e-01
C     4.872230900900000e+00   5.982829941027940e+00   3.449409000000000e+00 -7.79770940e-01   9.32181780e-01   4.21142570e-01
C     6.096408173500000e+00   6.718346830854059e+00   3.337620300000000e+00 -4.35660050e-01  -8.15966060e-01   2.98970270e-01
C     7.301597699000000e+00   5.983185249254013e+00   3.297958500000000e+00  1.21687301e+00  -2.20498660e-01  -2.84831000e-01
C     8.572442598100000e+00   6.680717631811423e+00   3.343204200000000e+00 -9.97609640e-01   3.74721780e-01  -1.67604400e-02
C     9.794917788199999e+00   5.994206037739920e+00   3.421359300000000e+00 -2.23774840e-01  -1.15371356e+00  -2.53843160e-01
C     1.102132785780000e+01   6.659436282942643e+00   3.553373100000000e+00  8.78997210e-01   2.19003851e+00  -1.06741660e-01
C     1.346230973590000e+01   8.160283932295696e+00   3.497231700000000e+00  1.66317141e+00  -1.36090149e+00  -9.64799000e-02
C     9.807716709099999e+00   2.983855598011288e-01   3.376054800000000e+00 -1.30734129e+00  -1.60161410e-01   3.25807190e-01
C     6.096738631399999e+00   8.132802920258015e+00   3.368284500000000e+00  2.93475290e-01  -1.50120540e-01  -2.67754660e-01
C     2.407720104800000e+00   2.847910281664448e-01   3.371309100000000e+00  2.90869630e-01  -3.93430650e-01   6.48113200e-02
C     8.574641575299999e+00   8.096352702392354e+00   3.380674800000000e+00 -4.99641880e-01   1.11656754e+00   5.87596920e-01
C     4.844681913000000e+00   3.275077696530640e-01   3.519660900000000e+00  9.97052680e-01  -1.71078083e+00  -8.42548190e-01
C     1.102577412620000e+01   8.120875630419553e+00   3.500717700000000e+00 -5.11535730e-01  -7.52082700e-02   4.77582830e-01
C     7.324907774300000e+00   3.141646264869112e-01   3.470490000000000e+00 -9.11652610e-01  -2.65931100e-02  -1.31255610e-01
