32
Lattice="9.86 0 0 4.93 8.53901048131456 0 0 0 30 " PBC="1 1 1" Properties=species:S:1:pos:R:3:force:R:3 Energy="-257.0296806"
C     4.999081230600000e+00   7.779752579336337e+00  -1.762976999999992e-01 -2.05912412e+00  -3.39142150e-01  -2.18283880e-01
C     6.198650851899999e+00   8.472333360496606e+00  -2.418476999999974e-01  1.14599874e+00   1.32517171e+00   1.26545952e+00
C     7.430932403600000e+00   7.759510001092449e+00  -2.382434999999994e-01  8.97143570e-01   9.33669590e-01  -4.70709660e-01
C     8.678646186399998e+00   8.487844558423630e+00  -1.762344000000020e-01 -7.58391550e-01   5.93717310e-01  -9.76027400e-02
C     9.906941142899999e+00   7.796014697844974e+00  -2.115815999999988e-01  9.87642500e-02  -8.71447920e-01   6.57332670e-01
C     1.113924049190000e+01   8.498270775609814e+00  -2.012961000000004e-01 -2.03985480e-01  -3.77413620e-01   3.23555560e-01
C     1.234784207040000e+01   7.785876757652593e+00  -9.892920000000061e-02  1.60350513e+00   6.52106430e-01  -7.53242210e-01
C     1.360361231130000e+01   8.512479518268325e+00  -1.532397000000003e-01  5.52015000e-03  -1.68273424e+00   1.71632940e-01
C     1.284921873200000e+00   1.373459702358744e+00  -1.768980000000298e-02 -2.51214660e-01  -6.25845640e-01  -5.87400960e-01
C     2.502862202800000e+00   2.092370436943987e+00   4.585530000000000e-02  5.66632110e-01  -5.82089140e-01   4.00292770e-01
C     3.761700432000000e+00   1.391459594890165e+00  -4.579409999999839e-02 -1.44102151e+00  -1.29696222e+00  -2.36853900e-01
C     4.972069119700000e+00   2.079652178564761e+00  -8.317770000000024e-02  1.00113645e+00  -2.96644660e-01  -2.68103980e-01
C     6.231759499399999e+00   1.360814110958702e+00  -2.298770999999995e-01 -1.74674254e+00   9.08709790e-01   4.39061070e-01
C     7.425538539900000e+00   2.070688096143066e+00  -2.332937999999984e-01  1.65144779e+00   1.25916543e+00   1.14266650e-01
C     8.666005173400000e+00   1.363699613380104e+00  -1.617573000000014e-01  4.07820140e-01   1.13303490e+00   2.31100810e-01
C     9.913941644299998e+00   2.092557014322975e+00  -4.137000000000057e-03 -8.10178350e-01  -1.57326989e+00  -4.68736770e-01
C     2.486879833000000e+00   3.504479920877936e+00   1.857414000000000e-01  1.43521039e+00   1.24326600e-02  -7.81856310e-01
C     3.734573205600000e+00   4.213771460157459e+00   5.803500000000000e-02 -1.40723280e-01  -5.04571000e-02  -4.38539430e-01
C     4.948983112900001e+00   3.480847099303173e+00  -5.228969999999933e-02  1.93504156e+00   1.57748437e+00  -7.70332810e-01
C     6.233219025900000e+00   4.211156046637540e+00  -2.838446999999995e-01 -2.24572700e+00   3.35572720e-01   8.11359470e-01
C     7.467377527200000e+00   3.531947526669162e+00  -2.642957999999993e-01 -1.15088285e+00  -1.56767364e+00  -3.00369400e-02
C     8.675856545900000e+00   4.233550113961969e+00  -1.833890999999994e-01  8.55850020e-01  -3.97107620e-01   3.08379280e-01
C     9.885154240399999e+00   3.474879953389645e+00   3.636510000000000e-02  1.03999860e+00   2.63651020e+00  -3.20734120e-01
C     1.115346142200000e+01   4.216253579723785e+00   1.334754000000000e-01 -2.25815020e+00  -8.19898100e-02   1.24719210e-01
C     3.733938714599999e+00   5.629770463365047e+00  -1.296284999999990e-01  1.31305300e-01   7.07264820e-01   1.27476823e+00
C     4.974231466999999e+00   6.347284215835763e+00  -1.704477000000004e-01 -4.58151050e-01   2.92250640e-01  -7.50586450e-01
C     6.182434356400000e+00   5.649246238467832e+00  -3.038910000000001e-01  1.74747053e+00  -9.50045010e-01   7.34809200e-02
C     7.454945003899999e+00   6.352963938656535e+00  -3.448628999999990e-01 -1.36789300e+00  -4.72983600e-02   4.85598620e-01
C     8.674530967499999e+00   5.659298788555413e+00  -2.432328000000012e-01  7.39119750e-01  -5.72571070e-01   4.64775880e-01
C     9.910819869699999e+00   6.361648795435533e+00  -8.894100000000194e-02 -2.29405970e-01   8.95813700e-02  -4.32625580e-01
C     1.112815193590000e+01   5.637430211935922e+00   8.512620000000000e-02  8.26387740e-01   9.71601720e-01  -9.44097210e-01
C     1.237994036370000e+01   6.388109822671377e+00  -4.951439999999963e-02 -9.66760650e-01  -2.11558157e+00   4.23959330e-01
