32
Lattice="9.86 0 0 4.93 8.53901048131456 0 0 0 30 " PBC="1 1 1" Properties=species:S:1:pos:R:3:force:R:3 Energy="-256.94036003"
C     9.829002624999999e+00   5.273443533341984e-01   3.459268200000000e+00  3.42508940e-01  -9.14493300e-02  -2.81998330e-01
C     1.204359116300000e+00   1.244287102174116e+00   3.398331900000000e+00 -4.72266390e-01   1.00380982e+00  -6.79939800e-02
C     2.435762388500000e+00   5.537805320495448e-01   3.541561500000000e+00 -3.32828590e-01   5.42162650e-01  -4.89668660e-01
C     3.656734372300000e+00   1.283331215253287e+00   3.422849400000000e+00 -2.85907210e-01  -1.94585670e-01   9.40848600e-02
C     4.866513284100000e+00   5.455108419600840e-01   3.458283000000000e+00  1.37359323e+00   2.28686160e-01  -2.68711290e-01
C     6.111580642900000e+00   1.244709953973086e+00   3.453321900000000e+00  1.27793550e-01   1.50845418e+00  -4.16203180e-01
C     7.358942620899999e+00   5.681921615970600e-01   3.356861100000000e+00 -6.78953860e-01  -1.01869219e+00  -1.15684000e-02
C     8.612788485599999e+00   1.245342780039758e+00   3.366997500000000e+00 -6.26807990e-01   2.58808190e-01   2.59234580e-01
C     1.103996375080000e+01   2.671708825090906e+00   3.148633200000000e+00  2.78250970e-01   1.63386810e-01   2.14088490e-01
C     2.428592344400000e+00   3.404503478376000e+00   3.064323600000000e+00 -3.68571750e-01  -9.11887710e-01   4.90809200e-01
C     3.651771193400000e+00   2.708287555064291e+00   3.241391700000000e+00  3.94423580e-01  -7.04860980e-01   1.29146570e-01
C     4.895086578100000e+00   3.426255326722228e+00   3.326216100000000e+00 -5.22842830e-01  -1.96026544e+00   5.23608310e-01
C     6.114372304700000e+00   2.701994218950427e+00   3.473909700000000e+00  1.87515640e-01  -1.28105689e+00  -2.32464890e-01
C     7.361285751300000e+00   3.374659209797876e+00   3.488048400000000e+00  9.60374200e-02   8.71845430e-01   3.26739170e-01
C     8.610549131699999e+00   2.670265476149471e+00   3.363731100000000e+00 -1.32397050e+00   5.34359200e-02  -1.42888540e-01
C     9.786276139100000e+00   3.399399284861580e+00   3.153225000000000e+00  1.62568054e+00  -5.74843800e-01   3.67881260e-01
C     1.231344412930000e+01   4.818382843012138e+00   3.007011900000000e+00 -7.38098000e-01   4.06839160e-01  -6.18199400e-02
C     3.668778362300000e+00   5.551248711644636e+00   3.140205600000000e+00 -2.74410570e-01  -2.31099640e-01   4.61362680e-01
C     4.873593897999999e+00   4.798605043108676e+00   3.387428700000000e+00  5.24930610e-01   2.81287525e+00  -4.84067180e-01
C     6.109521529799999e+00   5.517718323022505e+00   3.587787600000000e+00  4.19739890e-01  -3.61778330e-01   2.38654840e-01
C     7.353878870000000e+00   4.816139047228309e+00   3.634154100000000e+00  7.07649700e-01  -6.17155340e-01  -1.57757967e+00
C     8.605607694100000e+00   5.528271942245052e+00   3.428546700000000e+00 -9.17266490e-01   4.58845740e-01   6.10647480e-01
C     9.802939440499999e+00   4.820427423681469e+00   3.133012500000000e+00  4.60018700e-01   1.04274790e-01   4.17787770e-01
C     1.106294144550000e+01   5.512283669802510e+00   3.026856900000000e+00 -4.71756010e-01   4.16083120e-01   1.37777260e-01
C     1.348188282190000e+01   6.990835706621968e+00   3.213350400000000e+00  1.87740528e+00  -1.54046497e+00   8.23292140e-01
C     4.883195171600001e+00   7.638835338747413e+00   3.514491300000000e+00 -3.00678070e-01   5.49143450e-01  -7.88841600e-01
C     6.133684396500000e+00   6.932850018935641e+00   3.638921100000000e+00 -1.15540940e+00   6.41714410e-01  -3.08500710e-01
C     7.346040712300001e+00   7.684357059786608e+00   3.654347400000000e+00  1.27824497e+00  -1.15968882e+00  -4.94008000e-02
C     8.610362087499999e+00   6.964470657863918e+00   3.553601100000000e+00 -5.76805320e-01  -4.32778900e-01  -5.93890780e-01
C     9.838907142899998e+00   7.663505991655915e+00   3.387945300000000e+00 -6.97125330e-01  -4.36963150e-01  -6.91058600e-02
C     1.106145963540000e+01   6.935528621133112e+00   3.134785200000000e+00 -1.31464593e+00   3.71044390e-01   6.00316480e-01
C     1.224837739770000e+01   7.668987011702817e+00   3.193228200000000e+00  1.36455120e+00   1.12616171e+00   1.49272720e-01
