32
Lattice="9.86 0 0 4.93 8.53901048131456 0 0 0 30 " PBC="1 1 1" Properties=species:S:1:pos:R:3:force:R:3 Energy="-256.74702117"
C     4.954698560499999e+00   8.164683742835619e+00  -2.847261000000003e-01  1.88981630e-01   3.06312732e+00   8.29675200e-02
C     1.257498649600000e+00   3.897812360618176e-01  -2.836290000000012e-01 -1.14001800e-02  -7.86935430e-01   3.76126460e-01
C     7.438895733999999e+00   8.272789579484831e+00  -2.520872999999995e-01 -6.13928710e-01  -3.18566334e+00  -2.70647200e-01
C     3.725475235700000e+00   3.891730023453272e-01  -1.754120999999991e-01  1.15754713e+00   1.90154834e+00   4.17414370e-01
C     9.925024678700000e+00   8.219239480792341e+00  -1.459241999999996e-01 -2.10851193e+00  -8.54575100e-02  -3.62950580e-01
C     6.182864597500000e+00   4.086764438420664e-01  -1.805366999999976e-01  1.61126422e+00  -1.16761623e+00   7.60424000e-02
C     1.236933287710000e+01   8.236044253416980e+00  -1.428879000000016e-01 -3.15791960e-01   2.47068830e-01   1.90629080e-01
C     8.681439770899999e+00   3.926562355003288e-01  -2.226903000000000e-01 -6.39789900e-01   3.83737560e-01   4.32099600e-02
C     1.248302227600000e+00   1.780924716784013e+00  -1.510451999999987e-01 -5.64777010e-01   1.67298985e+00   7.62014100e-02
C     2.446143933200000e+00   2.542029263854080e+00  -2.114309999999975e-02  1.98710408e+00  -1.43752197e+00  -1.16824360e-01
C     3.697939262999999e+00   1.848420812782544e+00  -5.263530000000216e-02  1.38027493e+00  -1.54973091e+00  -9.23072250e-01
C     4.995929580200000e+00   2.512984844387617e+00  -1.503756000000003e-01 -2.94008351e+00   9.11149400e-01   2.84549260e-01
C     6.187984796899999e+00   1.800259000483143e+00  -2.602221000000000e-01  6.89042170e-01   1.24822205e+00   4.03771810e-01
C     7.406747697000000e+00   2.558484961730298e+00  -2.764983000000001e-01  1.38232075e+00  -1.87554838e+00   4.85797340e-01
C     8.682277131399999e+00   1.852569576414357e+00  -1.955483999999998e-01 -2.54435115e+00  -2.14952609e+00  -9.55995790e-01
C     9.873710182099998e+00   2.510044777689249e+00  -1.696437000000017e-01  1.38751961e+00   1.55291341e+00   6.70023610e-01
C     2.544026075900000e+00   3.935303996201978e+00   6.986670000000000e-02 -2.34127324e+00   1.39175819e+00  -1.25388700e-02
C     3.748498039900000e+00   4.676493521470171e+00  -8.745300000001066e-03 -4.84656220e-01  -9.75909140e-01   3.50923690e-01
C     4.975691831600000e+00   3.949619049540964e+00  -1.195790999999993e-01 -4.18053460e-01  -7.08577410e-01   2.41216420e-01
C     6.187151676199999e+00   4.622621502082584e+00  -1.482165000000002e-01  4.93929550e-01   2.70779361e+00  -8.06367900e-01
C     7.423357853000000e+00   3.947106360317120e+00  -2.431248000000004e-01  4.49681100e-01   1.08193435e+00   1.43024630e-01
C     8.676949329699999e+00   4.694729261471049e+00  -2.152086000000004e-01 -1.13006012e+00  -1.94882258e+00   4.34220070e-01
C     9.864180689299999e+00   3.947024300426407e+00  -5.421690000000012e-02  2.06820873e+00   3.99222980e-01  -3.35405510e-01
C     1.114544233330000e+01   4.656720418022473e+00   9.988500000000000e-02 -9.71780740e-01  -1.93176580e-01  -6.93206520e-01
C     3.669665466500000e+00   6.089804785739074e+00  -3.621599999998892e-03  2.71805229e+00   8.02217200e-02  -8.16327560e-01
C     4.927139466100000e+00   6.791698126338725e+00  -2.376570000000022e-01 -1.71610250e-01  -1.66460115e+00   9.44024970e-01
C     6.157894048899999e+00   6.088419587459009e+00  -2.171789999999980e-01  1.73896532e+00  -8.38956920e-01  -2.63638370e-01
C     7.444312423600000e+00   6.791802899997315e+00  -2.863818000000009e-01 -2.35170325e+00   1.31657296e+00   2.32731860e-01
C     8.651038580799998e+00   6.091629999229174e+00  -2.392824000000005e-01  7.13995410e-01   4.05268390e-01   2.28046020e-01
C     9.886802240799998e+00   6.789805454665833e+00  -1.481681999999971e-01  3.79123730e-01   4.58174160e-01   5.58993570e-01
C     1.109871579330000e+01   6.084018752237826e+00   5.382420000000000e-02  1.04468897e+00   7.97690200e-02  -3.65360710e-01
C     1.235576438320000e+01   6.824009998165360e+00   2.897370000000000e-02 -1.78292800e+00  -3.33428480e-01  -3.17578820e-01
