32
Lattice="9.86 0 0 4.93 8.53901048131456 0 0 0 30 " PBC="1 1 1" Properties=species:S:1:pos:R:3:force:R:3 Energy="-257.14289019"
C     9.711469748799999e+00   1.825505865818835e+00   3.542431500000000e+00 -7.09768740e-01   1.91743990e-01   6.18156730e-01
C     1.091518515500000e+01   2.538825939462613e+00   3.549540600000000e+00  1.67021723e+00  -1.18022800e-02   3.13622140e-01
C     2.321321706900000e+00   1.861933028356201e+00   3.593639400000000e+00 -5.20792030e-01  -1.59583051e+00   2.87704510e-01
C     3.561346415200000e+00   2.504716178979415e+00   3.756195900000000e+00 -2.01303820e-01   2.66647403e+00  -4.61490670e-01
C     4.808110384200000e+00   1.822328670799437e+00   3.802748999999999e+00 -5.64010910e-01   2.23135079e+00   1.19484410e-01
C     6.012514955099999e+00   2.600672028396842e+00   3.841719300000000e+00  8.96303320e-01  -1.95962228e+00  -1.96062580e-01
C     7.253890236900000e+00   1.832928400678575e+00   3.802844700000000e+00 -9.47514700e-02   9.78177710e-01   1.40735790e-01
C     8.501108998399999e+00   2.550752375400029e+00   3.689483400000000e+00 -9.32175680e-01  -3.57157240e-01   3.44128650e-01
C     1.093386596030000e+01   3.934136884249572e+00   3.699258300000000e+00  1.18388960e-01   1.39272309e+00  -7.66990300e-02
C     1.216449305330000e+01   4.650464055823987e+00   3.764471700000000e+00  5.95129130e-01   1.00943925e+00   9.78546500e-02
C     3.533799843000000e+00   3.982120060449732e+00   3.771975000000000e+00  1.46072345e+00  -1.86282602e+00   1.83318380e-01
C     4.792460148500000e+00   4.699304804846652e+00   3.814155300000000e+00 -1.22498692e+00  -8.05046950e-01  -4.06431000e-02
C     6.023923122999999e+00   4.020944891739776e+00   3.813685800000000e+00 -3.30181490e-01  -2.04909197e+00  -7.53406800e-02
C     7.264090653400000e+00   4.652755840846714e+00   3.765972900000000e+00  6.19619830e-01   1.85518645e+00   5.99223900e-01
C     8.498245407899999e+00   3.971566782787604e+00   3.795546000000000e+00  5.19247470e-01  -4.54622500e-01  -8.67996410e-01
C     9.742099099299999e+00   4.688039800661016e+00   3.769186500000000e+00 -1.40559050e+00   4.85229290e-01   2.23065610e-01
C     1.222214126880000e+01   6.091807952207578e+00   3.836297700000000e+00 -2.60238327e+00   2.19095280e-01   7.23618200e-02
C     1.341428734540000e+01   6.823798230705456e+00   3.777528900000000e+00  9.23425060e-01  -1.29214666e+00   5.50807780e-01
C     4.804683393299999e+00   6.084125831429246e+00   3.792750300000000e+00 -9.12310330e-01   1.42966479e+00  -7.99042810e-01
C     6.028942405300000e+00   6.763747383334542e+00   3.656640600000000e+00  1.34867950e-01   2.06591591e+00   6.64720970e-01
C     7.272864179999999e+00   6.082222400603149e+00   3.748043100000000e+00 -2.33459340e-01   6.83047750e-01  -5.82980130e-01
C     8.480259486100000e+00   6.852626015476042e+00   3.743741400000000e+00  4.23402690e-01  -1.05851062e+00   4.58015020e-01
C     9.711965213799999e+00   6.139925276262377e+00   3.835262400000000e+00  5.99691550e-01  -1.10832118e+00  -1.99658160e-01
C     1.094930391020000e+01   6.835225305310002e+00   3.898054200000000e+00  6.17608970e-01  -6.26142450e-01  -6.05746640e-01
C     1.338516450430000e+01   8.224066071076054e+00   3.788106000000000e+00  1.16321307e+00   1.05177754e+00  -3.78676740e-01
C     9.686735051399999e+00   4.220086570748048e-01   3.612085200000000e+00  4.22424060e-01  -1.58555637e+00   8.46126100e-02
C     5.995106287000000e+00   8.231957909951776e+00   3.588151800000000e+00  8.50804360e-01  -4.25074680e-01   1.34442840e-01
C     2.319409655700000e+00   4.233266533423928e-01   3.611468400000000e+00 -5.51674330e-01  -1.53193970e-01  -8.99240100e-02
C     8.500083262600000e+00   8.268772316614410e+00   3.726469800000000e+00 -1.42537976e+00  -4.51971100e-02  -2.96812150e-01
C     4.785383527900000e+00   4.438885905782328e-01   3.789768000000000e+00  4.98854430e-01  -1.56748882e+00   1.90216140e-01
C     1.092500744050000e+01   8.253683287365515e+00   3.865561800000000e+00  1.11535289e+00  -3.44694960e-01   3.48187640e-01
C     7.249395950300000e+00   3.975396955938408e-01   3.885036300000000e+00 -9.20505810e-01   1.04250066e+00  -7.59586480e-01
