32
Lattice="9.86 0 0 4.93 8.53901048131456 0 0 0 30 " PBC="1 1 1" Properties=species:S:1:pos:R:3:force:R:3 Energy="-257.4759251"
C     9.807313730899999e+00   1.636421689524222e+00   3.286215000000000e+00 -5.64483440e-01   5.56282310e-01   1.00930510e-01
C     1.100984110570000e+01   2.374100144463247e+00   3.245650500000000e+00  3.34737320e-01  -7.27749160e-01   1.78608130e-01
C     2.385488171200000e+00   1.676992663067322e+00   3.194718000000000e+00 -2.14417360e-01  -1.10986709e+00  -2.25816000e-02
C     3.609963314400000e+00   2.352829725527882e+00   3.204833400000000e+00  1.21374760e+00   6.35807370e-01   4.10932960e-01
C     4.844239396200000e+00   1.620491226182629e+00   3.282746100000000e+00  9.20846900e-01   2.00936480e+00  -3.80588800e-02
C     6.095707374000000e+00   2.373392345884560e+00   3.350492700000000e+00  4.06109760e-01  -9.23762120e-01   5.51782320e-01
C     7.358171914000000e+00   1.657174985984919e+00   3.428024100000000e+00 -1.15004408e+00   2.17325170e-01  -5.16972450e-01
C     8.595487932399998e+00   2.378676285569584e+00   3.419664000000000e+00 -1.03026116e+00  -1.20409340e+00  -2.30079220e-01
C     1.100429209490000e+01   3.769384532927613e+00   3.349232400000000e+00  9.69863220e-01   1.48825486e+00  -2.56808340e-01
C     1.227392308010000e+01   4.487192539699469e+00   3.292200000000000e+00 -1.17281702e+00   4.97853000e-02   3.62793190e-01
C     3.635764173600000e+00   3.790639069303486e+00   3.267097500000000e+00  4.22885030e-01  -5.08775800e-01  -8.28289300e-02
C     4.880322263400000e+00   4.514472884990869e+00   3.339590400000000e+00 -3.84588470e-01  -2.41177509e+00  -2.38671690e-01
C     6.122165895200000e+00   3.796883647667510e+00   3.407965200000000e+00 -1.34144994e+00  -2.19228780e-01  -3.96460950e-01
C     7.326261700200000e+00   4.519443442991277e+00   3.447729300000000e+00  7.97423840e-01  -7.68011070e-01  -1.89827260e-01
C     8.551251683300000e+00   3.780369116009086e+00   3.456083100000000e+00  8.58722100e-01   1.28565403e+00   5.92151000e-02
C     9.789597973099999e+00   4.507605898152958e+00   3.450824700000000e+00 -1.19633960e-01  -7.68533770e-01  -2.10539680e-01
C     1.227442012270000e+01   5.919144976186842e+00   3.350610900000000e+00 -1.09522365e+00  -7.21351180e-01   2.59461500e-02
C     1.347796598620000e+01   6.605597992646453e+00   3.328839000000000e+00  1.21697763e+00   1.23163408e+00  -1.08467110e-01
C     4.871674747599999e+00   5.883523896238788e+00   3.301583100000000e+00 -9.88944760e-01   1.83098135e+00   4.23776340e-01
C     6.083232452699999e+00   6.586893204799908e+00   3.333825900000000e+00  8.30313990e-01   2.33716814e+00  -3.72447160e-01
C     7.332220689800000e+00   5.932300090342226e+00   3.365882100000000e+00  9.15034700e-01   5.15115300e-02   5.37207510e-01
C     8.602999970600001e+00   6.651177522786597e+00   3.395818800000000e+00 -2.01431522e+00  -1.26972030e-01  -1.40703510e-01
C     9.807900696699999e+00   5.923456834918823e+00   3.457232700000000e+00  1.46675730e-01   2.41681800e-01  -3.29814100e-01
C     1.103597710630000e+01   6.635188652613321e+00   3.403650600000000e+00  1.97939090e-01   4.78331100e-02   3.03600640e-01
C     1.346157403200000e+01   8.052839868958685e+00   3.342430200000000e+00  1.35537853e+00  -9.36121290e-01  -4.05476270e-01
C     9.782539593499999e+00   2.175998602321544e-01   3.230499600000000e+00 -2.68282900e-01  -1.63753370e-01   7.95473030e-01
C     6.077354019300000e+00   8.044432273849973e+00   3.273126300000000e+00  8.17253910e-01  -4.14714120e-01  -3.43593630e-01
C     2.396662607800000e+00   2.431589117909952e-01   3.230669100000000e+00 -5.62642620e-01  -5.70651900e-01   1.73080160e-01
C     8.573132009300000e+00   8.077644925892141e+00   3.308511900000000e+00 -7.14149790e-01  -8.84671930e-01   4.67250900e-02
C     4.866574366800000e+00   2.214592367988000e-01   3.332057400000000e+00  7.91550400e-02   3.10920220e-01   1.71008550e-01
C     1.102164219460000e+01   8.060663139580251e+00   3.427146300000000e+00  3.94637830e-01  -5.12766260e-01  -5.52324370e-01
C     7.327052768000000e+00   2.244528430928784e-01   3.388053600000000e+00 -2.56447820e-01   6.78594280e-01   2.94575490e-01
