32
Lattice="9.86 0 0 4.93 8.53901048131456 0 0 0 30 " PBC="1 1 1" Properties=species:S:1:pos:R:3:force:R:3 Energy="-257.25372186"
C     9.815809895699999e+00   2.092686892672376e-01   3.860445000000000e+00  2.10116087e+00  -5.80242600e-01  -4.87508610e-01
C     1.241677195000000e+00   8.977845598786064e-01   3.868424400000000e+00 -1.76346050e+00  -7.49014300e-02   3.52755660e-01
C     2.457351647300000e+00   1.990398086132456e-01   3.744280200000000e+00 -4.35916180e-01  -8.01648460e-01  -9.89937500e-02
C     3.659017751099999e+00   9.204603291587704e-01   3.759020700000000e+00  9.67231420e-01   2.91235790e-01   5.12039490e-01
C     4.888586964700000e+00   2.043512439120152e-01   3.754450200000000e+00  7.50041860e-01   2.95744070e-01  -2.83931080e-01
C     6.134941004200000e+00   9.189046068394192e-01   3.768126900000000e+00  2.50371520e-01  -1.12501826e+00   4.53307840e-01
C     7.375560664900000e+00   1.716121653910664e-01   3.860529600000000e+00 -7.42308700e-01   1.57911439e+00  -8.32865950e-01
C     8.603095464700001e+00   9.298154982604488e-01   3.835146600000000e+00 -4.89543290e-01  -3.03443020e+00   7.40986020e-01
C     1.109205777900000e+01   2.306376313055214e+00   4.053285600000001e+00 -6.27987820e-01   6.05394640e-01  -4.13281140e-01
C     2.435383271500000e+00   3.044624405383361e+00   4.014609300000000e+00  6.34418980e-01   8.20003570e-01   1.54316950e-01
C     3.677236911200000e+00   2.347487891351803e+00   3.908630100000000e+00 -3.01877790e-01  -3.12367100e-02  -1.82266150e-01
C     4.908722317200001e+00   3.060586633843939e+00   3.883327200000000e+00  5.84375590e-01  -3.27328220e-01  -8.91358340e-01
C     6.148071270400000e+00   2.335217845632672e+00   3.759159600000000e+00 -8.75568370e-01   4.72759400e-02   5.74762220e-01
C     7.365390567900000e+00   3.035279312314049e+00   3.791024100000000e+00  7.23233000e-01   6.21825610e-01  -3.61584870e-01
C     8.600975416799999e+00   2.285468204334515e+00   3.903596100000000e+00  3.45928660e-01   3.94759130e+00   1.18134620e-01
C     9.849576402399999e+00   3.026539720477873e+00   4.073126400000000e+00 -6.75178980e-01  -6.29966420e-01  -9.75858980e-01
C     1.228875942210000e+01   4.498431926853665e+00   4.031216400000000e+00  6.30977530e-01  -1.32313577e+00  -2.94848700e-01
C     3.678184062800000e+00   5.172228763540238e+00   3.874646700000000e+00  1.56129200e-02   1.01002502e+00   5.65937670e-01
C     4.932481022499999e+00   4.483992460131985e+00   3.809411700000000e+00 -1.56163208e+00  -6.81350970e-01   1.09019690e-01
C     6.132411569099999e+00   5.188855497796371e+00   3.658188600000000e+00  8.66530390e-01   3.29435220e-01  -1.41064370e-01
C     7.356191187899999e+00   4.479473957346388e+00   3.662326800000000e+00  1.56525223e+00  -1.19068175e+00   9.61496370e-01
C     8.643509583400000e+00   5.147428915403174e+00   3.764477400000001e+00 -2.14072682e+00   1.04431106e+00  -1.66466620e-01
C     9.833034526900001e+00   4.454662837715491e+00   3.977519400000000e+00  8.07157110e-01  -6.01408370e-01   2.48768300e-01
C     1.105545948030000e+01   5.200852807520771e+00   4.028380500000000e+00  1.86468140e-01  -8.23072430e-01  -1.16592020e-01
C     1.354881067780000e+01   6.615559431492211e+00   3.880476300000000e+00 -1.70005900e-01  -1.18782099e+00  -5.12160910e-01
C     4.921074777299999e+00   7.310848786776735e+00   3.772353600000000e+00 -4.03547120e-01   9.79450400e-01  -3.00152000e-03
C     6.155856627800000e+00   6.613436804267092e+00   3.613579500000000e+00 -6.15206440e-01  -2.14949520e-01   7.62744050e-01
C     7.384642415100000e+00   7.300053086607081e+00   3.645633300000000e+00  7.32724280e-01   4.25051200e-01   1.01781600e-02
C     8.633754148700000e+00   6.586037083609183e+00   3.713343300000000e+00 -6.55636810e-01  -1.00382500e-01  -3.12271400e-01
C     9.841257323199999e+00   7.320885625085032e+00   3.751358100000000e+00  2.38900140e-01  -2.37887480e-01   7.78299440e-01
C     1.106876476150000e+01   6.598817079034180e+00   3.935795699999999e+00 -3.92911950e-01   8.34385340e-01  -6.93399900e-01
C     1.230120910180000e+01   7.303143610670107e+00   3.885041999999999e+00  4.51124100e-01   1.34618540e-01   4.24707840e-01
