32
Lattice="9.86 0 0 4.93 8.53901048131456 0 0 0 30 " PBC="1 1 1" Properties=species:S:1:pos:R:3:force:R:3 Energy="-257.19207675"
C     9.818063004299999e+00   4.342663212287400e-01   3.303291900000000e+00 -2.01047810e-01   1.43485145e+00  -1.60231700e-01
C     1.202812082300000e+00   1.162250608350031e+00   3.233964900000000e+00 -2.35863650e-01  -7.96132930e-01   7.39389830e-01
C     2.431458005500000e+00   4.371142520040296e-01   3.366952200000000e+00 -5.31473000e-02  -1.07525190e-01  -5.38162470e-01
C     3.643588428699999e+00   1.185579014201182e+00   3.349420200000000e+00  5.06735870e-01  -1.15205384e+00   2.00141860e-01
C     4.894444494900000e+00   4.645746850264520e-01   3.366679800000000e+00 -9.91713570e-01  -1.04885754e+00   4.83072700e-02
C     6.130599892699999e+00   1.128855563044009e+00   3.311189400000000e+00 -3.32108810e-01   1.88168200e-01   3.76903860e-01
C     7.334591526800000e+00   4.548339796016016e-01   3.290862000000000e+00  2.35218859e+00  -9.36763260e-01   3.37900290e-01
C     8.587701095999998e+00   1.180710668156219e+00   3.278061300000000e+00 -3.57020360e-01  -3.74030360e-01  -2.45024820e-01
C     1.107334764020000e+01   2.589226082579136e+00   3.193559400000000e+00 -3.35109340e-01  -2.73105030e-01   1.52337810e-01
C     2.430751832300000e+00   3.309513903384489e+00   3.216234000000000e+00  3.64559530e-01  -4.63336740e-01   1.03146560e-01
C     3.644820879400000e+00   2.604973896486561e+00   3.322772700000000e+00  8.25255860e-01  -1.10911440e+00  -9.81545100e-02
C     4.913013684999999e+00   3.231069002758397e+00   3.380226600000000e+00 -4.22170200e-02   2.08208899e+00  -1.69234900e-02
C     6.171564938900000e+00   2.512996201271556e+00   3.379452600000000e+00 -2.09669317e+00   2.94210626e+00  -7.31604420e-01
C     7.326793893700000e+00   3.325150710155674e+00   3.269085300000000e+00  1.68785022e+00  -1.19020480e+00   7.40778160e-01
C     8.579822462999999e+00   2.610051533678389e+00   3.230504100000000e+00  6.66341940e-01  -1.09135610e-01   2.27252720e-01
C     9.851486530899999e+00   3.303124161842305e+00   3.238690500000000e+00 -1.65092881e+00  -2.96075620e-01  -1.60329490e-01
C     1.231066686310000e+01   4.711623864485938e+00   3.200376600000000e+00 -7.77093200e-01   1.76456840e-01   2.50953610e-01
C     3.644815259200000e+00   5.431586007431584e+00   3.301007700000000e+00  1.78341782e+00  -4.69392180e-01   1.65066180e-01
C     4.887150757100000e+00   4.700843876095567e+00   3.382719300000000e+00  3.12265810e-01  -5.36621120e-01  -4.09713910e-01
C     6.112151536899999e+00   5.441582541610415e+00   3.373531500000000e+00 -4.64968620e-01   3.77161310e-01   4.39597330e-01
C     7.343447877400000e+00   4.745442017761246e+00   3.363412800000000e+00 -8.11353200e-02  -3.62742530e-01  -5.26444910e-01
C     8.587854320400000e+00   5.441534808541832e+00   3.334479000000000e+00  3.45014400e-01  -7.94793990e-01   3.40861620e-01
C     9.815946160899999e+00   4.715214518392778e+00   3.304567500000000e+00  9.39829020e-01   1.94132180e-01  -7.68370710e-01
C     1.108403514070000e+01   5.398429627468477e+00   3.215862900000000e+00 -1.40388600e+00   9.52526560e-01   7.02780490e-01
C     1.355063862320000e+01   6.854059800725738e+00   3.336571200000000e+00 -2.05849225e+00  -5.09056030e-01   9.67775900e-02
C     4.873698956299999e+00   7.555310751566978e+00   3.370978800000000e+00  1.54439829e+00   1.38227350e+00  -1.03311390e-01
C     6.108448416700000e+00   6.889031915877312e+00   3.400344900000000e+00  6.57934730e-01  -2.32017626e+00  -1.65593110e-01
C     7.368160882800000e+00   7.518859509020059e+00   3.404200800000000e+00 -6.16288670e-01   2.72118018e+00  -1.00234850e-01
C     8.603902111300000e+00   6.851194364978964e+00   3.383491200000000e+00 -3.76642110e-01  -4.34423450e-01   6.82922800e-02
C     9.815480127999999e+00   7.561180381980825e+00   3.389388300000000e+00  1.50060430e+00   1.12542610e-01  -4.35410610e-01
C     1.107621054050000e+01   6.811350146617817e+00   3.316276800000000e+00 -1.15186050e-01   1.87884766e+00   1.31137650e-01
C     1.232076182690000e+01   7.577803871412976e+00   3.351642600000000e+00 -1.29685433e+00  -1.15879485e+00  -6.62114730e-01
