32
Lattice="9.86 0 0 4.93 8.53901048131456 0 0 0 30 " PBC="1 1 1" Properties=species:S:1:pos:R:3:force:R:3 Energy="-257.49872315"
C     1.241533633400000e+00   8.832059072861024e-01   3.402015000000000e+00 -1.03009614e+00   6.83215730e-01  -4.70610880e-01
C     2.436091811100000e+00   1.625236439696470e+00   3.388164000000000e+00  7.82884060e-01  -1.77372364e+00   1.40047570e-01
C     3.664816170600000e+00   9.039101044365392e-01   3.418331700000000e+00  7.87560600e-01  -7.42464480e-01  -2.10822920e-01
C     4.923300622999999e+00   1.559388287330474e+00   3.405663600000000e+00  1.64621840e-01   1.09238954e+00   1.26402010e-01
C     6.174663936899999e+00   8.480664275291209e-01   3.446880600000000e+00 -1.19187978e+00   2.13401511e+00  -5.81540710e-01
C     7.370500710099999e+00   1.617350321957771e+00   3.385419600000000e+00  1.46302080e+00  -1.34138787e+00   4.37605980e-01
C     8.624217458100000e+00   8.787600714796905e-01   3.402653400000000e+00  1.73323640e-01   7.74284860e-01  -5.61039830e-01
C     9.881286458199998e+00   1.605399208280067e+00   3.374525700000000e+00 -1.52937864e+00  -3.06845650e-01   3.45038300e-02
C     2.430294870600000e+00   3.004597879148466e+00   3.379253100000000e+00  1.44950070e+00   2.11423914e+00  -4.92900200e-02
C     3.695692169000000e+00   3.711099382143754e+00   3.398682600000000e+00 -3.37566850e-01   3.17843680e-01   2.26950000e-02
C     4.927610478300000e+00   3.005368524844286e+00   3.377778300000000e+00 -1.58231810e-01  -4.68558870e-01   9.28979200e-02
C     6.147318558000000e+00   3.741650083058888e+00   3.370615500000000e+00  3.30780930e-01  -8.82771400e-01   1.18134800e-01
C     7.390785786699999e+00   3.032704629874119e+00   3.389558700000000e+00 -4.72487930e-01   7.03606100e-02   3.18420900e-02
C     8.626177478199999e+00   3.740290331030053e+00   3.415962000000000e+00  2.07498900e-02  -7.01409990e-01  -6.12008520e-01
C     9.852112542300000e+00   3.034221158135367e+00   3.343746900000000e+00  7.44815750e-01  -2.40705750e-01   4.59617980e-01
C     1.109869104470000e+01   3.752447064080114e+00   3.351965700000000e+00 -1.42760653e+00   1.15496600e-02   3.03619850e-01
C     3.724040112700000e+00   5.152064829582871e+00   3.441491700000000e+00 -2.26877465e+00  -7.52442830e-01  -3.65648430e-01
C     4.916330391800000e+00   5.851421144778810e+00   3.412243500000000e+00  1.23771845e+00   9.55932430e-01  -4.72594800e-02
C     6.154579708500000e+00   5.147093759241834e+00   3.381395400000000e+00 -1.11547630e-01   9.21102000e-03   4.84212500e-01
C     7.390350714199999e+00   5.822712820764840e+00   3.460467000000000e+00 -3.53429950e-01   2.44917995e+00  -8.29469970e-01
C     8.630129957799999e+00   5.145705572308101e+00   3.407660100000000e+00 -4.50210230e-01   7.12238760e-01   5.60761250e-01
C     9.834812334199999e+00   5.892240859697192e+00   3.441137700000000e+00  8.24438340e-01  -2.85056140e-01  -2.64050590e-01
C     1.107001496020000e+01   5.180209151954637e+00   3.421331100000000e+00  1.12886702e+00  -7.37679700e-02  -1.12637390e-01
C     1.233173270380000e+01   5.884789548372134e+00   3.440463600000000e+00 -4.17382040e-01  -4.74183810e-01   1.83543710e-01
C     4.904971326700000e+00   7.280061896831724e+00   3.399965700000000e+00  7.79731930e-01   8.65775000e-03  -3.58661620e-01
C     6.137845858799999e+00   8.018467277732912e+00   3.372932700000000e+00  2.54758180e-01  -1.24813857e+00   4.87928070e-01
C     7.363517414400000e+00   7.300745514966904e+00   3.419139300000000e+00  9.94347990e-01  -1.42394599e+00   6.97360100e-02
C     8.616989585100001e+00   8.005354004728881e+00   3.415865400000000e+00 -9.69554570e-01   5.79070510e-01   2.09737460e-01
C     9.858588639600001e+00   7.318928996223645e+00   3.438447600000000e+00 -9.74174270e-01  -1.00988220e+00   6.76463700e-02
C     1.108511722640000e+01   7.999518701137164e+00   3.442460100000000e+00  4.50419810e-01  -2.10871970e-01   2.35134430e-01
C     1.231354627890000e+01   7.311650770641017e+00   3.457457700000000e+00  3.34745010e-01  -1.60219479e+00  -5.65372050e-01
C     1.354928967660000e+01   7.979014316831958e+00   3.358682100000000e+00 -2.29963910e-01   1.62616317e+00   9.62345600e-01
