32
Lattice="9.86 0 0 4.93 8.53901048131456 0 0 0 30 " PBC="1 1 1" Properties=species:S:1:pos:R:3:force:R:3 Energy="-256.59659939"
C     1.269601355900000e+00   7.261295286549304e-01   3.677958900000000e+00  1.74867730e-01  -4.67466130e-01  -3.47885890e-01
C     2.495010635500000e+00   1.413538828898196e+00   3.467374500000000e+00 -2.86830090e-01   1.86037883e+00  -7.56028000e-03
C     3.727060132100000e+00   7.253502585585255e-01   3.601056600000000e+00 -2.39540180e-01   1.07865509e+00  -2.40407180e-01
C     4.957673174600000e+00   1.461450277410323e+00   3.594816000000000e+00 -7.12175200e-01   1.74250000e-02   1.11685150e-01
C     6.148627472999999e+00   7.217117008028928e-01   3.729651600000000e+00  2.17103581e+00   1.93646290e-01  -5.12539910e-01
C     7.407215554000000e+00   1.425548349407582e+00   3.812018700000000e+00 -1.41803450e-01   1.48975774e+00  -6.70697600e-01
C     8.665227367300000e+00   7.532921209918103e-01   3.735888000000000e+00 -1.27054510e+00  -9.76341410e-01   6.69625800e-02
C     9.904985411900000e+00   1.435492283281857e+00   3.647042100000000e+00 -1.78301710e-01   5.98432270e-01  -1.08878460e-01
C     2.474501786200000e+00   2.858513341757674e+00   3.190851000000000e+00  2.16966160e-01  -4.10573220e-01   6.79060000e-01
C     3.727813041700000e+00   3.591036369119399e+00   3.259049100000000e+00 -2.30884990e-01  -9.48007680e-01   2.54005460e-01
C     4.951472812200000e+00   2.900540814318347e+00   3.499984200000000e+00  2.33636800e-02  -1.12462157e+00   1.86405200e-02
C     6.182643832099999e+00   3.612303628620887e+00   3.661962000000000e+00 -4.43249610e-01  -2.29834762e+00   4.00064400e-01
C     7.403359800999999e+00   2.889165315337101e+00   3.784403700000000e+00  6.64130280e-01  -1.64558792e+00  -1.79564030e-01
C     8.660663271899999e+00   3.553126065851762e+00   3.681286800000000e+00 -9.65157900e-02   1.31649688e+00   2.55163430e-01
C     9.905818581900000e+00   2.861312002442494e+00   3.491825700000000e+00 -1.42540931e+00  -3.04450970e-01   5.15916900e-02
C     1.106851387380000e+01   3.581559860678800e+00   3.158735700000000e+00  1.84627901e+00  -7.90106630e-01   8.09687510e-01
C     3.753512786600000e+00   5.004804043498459e+00   3.293435700000000e+00 -5.38844690e-01   4.04485950e-01  -8.70466500e-02
C     4.963022471100000e+00   5.728046874270521e+00   3.554259000000000e+00 -7.40734410e-01   2.11772800e-02   1.56977850e-01
C     6.163256853600000e+00   4.972008949068761e+00   3.752810400000000e+00  7.03636590e-01   3.36041825e+00  -5.96167470e-01
C     7.409381549500000e+00   5.701567573552251e+00   3.824982000000000e+00  4.83879420e-01  -2.86973420e-01   3.07798310e-01
C     8.658164846500000e+00   5.009548915451880e+00   3.756910500000000e+00  4.05401740e-01  -9.99112530e-01  -1.62620763e+00
C     9.883080830299999e+00   5.710589892025419e+00   3.439661100000000e+00 -3.69904900e-01   6.44718730e-01   7.02240680e-01
C     1.109815495650000e+01   5.000230805655685e+00   3.151002900000000e+00  4.48043700e-02   4.86244870e-01   7.64697640e-01
C     1.236642930430000e+01   5.691377801566256e+00   3.208786200000000e+00 -3.60978660e-01   9.35578040e-01   1.43492230e-01
C     4.911563722700000e+00   7.173719963577367e+00   3.652246800000000e+00  2.31318330e+00  -1.75299543e+00   5.36819050e-01
C     6.187579698800000e+00   7.843103156527038e+00   3.830207100000000e+00 -5.08802320e-01   8.43987700e-02  -8.06512890e-01
C     7.431833311800000e+00   7.117653760056840e+00   3.837474300000000e+00 -1.19103255e+00   7.79052160e-01  -3.06733150e-01
C     8.632049601199999e+00   7.869553936950306e+00   3.712873800000000e+00  1.57144993e+00  -1.62757297e+00   2.67107500e-02
C     9.892427913099999e+00   7.152819710746310e+00   3.565359600000000e+00 -4.80174550e-01  -7.37148380e-01  -1.11316590e-01
C     1.113502603210000e+01   7.842993942582999e+00   3.546831900000000e+00 -7.51950020e-01  -1.64120520e-01   3.06692800e-02
C     1.237621939690000e+01   7.118976196609878e+00   3.407490600000000e+00 -1.74021337e+00   5.54438500e-02   4.01474270e-01
C     1.355041307570000e+01   7.845385719418447e+00   3.614576400000000e+00  1.08889286e+00   1.20711641e+00  -1.16223050e-01
