32
Lattice="9.86 0 0 4.93 8.53901048131456 0 0 0 30 " PBC="1 1 1" Properties=species:S:1:pos:R:3:force:R:3 Energy="-256.86436994"
C     1.246746615400000e+00   8.345759010420832e-01   3.457858200000000e+00 -2.17500291e+00   1.64292011e+00   2.85157670e-01
C     2.430375180300000e+00   1.587089093497908e+00   3.561995100000000e+00  1.69697367e+00  -2.87089490e-01   5.22669900e-02
C     3.689649073600000e+00   8.600976371251263e-01   3.434878800000000e+00 -4.09331760e-01   8.27379580e-01  -4.79100300e-02
C     4.917616973900000e+00   1.602404321134417e+00   3.425889900000000e+00 -6.17828910e-01  -4.65367310e-01   2.88885390e-01
C     6.146326937800000e+00   8.720068242613728e-01   3.341600700000000e+00 -6.98655570e-01  -5.56766080e-01   9.94889200e-02
C     7.367414677999998e+00   1.562017448657266e+00   3.332190900000000e+00 -3.77068640e-01   1.45601842e+00   5.31505690e-01
C     8.582418798199999e+00   9.302555134704832e-01   3.415845900000000e+00  1.85077156e+00  -3.25169696e+00   2.49501000e-03
C     9.837640379400000e+00   1.554253438768430e+00   3.514661700000000e+00  6.42894330e-01   2.39434678e+00  -1.94215940e-01
C     2.431008537400000e+00   3.008472028203241e+00   3.771431100000000e+00  3.63343610e-01  -5.29881940e-01  -5.88281080e-01
C     3.683809094200000e+00   3.733546562113368e+00   3.713438100000000e+00 -4.96547070e-01  -1.39283505e+00  -2.16369100e-01
C     4.887845049000000e+00   3.033503625084732e+00   3.547443000000000e+00  1.86519701e+00  -1.39655471e+00  -4.02038840e-01
C     6.176182672700000e+00   3.692973368427543e+00   3.420847200000000e+00 -1.83856342e+00   1.00114560e+00  -4.06536700e-02
C     7.394695523200000e+00   2.968455663390817e+00   3.377481000000000e+00 -5.38902190e-01   1.51192817e+00  -1.47230930e-01
C     8.604911232999999e+00   3.729695809947307e+00   3.439265700000000e+00  3.30319570e-01  -6.70842950e-01  -2.57999390e-01
C     9.832505340700001e+00   3.050015253479594e+00   3.578103000000000e+00 -1.87583230e-01  -3.42665813e+00   1.26957300e-01
C     1.104578021410000e+01   3.700191393986287e+00   3.773847600000000e+00  7.44417760e-01   1.04190630e+00  -4.50508220e-01
C     3.703268691599999e+00   5.119893680648947e+00   3.642884100000000e+00 -1.27524482e+00   1.60597209e+00   2.68084530e-01
C     4.878484211500000e+00   5.891278769386409e+00   3.490596900000000e+00  1.90957149e+00  -2.05177431e+00  -4.09459280e-01
C     6.134108968100000e+00   5.123453850288374e+00   3.349159200000000e+00  8.75539420e-01   1.35081818e+00   5.00575920e-01
C     7.406562822000000e+00   5.857631737881124e+00   3.269386500000000e+00 -1.55461921e+00  -7.80152850e-01  -4.76197000e-02
C     8.643460431299999e+00   5.139213960370890e+00   3.329742000000000e+00 -1.79626897e+00   3.55560120e-01   6.58667700e-01
C     9.829816765199999e+00   5.865510512070809e+00   3.473581800000000e+00  1.49004253e+00  -1.19571016e+00   1.54816830e-01
C     1.105224063400000e+01   5.121676967597590e+00   3.716187000000000e+00  1.86420210e-01   7.80882210e-01  -6.44066790e-01
C     1.230639472230000e+01   5.795131389963916e+00   3.655081200000000e+00 -1.58045860e-01   1.90223497e+00  -8.45111200e-02
C     4.894714215200000e+00   7.299504455183741e+00   3.437110800000000e+00  4.44349390e-01   2.53902350e-01  -2.94232550e-01
C     6.151238105200000e+00   7.981584558986438e+00   3.323694600000000e+00 -1.75251250e-01  -4.94148040e-01   4.26035620e-01
C     7.375570722099999e+00   7.278811614917242e+00   3.264477600000000e+00  4.78984090e-01  -6.12960390e-01   1.51372850e-01
C     8.618206161200000e+00   7.972585125061357e+00   3.313813800000000e+00 -6.79224210e-01   1.03145302e+00   4.78614100e-02
C     9.832437405299999e+00   7.266339365429945e+00   3.368646300000000e+00  6.37539570e-01   3.53245760e-01   9.05739200e-02
C     1.106564382500000e+01   7.975107719537358e+00   3.388849200000000e+00  5.65936630e-01  -6.72092200e-02   2.22365040e-01
C     1.230761820040000e+01   7.246702459199403e+00   3.502345500000000e+00  6.14734100e-02   5.33604410e-01  -7.60024000e-02
C     1.354033216240000e+01   8.024140937856243e+00   3.457832700000000e+00 -1.16563624e+00  -8.63670490e-01  -6.01178000e-03
