32
Lattice="9.86 0 0 4.93 8.53901048131456 0 0 0 30 " PBC="1 1 1" Properties=species:S:1:pos:R:3:force:R:3 Energy="-256.5086655"
C     9.852117077899999e+00   2.867557690877880e-01  -1.501229999999971e-01  2.71417255e+00  -1.16407066e+00   6.22105100e-02
C     1.286379230500000e+00   1.021528398760470e+00  -1.058252999999993e-01 -3.07395492e+00  -9.55244800e-01   4.87920710e-01
C     2.488189093100000e+00   3.045015406673240e-01  -1.282992000000007e-01 -7.27816200e-02  -1.24570097e+00  -2.22072570e-01
C     3.725565405400000e+00   9.699385153137680e-01  -9.482429999999908e-02 -7.80116050e-01  -1.02539747e+00  -2.34449800e-02
C     4.925210406400000e+00   2.565485925642640e-01  -1.080437999999972e-01  1.22500016e+00  -1.12218048e+00  -1.12576550e-01
C     6.185502985599999e+00   9.154278633323825e-01  -1.575167999999998e-01 -1.03469955e+00   2.30939732e+00   5.78090210e-01
C     7.422519900900000e+00   2.235600895471944e-01  -1.277316000000006e-01 -1.09167839e+00   1.21706097e+00  -2.08677900e-02
C     8.644242230700000e+00   9.498483584069479e-01  -1.583462999999981e-01 -4.93520790e-01   8.82934770e-01   1.21607690e-01
C     1.107618529890000e+01   2.421090148354478e+00   7.096260000000000e-02  9.71280900e-02  -2.15332920e-01  -7.61115640e-01
C     2.470442177700000e+00   3.061868766267511e+00   9.898020000000000e-02 -7.40699060e-01   2.76890085e+00   1.51215520e-01
C     3.656044665300000e+00   2.327436159992143e+00  -1.752839999999978e-02  2.14842623e+00   3.48275827e+00   3.97466950e-01
C     4.906078456800000e+00   3.084049956060674e+00  -2.128409999999903e-02  3.16040890e-01   4.47644600e-01  -6.32593290e-01
C     6.123453068900000e+00   2.390232384622482e+00  -1.275329999999997e-01  2.23156514e+00  -1.45325026e+00   1.89706140e-01
C     7.420061852200000e+00   3.100511289683808e+00  -1.239131999999969e-01 -2.58269535e+00  -1.17156172e+00  -7.14361330e-01
C     8.643744793699998e+00   2.374681992637354e+00  -1.430790000000002e-01 -4.73853650e-01   1.37131806e+00   4.63539740e-01
C     9.832169361200000e+00   3.148989813881912e+00  -6.862800000000391e-03  1.98739988e+00  -1.35995361e+00   3.33757000e-02
C     1.235660696950000e+01   4.543887641341849e+00   1.435020000000000e-01 -8.05188700e-02  -6.16744600e-01  -7.14607170e-01
C     3.732419978800000e+00   5.252263200967183e+00   1.849800000000000e-02 -5.15204710e-01  -3.07994200e-01  -2.60993420e-01
C     4.975969439900000e+00   4.528964866627001e+00  -6.383849999999924e-02 -1.59373101e+00   2.65396040e-01   3.89141120e-01
C     6.181148168700000e+00   5.282910648871055e+00  -1.588256999999977e-01 -1.33852420e-01  -1.82243894e+00  -8.60737000e-03
C     7.359678571300000e+00   4.494264718959215e+00  -2.163173999999977e-01  3.27110077e+00   1.67096472e+00   6.15085790e-01
C     8.668058124000000e+00   5.200063205221684e+00  -1.881789000000005e-01 -1.58450201e+00   1.46511760e+00  -4.34890500e-02
C     9.930882159599999e+00   4.571454555824957e+00  -1.404120000000120e-02 -3.19889820e+00  -1.38527846e+00  -4.00435590e-01
C     1.110878911440000e+01   5.301521336822110e+00   5.671110000000000e-02  1.83346432e+00  -2.96188468e+00   3.26083700e-01
C     1.354349510250000e+01   6.680056370839852e+00  -1.184453999999988e-01  4.14447860e-01  -6.00323310e-01   1.11596113e+00
C     4.932578192799999e+00   7.377762436870426e+00  -1.378479000000006e-01 -3.58501890e-01   1.14410985e+00  -1.85815170e-01
C     6.183910842100000e+00   6.697262476957052e+00  -1.439255999999993e-01 -3.75882580e-01   2.45633850e-01  -5.00932970e-01
C     7.400785798699999e+00   7.428034921780273e+00  -2.091159000000005e-01  4.97033550e-01  -1.64270853e+00   9.39370400e-02
C     8.641579488400000e+00   6.643607689996077e+00  -2.378490000000006e-01 -1.47898278e+00   2.66305390e-01   8.46041360e-01
C     9.826430003099999e+00   7.364075854702767e+00  -8.051309999999745e-02  1.20536546e+00   3.09277050e-01  -6.10126230e-01
C     1.107487465840000e+01   6.662982192434568e+00  -1.443270000000041e-02 -3.67865420e-01   2.04139630e+00   1.35344610e-01
C     1.228533257910000e+01   7.378475017294981e+00  -2.379419999999755e-02  2.09079435e+00  -8.38150020e-01  -7.94688800e-01
