32
Lattice="9.86 0 0 4.93 8.53901048131456 0 0 0 30 " PBC="1 1 1" Properties=species:S:1:pos:R:3:force:R:3 Energy="-256.87232053"
C     1.474410717230000e+01   8.533143923629925e+00  -5.381279999999933e-02 -4.57686400e-02  -1.52664360e+00  -1.17930610e-01
C     1.172285768800000e+00   6.927388382442528e-01  -1.039469999999980e-01  9.14593110e-01   3.16171790e-01   2.03687230e-01
C     7.314262721099999e+00   8.492521972194259e+00   1.570020000000000e-02  2.34396927e+00   1.59623936e+00  -4.09966850e-01
C     3.686745402200000e+00   6.866481328490783e-01  -5.052959999999729e-02 -1.71556715e+00   2.86027770e-01  -9.56113350e-01
C     9.845626092000000e+00   8.524871757227425e+00  -1.029677999999983e-01 -3.75457080e-01   1.52884940e-01   5.88827270e-01
C     6.163366201000000e+00   6.840297306754912e-01  -1.034427000000022e-01 -9.35424790e-01   6.91419760e-01   3.57770540e-01
C     1.229235413160000e+01   8.514255717838271e+00  -6.354149999999947e-02  3.72496460e-01  -1.50585036e+00  -1.23080147e+00
C     8.578268921399999e+00   6.694380987870576e-01  -7.863090000000028e-02  7.29057460e-01   6.56389430e-01   5.67185400e-02
C     1.107600786820000e+01   2.122407089428226e+00  -2.812337999999990e-01  6.37668200e-02  -6.13797920e-01   6.01864430e-01
C     2.459041010400000e+00   2.815562460603693e+00  -3.824936999999977e-01  1.14822900e-01   5.07151470e-01  -1.35810440e-01
C     3.701169744100000e+00   2.117727797075290e+00  -2.856030000000018e-01 -6.10367730e-01  -1.47988827e+00   8.93187300e-01
C     4.936510114300000e+00   2.810061032321743e+00  -2.073158999999976e-01 -2.91830570e-01  -5.70674640e-01   3.19922600e-02
C     6.179069384900000e+00   2.115643083056703e+00  -7.431330000000003e-02 -6.16211540e-01  -7.57477010e-01  -1.66180310e-01
C     7.409237149800000e+00   2.808889394693783e+00  -2.747190000000188e-02 -1.24168012e+00   1.96263450e-01  -3.25758300e-01
C     8.603923113099999e+00   2.081492676883620e+00  -1.141164000000003e-01  1.15556337e+00   1.12435800e+00   5.48236030e-01
C     9.852914505399999e+00   2.830479428791414e+00  -1.920275999999994e-01 -7.45863310e-01  -1.08194727e+00  -9.25062610e-01
C     1.231539325410000e+01   4.252903098094050e+00  -4.926570000000012e-01 -1.32063651e+00  -7.93678000e-01   3.21417120e-01
C     3.685429535900000e+00   4.940948554618076e+00  -4.136708999999996e-01 -9.03645000e-02   2.56673690e-01   1.40275320e-01
C     4.871204819999999e+00   4.196777121500163e+00  -2.192940000000014e-01  2.43874744e+00   2.46164586e+00  -2.86848280e-01
C     6.143366670000000e+00   4.960470525767557e+00  -9.414089999999931e-02 -1.62226070e+00  -1.21435435e+00   6.96925530e-01
C     7.349918058699999e+00   4.230894140142269e+00  -3.241199999997946e-03  9.16133380e-01   3.15088820e-01  -7.01882960e-01
C     8.568642258300001e+00   4.941041971392727e+00  -1.073292000000023e-01  1.69509231e+00   8.45707880e-01  -4.86484800e-02
C     9.830743950300000e+00   4.235010967874887e+00  -3.184248000000025e-01 -1.44735184e+00   4.14186440e-01   9.48614920e-01
C     1.103626915950000e+01   4.939216501732314e+00  -4.375380000000000e-01  1.84121775e+00   1.30333296e+00   3.59130150e-01
C     3.716355869600000e+00   6.367982777239284e+00  -3.684963000000003e-01 -1.07017536e+00   5.06158040e-01   1.10470952e+00
C     4.904614098900000e+00   7.082529650518723e+00  -6.324569999999952e-02  4.32636020e-01   4.00855470e-01  -6.78735970e-01
C     6.151717892799999e+00   6.373596493509044e+00   2.871390000000000e-02 -1.20094045e+00  -3.08334170e-01  -6.32922390e-01
C     7.361486648799999e+00   7.084498319384886e+00   6.744509999999999e-02  4.24202970e-01   1.29934460e-01  -3.79719800e-02
C     8.608908526299999e+00   6.388216731082586e+00  -3.035909999999831e-02 -7.51852900e-01  -7.36575840e-01   4.36423300e-02
C     9.814989099999998e+00   7.118975769659354e+00  -8.870939999999905e-02  2.02251153e+00  -1.51545769e+00  -6.51598890e-01
C     1.109139306710000e+01   6.381809399178814e+00  -2.781993000000007e-01 -1.93121559e+00  -2.71737960e-01  -3.28738080e-01
C     1.231180924270000e+01   7.082826637303216e+00  -3.078873000000009e-01  5.48157990e-01   2.15927510e-01   7.37972490e-01
