32
Lattice="9.86 0 0 4.93 8.53901048131456 0 0 0 30 " PBC="1 1 1" Properties=species:S:1:pos:R:3:force:R:3 Energy="-257.09148513"
C     9.853620333500000e+00   5.241532397277175e-01  -1.812506999999997e-01 -5.68057410e-01   8.55807630e-01   1.23509650e-01
C     1.239087860400000e+00   1.262768338726294e+00  -1.513631999999987e-01 -1.21708002e+00   1.54271270e-01   2.29286790e-01
C     2.475840626300000e+00   5.814810820466648e-01  -1.077690000000011e-01 -2.29313205e+00  -2.08401270e+00   3.42687800e-02
C     3.664102848900000e+00   1.248912342590713e+00  -3.499379999999874e-02  1.29331671e+00   4.45341670e-01   2.73706370e-01
C     4.868362083400000e+00   5.296015553644816e-01  -4.323809999999995e-02  2.07088927e+00   2.55255360e-01   3.23867300e-02
C     6.129474225799999e+00   1.269772547462619e+00  -6.634170000000239e-02 -1.18769618e+00   1.92563090e-01  -1.93824690e-01
C     7.349114912399999e+00   5.568874510126928e-01  -9.566669999999888e-02  2.09198370e-01   2.23687210e-01   5.58579900e-02
C     8.589986446799999e+00   1.258360843076938e+00  -1.858235999999991e-01  7.86458250e-01  -2.14751780e-01   5.61979860e-01
C     1.106507500160000e+01   2.692401579967299e+00  -3.256650000000150e-02  1.27183070e-01  -5.36441630e-01   5.47736610e-01
C     2.435322188800000e+00   3.396779089495792e+00   1.379559000000000e-01 -2.36614710e-01  -6.85879710e-01  -7.47554280e-01
C     3.681394725300000e+00   2.647729832031284e+00   8.152740000000000e-02 -2.46993161e+00   1.24504520e+00  -2.03676310e-01
C     4.834947282899999e+00   3.374134572993984e+00   1.323810000000000e-02  3.51606093e+00   2.09303008e+00  -9.81281500e-02
C     6.107587983800000e+00   2.710660716856893e+00  -9.062670000000139e-02  8.32249700e-02  -9.87502050e-01   3.17499110e-01
C     7.356849589399999e+00   3.412153065524403e+00  -8.518619999999899e-02 -7.21555600e-01   1.14258410e-01   2.26932710e-01
C     8.581950251000000e+00   2.686818262574846e+00  -1.065855000000013e-01  5.89004140e-01   2.11771760e-01   7.91467000e-02
C     9.831720829800000e+00   3.400921705040060e+00   1.563030000000000e-02  2.48002690e-01  -3.50294470e-01  -6.64046400e-01
C     1.225613396390000e+01   4.815003785784993e+00   1.365279000000000e-01  2.54175498e+00   1.04822680e-01  -2.48458960e-01
C     3.646779469800000e+00   5.546195752193096e+00   2.334960000000000e-02 -1.43409090e-01  -8.04713410e-01   6.38477490e-01
C     4.898244292399999e+00   4.837623197595989e+00   3.528900000000000e-03 -1.23691151e+00  -5.43917120e-01  -5.35885010e-01
C     6.128987437599999e+00   5.554506600313070e+00  -1.259595000000004e-01  3.53796670e-01  -9.06700160e-01   8.48457240e-01
C     7.357646030900000e+00   4.847270657026398e+00  -1.087049999999934e-02  7.77409530e-01  -1.42932841e+00  -6.71968880e-01
C     8.626724313800000e+00   5.495770845946181e+00   3.410970000000000e-02 -1.01522877e+00   1.32709654e+00  -5.21288000e-02
C     9.890710498299999e+00   4.824289959681993e+00   6.099630000000000e-02 -2.81329499e+00  -8.19751060e-01   1.76427480e-01
C     1.107049810020000e+01   5.544405121695440e+00   1.064103000000000e-01  1.70172370e-01   8.72774800e-02   2.01716540e-01
C     1.347780689510000e+01   6.955996885423986e+00  -6.242700000001378e-03  1.58666552e+00   4.79639530e-01  -3.68895900e-01
C     4.903485621900000e+00   7.636335714209602e+00  -1.221005999999996e-01 -7.88954600e-01   8.95242880e-01  -3.02316000e-01
C     6.160129310899999e+00   6.962637844654492e+00  -1.739876999999979e-01 -1.76368553e+00  -7.12873000e-03   6.05767820e-01
C     7.360798125000000e+00   7.677390849646918e+00  -8.995439999999988e-02  1.08024730e+00   3.59688000e-03  -2.94181740e-01
C     8.566660398300000e+00   6.923072851936041e+00   9.102000000000001e-03  1.67626092e+00   7.00145260e-01  -3.09005330e-01
C     9.831353544799999e+00   7.645441458815160e+00  -8.880300000001284e-03 -1.52375460e+00   2.21191170e-01   4.18496860e-01
C     1.105826538980000e+01   6.961912284934006e+00   9.072179999999999e-02 -5.51405030e-01  -7.70675100e-02  -4.68879220e-01
C     1.225112444300000e+01   7.684264753083318e+00   2.266740000000000e-02  1.42106600e+00  -1.62555370e-01  -2.12705070e-01
