32
Lattice="9.86 0 0 4.93 8.53901048131456 0 0 0 30 " PBC="1 1 1" Properties=species:S:1:pos:R:3:force:R:3 Energy="-256.36533787"
C     1.207403982900000e+00   8.799015664006569e-01   3.508066200000000e+00 -9.94314060e-01  -1.30940485e+00   2.99214540e-01
C     2.396365871100000e+00   1.611313241548410e+00   3.604325700000000e+00  2.25186414e+00  -1.69288302e+00  -5.50634060e-01
C     3.652635619600000e+00   8.844271565649520e-01   3.481257000000000e+00 -6.60454160e-01  -2.24484884e+00   4.03595100e-02
C     4.926467457799999e+00   1.464894914237955e+00   3.533216100000000e+00 -5.32679490e-01   3.66966603e+00  -4.34272680e-01
C     6.180187558199999e+00   8.283357629635089e-01   3.415243500000000e+00 -5.11605530e-01   8.10728940e-01   3.99308640e-01
C     7.401252226000000e+00   1.600961142973192e+00   3.465184200000000e+00 -1.35948893e+00  -9.00756610e-01  -5.06121470e-01
C     8.605357545899999e+00   8.554854613945639e-01   3.478902900000000e+00  6.76661390e-01  -1.03780189e+00   3.58754790e-01
C     9.830487393100000e+00   1.540117192308895e+00   3.592472400000000e+00  3.32806250e-01   2.45232276e+00  -3.59450650e-01
C     2.454361799500000e+00   2.987478443987637e+00   3.711493500000000e+00 -1.02265395e+00   1.45735194e+00   1.39109470e-01
C     3.708537974200000e+00   3.642510122023573e+00   3.734669400000000e+00 -1.02035689e+00   1.65420530e+00  -3.91917300e-01
C     4.883964843199999e+00   2.931209524358315e+00   3.578402100000000e+00  2.28721284e+00   5.94752600e-02  -4.24163640e-01
C     6.103523839699999e+00   3.735247789171298e+00   3.373531500000000e+00 -2.36639400e-01  -2.81993420e+00   1.15603567e+00
C     7.347006499300000e+00   3.045634399542935e+00   3.412652700000000e+00 -1.44181080e-01  -2.64855637e+00  -4.40923000e-02
C     8.573781240999999e+00   3.671296321813120e+00   3.474043200000000e+00  2.24200621e+00   2.27446006e+00   8.64492030e-01
C     9.853876003299998e+00   3.014328508540950e+00   3.646318200000000e+00 -7.06269130e-01  -1.19850866e+00  -7.73347760e-01
C     1.109654373390000e+01   3.743120415273439e+00   3.670523400000000e+00 -9.70104520e-01   5.09048860e-01   5.14987420e-01
C     3.717360899400000e+00   5.096992054541587e+00   3.701126400000000e+00 -2.21695486e+00   5.01170070e-01  -4.22817030e-01
C     4.881029028200000e+00   5.822721018214901e+00   3.546079500000000e+00  2.29511711e+00  -1.52125303e+00  -3.49180720e-01
C     6.128055371799999e+00   5.103306482011337e+00   3.408864000000000e+00 -1.53192470e-01   2.05016855e+00  -1.20112490e-01
C     7.379163854000000e+00   5.825405683109812e+00   3.339731400000000e+00 -1.01043403e+00   1.05618210e-01   7.69721090e-01
C     8.590443359199998e+00   5.109071680327014e+00   3.493521600000000e+00  6.51201460e-01   7.59300950e-01  -8.27115440e-01
C     9.829390221600001e+00   5.874297324634940e+00   3.534067500000000e+00 -2.97981810e-01  -9.87374800e-01  -2.58210460e-01
C     1.107605539340000e+01   5.212496175260774e+00   3.653868300000000e+00  5.07062060e-01  -2.03666970e+00  -2.18657580e-01
C     1.233455631200000e+01   5.905406989176094e+00   3.624594000000000e+00 -5.21505220e-01  -3.56607170e+00   2.76964510e-01
C     4.910670012299999e+00   7.203384998325515e+00   3.471232500000000e+00  2.54771280e-01   2.46307407e+00   5.47593300e-02
C     6.114975490199999e+00   7.990303742587566e+00   3.411014100000000e+00  7.32206010e-01  -9.70938150e-01   1.84524230e-01
C     7.343739979900000e+00   7.269817475178659e+00   3.364904100000000e+00 -6.97118500e-02  -6.83956060e-01  -3.42989580e-01
C     8.555425865000000e+00   7.970150482393299e+00   3.336646800000000e+00  1.20212368e+00   1.34383032e+00   7.14947900e-01
C     9.823709777000001e+00   7.278114233931341e+00   3.384284100000000e+00 -1.08741086e+00   1.76898950e-01   3.14577910e-01
C     1.105215766210000e+01   7.971978769927173e+00   3.412699200000000e+00  1.29724686e+00  -3.78584640e-01  -1.92183050e-01
C     1.229601638210000e+01   7.267015142719332e+00   3.467663400000000e+00  1.20879538e+00   7.77321320e-01   3.03030400e-01
C     1.357632900110000e+01   7.911472024786730e+00   3.477777000000000e+00 -2.42313641e+00   2.93290093e+00  -1.75521230e-01
