32
Lattice="9.86 0 0 4.93 8.53901048131456 0 0 0 30 " PBC="1 1 1" Properties=species:S:1:pos:R:3:force:R:3 Energy="-257.46070955"
C     1.196852451800000e+00   3.472318591806064e-01   3.573693900000000e+00 -1.81123560e-01   1.72729883e+00   5.96760580e-01
C     2.428190746600000e+00   1.090566383881374e+00   3.636066600000000e+00 -1.91416720e-01  -7.22284600e-01  -5.07185520e-01
C     3.663154316900000e+00   3.651671114026936e-01   3.615778800000000e+00  1.70428260e-01  -3.05358990e-01   3.65843130e-01
C     4.916645813200001e+00   1.051296499365112e+00   3.615926700000000e+00 -9.00314670e-01   7.11807760e-01  -1.46459070e-01
C     6.153384232800000e+00   3.605083126749104e-01   3.587120100000000e+00 -1.32107639e+00  -1.71353880e-01   3.15834930e-01
C     7.360580317600000e+00   1.096987207421706e+00   3.547870800000000e+00 -4.22391340e-01  -1.50716611e+00  -7.74416500e-02
C     8.551420042799998e+00   3.700607329186768e-01   3.565340400000000e+00  2.08372746e+00  -2.69971460e-01   7.18269600e-02
C     9.809783463700001e+00   1.071396049183460e+00   3.550088100000000e+00  2.78224310e-01  -7.75121290e-01   2.27929710e-01
C     2.417836711300000e+00   2.516546209488511e+00   3.626695500000000e+00  1.73190120e-01  -4.86266210e-01   2.57234870e-01
C     3.644524241300000e+00   3.203538635240143e+00   3.636280200000000e+00  8.84103990e-01  -2.25572930e-01  -6.07848400e-02
C     4.875474347899999e+00   2.482087374256890e+00   3.611101500000000e+00  7.21938590e-01   2.76990730e-01  -7.60547900e-02
C     6.104856566600000e+00   3.207686801141223e+00   3.564964200000000e+00  7.41374350e-01   5.21695240e-01  -1.11987300e-01
C     7.371279058500001e+00   2.482675882859172e+00   3.504675600000000e+00 -1.98643384e+00   1.51053124e+00   4.27815980e-01
C     8.573586506000000e+00   3.183888920493882e+00   3.545684400000000e+00  1.61942467e+00   4.88105870e-01   1.87245840e-01
C     9.820596975000001e+00   2.471056765908931e+00   3.587787900000000e+00  4.00624100e-01   1.50161865e+00  -1.84351250e-01
C     1.107215946090000e+01   3.237261236988179e+00   3.636643800000000e+00 -2.12429162e+00  -1.30343535e+00  -2.80522640e-01
C     3.663579135000000e+00   4.612279735710047e+00   3.631172400000000e+00 -4.55520260e-01   1.12550708e+00  -1.10252760e-01
C     4.873988002199999e+00   5.362538714789256e+00   3.576365400000000e+00  1.10076823e+00  -1.47512440e-01   2.62060030e-01
C     6.124987482100000e+00   4.665583398560083e+00   3.574514400000000e+00  1.67944600e-01  -1.32376504e+00  -3.60125780e-01
C     7.395449911800000e+00   5.349087553140532e+00   3.540947100000000e+00 -1.80397524e+00   3.67022410e-01   6.77499920e-01
C     8.604383279299999e+00   4.608649375404474e+00   3.598781700000000e+00 -7.97247550e-01   6.59610390e-01  -5.36907320e-01
C     9.801025121500000e+00   5.358765582228458e+00   3.618008700000000e+00  4.98893950e-01  -6.82626290e-01   3.06886660e-01
C     1.101970716960000e+01   4.644188993192548e+00   3.630936300000000e+00  1.61061681e+00   2.40264160e-01   1.92865250e-01
C     1.228791545540000e+01   5.331662677574833e+00   3.649237800000000e+00 -6.68819140e-01   4.54803190e-01  -3.99912240e-01
C     4.912348480100000e+00   6.793598568511155e+00   3.579482700000000e+00 -1.61402032e+00  -8.71386680e-01   4.64501030e-01
C     6.123849983200000e+00   7.491732951307404e+00   3.636418500000000e+00  5.08963200e-01  -2.88891420e-01  -7.96673390e-01
C     7.350603624500000e+00   6.797795662942284e+00   3.599676600000000e+00  7.32081460e-01  -1.93495542e+00   4.90628200e-02
C     8.587237182999999e+00   7.460946061362394e+00   3.632311500000000e+00 -6.92612570e-01   2.02900150e+00  -5.63780300e-02
C     9.800985089899999e+00   6.775583647321288e+00   3.662086200000000e+00  2.60093630e-01  -6.24891280e-01  -2.84326570e-01
C     1.102216413370000e+01   7.475405765538912e+00   3.651505800000000e+00  1.81673263e+00   1.90707750e-01  -5.14366740e-01
C     1.227099387130000e+01   6.761380028069066e+00   3.593410200000000e+00  6.41694340e-01  -7.03337400e-02   7.74012510e-01
C     1.352915407760000e+01   7.487327334240353e+00   3.621173700000000e+00 -1.25158149e+00  -9.40716800e-02  -6.73650360e-01
