32
Lattice="9.86 0 0 4.93 8.53901048131456 0 0 0 30 " PBC="1 1 1" Properties=species:S:1:pos:R:3:force:R:3 Energy="-257.22960545"
C     1.210504509200000e+00   3.885997785718048e-01   3.733044300000000e+00 -1.53114120e-01   1.12351640e+00  -3.25038820e-01
C     2.439008892099999e+00   1.120555303297029e+00   3.597288300000000e+00  1.61101730e-01   1.00345489e+00   3.49717790e-01
C     3.688656911100000e+00   4.348367271288040e-01   3.608281500000000e+00 -1.52908543e+00  -1.97649375e+00  -3.61102690e-01
C     4.911875988899999e+00   1.083893744921988e+00   3.595049100000000e+00  2.74009100e-01   2.65060934e+00   1.77562660e-01
C     6.136258300200000e+00   3.896522970035696e-01   3.592224300000000e+00  8.97833490e-01   4.32198270e-01  -1.44123690e-01
C     7.396191728900000e+00   1.109233941642226e+00   3.647336700000000e+00 -2.33342393e+00   8.60595580e-01   3.87375360e-01
C     8.577299732699998e+00   3.918359781536200e-01   3.714390000000000e+00  2.04568065e+00   2.76078490e-01  -7.91247300e-02
C     9.828522886700000e+00   1.106696489287990e+00   3.756598200000000e+00  1.24885000e-01   7.54960500e-01  -5.73983680e-01
C     2.448540800600000e+00   2.576807458077653e+00   3.489710100000000e+00  3.05964800e-01  -2.21902907e+00   1.29869470e-01
C     3.693815564499999e+00   3.263198139760759e+00   3.453923700000000e+00 -1.05735303e+00  -1.72109790e-01   1.77805890e-01
C     4.887897307000000e+00   2.557685198008741e+00   3.602265000000000e+00  1.21225271e+00  -1.37556191e+00  -2.90677860e-01
C     6.114091491900000e+00   3.278309114266587e+00   3.648494400000000e+00  7.94862720e-01  -1.29432327e+00  -2.09115470e-01
C     7.367852067599999e+00   2.560140846642579e+00   3.698866500000000e+00 -1.07894097e+00  -1.34656189e+00  -3.52874130e-01
C     8.569976809300000e+00   3.252872597508134e+00   3.642797100000000e+00  1.90760190e+00   2.44267250e-01  -4.23507910e-01
C     9.831123708200000e+00   2.542593180106179e+00   3.618763500000000e+00  1.76620170e-01  -4.03470070e-01   3.42881470e-01
C     1.109372638680000e+01   3.258782532051447e+00   3.485350500000000e+00 -1.77790892e+00  -3.01538470e-01  -1.37449570e-01
C     3.674574957700000e+00   4.671180378369305e+00   3.400199100000000e+00  2.93748460e-01   1.00496959e+00   9.88536000e-02
C     4.881312749699999e+00   5.398231351645132e+00   3.579267600000000e+00  1.15657835e+00  -1.37835017e+00  -3.66527420e-01
C     6.147893839700000e+00   4.675709298747686e+00   3.597311700000000e+00 -1.27499067e+00   8.78434200e-01   7.51884610e-01
C     7.374184751200000e+00   5.379952831201749e+00   3.668006100000000e+00 -1.45765450e-01   5.85376320e-01  -7.43090300e-01
C     8.591645835500000e+00   4.672514001026071e+00   3.539926200000000e+00  5.36544510e-01   1.05386350e-01   8.09589420e-01
C     9.842077379399999e+00   5.374823276826203e+00   3.468964500000000e+00 -5.32061980e-01   5.00016300e-02  -3.63767130e-01
C     1.107339127070000e+01   4.658737161517639e+00   3.355900500000000e+00 -2.81920000e-03   1.27042939e+00   1.54183540e-01
C     1.231150797040000e+01   5.403609988956379e+00   3.283415100000000e+00 -5.31880290e-01  -1.88434873e+00   9.46208390e-01
C     4.894744485400000e+00   6.787397966051102e+00   3.684333300000000e+00  5.52120330e-01   1.52297244e+00  -2.13945560e-01
C     6.130066811799999e+00   7.522643656904376e+00   3.733071600000000e+00  7.72602100e-02  -9.25615060e-01   1.15433590e-01
C     7.359448192399999e+00   6.813951726940758e+00   3.683312700000000e+00 -6.44201500e-02  -2.92976040e-01  -2.41417790e-01
C     8.574360466700000e+00   7.520632634546231e+00   3.577436700000000e+00  9.62119060e-01   5.56993310e-01   3.42772760e-01
C     9.811076602699998e+00   6.806857260863660e+00   3.486308100000000e+00  3.74985530e-01  -1.34221000e-02   1.51690300e-02
C     1.105328396990000e+01   7.523141395825255e+00   3.481964400000000e+00  4.25401580e-01  -1.03680475e+00   9.81571400e-02
C     1.229726500320000e+01   6.777766986910920e+00   3.442834200000000e+00  5.88035100e-01   2.64349274e+00   1.23080930e-01
C     1.356055369130000e+01   7.525117152070117e+00   3.622326300000000e+00 -2.38584123e+00  -1.34313163e+00  -1.94798910e-01
