32
Lattice="9.86 0 0 4.93 8.53901048131456 0 0 0 30 " PBC="1 1 1" Properties=species:S:1:pos:R:3:force:R:3 Energy="-257.04932272"
C     4.918953250400000e+00   8.401536851557449e+00  -2.131283999999987e-01  2.38201413e+00   1.68876851e+00  -7.09223400e-02
C     1.255288530600000e+00   5.849942871284513e-01  -1.845573000000016e-01 -4.97517110e-01   7.69757460e-01  -7.39219800e-01
C     7.429835725100000e+00   8.425979342105926e+00  -2.207058000000011e-01 -1.13512741e+00   2.52950050e-01  -5.67800000e-03
C     3.712084172500000e+00   6.181767964636263e-01  -2.577438000000001e-01  5.62211930e-01  -1.46617815e+00   9.25704990e-01
C     9.864771303300000e+00   8.416159650834135e+00  -1.506134999999986e-01  1.53041473e+00   5.77518190e-01  -1.07462850e-01
C     6.216270129600000e+00   5.916890421249807e-01  -1.202640000000024e-01 -1.66276526e+00  -1.26710344e+00  -6.95103610e-01
C     1.236915411530000e+01   8.448585689230887e+00  -1.797113999999986e-01 -9.82489000e-01  -2.11850454e+00   6.03966240e-01
C     8.647781379100000e+00   5.998157037889016e-01  -2.448842999999989e-01  4.34300500e-01  -3.21540860e-01   4.34803030e-01
C     1.246784182000000e+00   2.031220362753982e+00  -2.114153999999999e-01  1.84508574e+00  -6.32862610e-01   1.15187205e+00
C     2.541327048800000e+00   2.770917781330899e+00  -4.774800000000212e-02 -2.46783698e+00  -3.16267878e+00  -1.48231091e+00
C     3.734411156500000e+00   2.013692079771372e+00  -1.703210999999989e-01  7.18779590e-01   1.10812243e+00   2.34891400e-01
C     5.001713160400000e+00   2.696120148251130e+00  -1.700919000000027e-01 -1.08092106e+00   9.34944300e-02   1.91306170e-01
C     6.209751683600000e+00   1.969204432901305e+00  -1.831469999999982e-01  9.84342570e-01   2.08359607e+00  -4.83483300e-02
C     7.464450290400000e+00   2.704391375362477e+00  -2.206173000000007e-01 -1.89719546e+00   8.67838080e-01   1.48772140e-01
C     8.674646132299999e+00   2.015234225064060e+00  -2.243591999999985e-01 -6.98047370e-01  -8.51355130e-01  -2.59130300e-01
C     9.872004845800001e+00   2.705141954383669e+00  -2.024082000000007e-01  1.26658475e+00   1.63141158e+00   9.29369800e-02
C     2.486920061800000e+00   4.140658403065184e+00  -5.306009999999972e-02  8.60704610e-01   1.37938088e+00   1.72374060e-01
C     3.735130344900000e+00   4.840163126263265e+00  -9.222869999999972e-02  1.63038430e-01   1.17233362e+00   4.97715830e-01
C     4.984075197999999e+00   4.116407954862403e+00  -1.314351000000009e-01 -1.72981668e+00   2.19674220e-01  -1.74693440e-01
C     6.164675165300000e+00   4.843574460950025e+00  -1.828458000000026e-01  2.03258990e+00   2.43721190e-01  -2.90498420e-01
C     7.413089895499999e+00   4.142939599714916e+00  -2.148491999999997e-01  3.80790560e-01  -1.47554430e-01   1.39464700e-01
C     8.639462152000000e+00   4.890490602400603e+00  -1.751055000000008e-01  6.75356800e-02  -1.73026013e+00   1.47192110e-01
C     9.869226642899999e+00   4.141006196962034e+00  -1.360770000000002e-01 -1.88558640e-01   1.42518310e-01  -5.44510700e-02
C     1.110179748700000e+01   4.825592073390088e+00  -5.710470000000001e-02  4.95300220e-01   1.16458198e+00  -2.49338210e-01
C     3.739814584399999e+00   6.301160067607205e+00  -4.660110000000017e-02  1.23373620e-01  -1.18849514e+00  -1.02973520e+00
C     4.989349607799999e+00   7.019755883485946e+00  -1.919198999999985e-01 -1.38437053e+00  -2.25536035e+00   3.35324890e-01
C     6.214836091200000e+00   6.262109806440487e+00  -2.476011000000007e-01 -1.40534193e+00   1.12558820e+00   6.79415460e-01
C     7.409453330300000e+00   7.008589163310935e+00  -2.092917000000014e-01  1.25806234e+00  -7.45698290e-01  -1.91240400e-02
C     8.644175084099999e+00   6.286082822192774e+00  -1.305972000000004e-01  7.76388710e-01   1.16020663e+00  -3.83423760e-01
C     9.907823267800000e+00   7.002327421535846e+00  -9.922230000000098e-02 -9.67591240e-01  -6.58687290e-01  -2.66740520e-01
C     1.115226215020000e+01   6.268183433814702e+00  -8.492520000000070e-02 -2.12918702e+00  -2.33553470e-01   4.22408190e-01
C     1.233590269500000e+01   6.987695997858576e+00  -7.165769999999938e-02  2.34524770e+00   1.09837079e+00  -3.01967460e-01
