32
Lattice="9.86 0 0 4.93 8.53901048131456 0 0 0 30 " PBC="1 1 1" Properties=species:S:1:pos:R:3:force:R:3 Energy="-256.90400224"
C     1.238879074900000e+00   3.984263864420840e-01   3.767961600000000e+00 -1.60812133e+00   4.79133400e-02  -7.39400000e-04
C     2.442978330900000e+00   1.088712479316062e+00   3.700753800000000e+00  1.64423860e-01   1.57752204e+00  -8.48157900e-01
C     3.663237831100000e+00   4.233515872529944e-01   3.621105000000000e+00  1.28360383e+00  -1.97420262e+00   4.13062630e-01
C     4.907135498100000e+00   1.103486333688138e+00   3.612008700000000e+00 -2.35608740e-01   1.26479589e+00  -4.56996330e-01
C     6.117737719899999e+00   3.844842316907592e-01   3.614309400000000e+00  1.04642059e+00   5.12219020e-01   1.94986080e-01
C     7.367982022400001e+00   1.119474691520786e+00   3.704766300000000e+00 -1.24106918e+00  -1.94327020e-01  -5.24593520e-01
C     8.567235778599999e+00   4.024541522953952e-01   3.713568300000000e+00  2.21273756e+00  -5.64432310e-01  -1.14948020e-01
C     9.865516029100000e+00   1.094560676813604e+00   3.716629500000000e+00 -2.03789369e+00   3.13873080e-01   2.56860810e-01
C     2.408073339300000e+00   2.514891349257487e+00   3.495705900000000e+00  7.75897940e-01  -7.75911190e-01   5.08946140e-01
C     3.629255982000000e+00   3.223757901985421e+00   3.467211600000000e+00  1.88551733e+00   8.84143240e-01   1.32319130e-01
C     4.913999389200000e+00   2.552045352366910e+00   3.542919600000000e+00 -8.53579370e-01  -9.80100000e-01   3.92667910e-01
C     6.138307947700000e+00   3.265394202476006e+00   3.617023200000000e+00 -3.20750110e-01  -2.56538550e-01   5.46664000e-02
C     7.385996883300000e+00   2.546945769918150e+00   3.670540500000000e+00 -2.21631910e+00  -9.92512000e-01   2.72795590e-01
C     8.585066405399999e+00   3.209974060488395e+00   3.657129600000000e+00  1.62172215e+00   1.52195342e+00  -5.31173700e-02
C     9.811124177200000e+00   2.512674024406146e+00   3.641749800000000e+00  1.19325721e+00  -6.75465360e-01  -4.47932980e-01
C     1.105446164830000e+01   3.199754658136036e+00   3.448415400000000e+00 -1.36382493e+00   1.71775924e+00   3.35466120e-01
C     3.671182378200000e+00   4.656197574410783e+00   3.465905700000000e+00 -4.70217820e-01   1.06158674e+00  -2.07256040e-01
C     4.913744261700000e+00   5.415246525488000e+00   3.557561700000000e+00 -1.09818501e+00  -1.91665184e+00   2.01127510e-01
C     6.113456655800000e+00   4.685344632783215e+00   3.652659600000000e+00  1.38786941e+00  -2.49049860e-01  -5.46038480e-01
C     7.380321861700000e+00   5.354536381117924e+00   3.632706000000000e+00 -6.71531890e-01   1.21309627e+00   6.87717620e-01
C     8.608694564299999e+00   4.639428751020263e+00   3.623256900000000e+00 -9.03018640e-01   7.71743940e-01  -9.29018190e-01
C     9.787210078299999e+00   5.398006263328879e+00   3.410236800000000e+00  1.95871603e+00  -2.04002703e+00   5.73909420e-01
C     1.101881030400000e+01   4.641312200561837e+00   3.338789100000000e+00  1.32728893e+00   7.83091730e-01   5.77163400e-01
C     1.229287853570000e+01   5.400017712637548e+00   3.401183100000000e+00 -1.01717245e+00  -2.81395575e+00  -5.01902930e-01
C     4.910175237500000e+00   6.807684007858334e+00   3.635917500000000e+00 -1.12119417e+00   1.56222958e+00   4.18676750e-01
C     6.115506056800000e+00   7.546514631481426e+00   3.796784700000000e+00  1.98134583e+00  -2.25396967e+00  -9.52479530e-01
C     7.384040067699999e+00   6.804926590594132e+00   3.690634800000000e+00  2.74350800e-02  -9.51591500e-02  -4.89434300e-02
C     8.648374211600000e+00   7.506190008390673e+00   3.606760200000000e+00 -1.89569099e+00   9.05371320e-01   1.81699280e-01
C     9.875641164499999e+00   6.804867842202029e+00   3.475864200000000e+00 -2.90071707e+00  -4.15699160e-01   1.65941080e-01
C     1.105445223200000e+01   7.499972413299766e+00   3.519425400000000e+00  1.14014935e+00   1.08103645e+00  -4.09666620e-01
C     1.225769534420000e+01   6.784068605864951e+00   3.432781800000000e+00  2.25058099e+00   1.62324801e+00   9.97385520e-01
C     1.351042441600000e+01   7.518925771741384e+00   3.611360700000000e+00 -3.02071610e-01  -6.43581820e-01  -3.23600640e-01
