32
Lattice="9.86 0 0 4.93 8.53901048131456 0 0 0 30 " PBC="1 1 1" Properties=species:S:1:pos:R:3:force:R:3 Energy="-257.02532766"
C     9.840235284899999e+00   2.627496219748400e-02  -1.989392999999993e-01 -5.34356990e-01   8.82350900e-02   1.83228270e-01
C     1.190585534400000e+00   7.324242310104720e-01  -1.629159000000016e-01  4.71467080e-01   1.94675825e+00  -8.49769630e-01
C     2.449429728900000e+00   7.289095742969040e-02  -2.102837999999991e-01 -1.28499644e+00  -1.67420091e+00   6.47293240e-01
C     3.671523682100000e+00   7.423377660074376e-01  -1.726539000000002e-01  6.27942620e-01   1.00683022e+00  -7.32400900e-02
C     4.901930404100000e+00   7.519341621551760e-02  -1.521258000000003e-01  1.12173776e+00  -2.12088397e+00  -1.97285850e-01
C     6.175409007800000e+00   7.606338768124096e-01  -1.665156000000003e-01 -1.51933854e+00  -3.46060420e-01  -1.50986240e-01
C     1.231386712330000e+01   8.538652439290574e+00  -1.847735999999998e-01  7.94654800e-02   2.96367971e+00   5.79220400e-01
C     8.614896800099999e+00   7.782887079303336e-01  -1.369502999999987e-01 -3.93990300e-02  -2.42364844e+00  -6.55743630e-01
C     1.103033634820000e+01   2.198321625078779e+00  -2.260227000000015e-01  1.38773562e+00  -1.42616976e+00   1.16907885e+00
C     2.436207616800000e+00   2.869671095971680e+00  -1.233836999999980e-01 -6.37544420e-01   1.33224640e-01  -6.54344150e-01
C     3.684673668300000e+00   2.151378500355084e+00  -1.389114000000014e-01 -1.18937395e+00   1.31199709e+00  -1.71041130e-01
C     4.874607210200000e+00   2.905173910624586e+00  -1.541996999999995e-01  1.91659409e+00  -1.57491630e+00  -2.49264500e-02
C     6.143265900799999e+00   2.183448376624715e+00  -1.972778999999996e-01 -1.96435960e-01   6.12290800e-02   2.94592830e-01
C     7.377860312699999e+00   2.879449031482223e+00  -2.074998000000008e-01 -3.99447570e-01   6.67388150e-01   4.87762680e-01
C     8.611257129000000e+00   2.172839851564782e+00  -1.431000000000004e-01 -5.59680560e-01   1.08106917e+00  -6.41492830e-01
C     9.825141498299999e+00   2.927794347116839e+00  -1.926857999999996e-01  3.18484490e-01  -1.77697301e+00   4.53793500e-02
C     1.229196219660000e+01   4.293966601761636e+00  -1.230957000000004e-01  1.23818378e+00   7.67357660e-01   4.94846370e-01
C     3.708265838200000e+00   4.994879322397765e+00  -1.646831999999989e-01 -2.19700395e+00   9.39525820e-01   6.16622920e-01
C     4.920057373199999e+00   4.307656855703801e+00  -1.317213000000024e-01  2.44142130e-01  -8.39513900e-02   5.64331600e-02
C     6.160095146000000e+00   5.017130105126340e+00  -7.322279999999992e-02 -1.48821052e+00  -3.91932000e-03  -8.31173640e-01
C     7.367470485599998e+00   4.323465296585635e+00  -1.739696999999971e-01  2.77094880e-01  -1.48291102e+00   6.85663000e-02
C     8.576109285599999e+00   5.015111483048867e+00  -2.078217000000002e-01  1.57112706e+00   3.92992520e-01   4.92014610e-01
C     9.849922044700000e+00   4.307319308619527e+00  -1.726187999999986e-01 -5.12518660e-01   2.60922934e+00   5.07207930e-01
C     1.109344626420000e+01   5.068680452954519e+00  -2.197290000000152e-02 -1.34786892e+00  -2.68748021e+00  -1.41129867e+00
C     1.351398407320000e+01   6.424661313201331e+00  -1.458426000000017e-01  9.80111000e-02   1.49056900e-01  -4.97548650e-01
C     4.897655551800000e+00   7.130606755834162e+00  -2.445792000000004e-01 -1.74116185e+00   7.11298980e-01   1.10655474e+00
C     6.082823164100001e+00   6.425168786594158e+00  -1.273161000000016e-01  2.93123193e+00   9.35659340e-01  -3.79314060e-01
C     7.345493433000000e+00   7.182725630980099e+00  -1.536624000000018e-01 -4.33086310e-01  -1.01594260e+00  -2.49683740e-01
C     8.558763277799999e+00   6.434627363112750e+00  -1.685403000000001e-01  1.14321812e+00   9.70452380e-01   5.67905800e-02
C     9.829152398400000e+00   7.151235980472584e+00  -1.504778999999985e-01 -1.55395773e+00   1.20733636e+00   2.46959870e-01
C     1.104397415790000e+01   6.466041101817098e+00  -7.194210000000112e-02  4.06274110e-01  -1.48867130e-01  -9.33528200e-02
C     1.226493711980000e+01   7.158787710560887e+00  -1.165812000000024e-01  1.80167115e+00  -1.17739622e+00  -1.71350550e-01
