32
Lattice="9.86 0 0 4.93 8.53901048131456 0 0 0 30 " PBC="1 1 1" Properties=species:S:1:pos:R:3:force:R:3 Energy="-256.8959092"
C     9.880735727899999e+00   2.254788052020504e-01   3.922020000000000e-02 -2.24697741e+00   4.98585970e-01  -5.07700300e-02
C     1.191988020800000e+00   9.505172190978464e-01  -4.120469999999798e-02  2.08417853e+00   4.38068410e-01   8.49387010e-01
C     2.449703245300000e+00   2.747763912853960e-01  -6.435299999999700e-03  3.49643000e-03  -1.40852954e+00  -7.00564500e-02
C     3.705356546600000e+00   9.382034536450576e-01   9.158220000000000e-02  1.85529270e-01   9.97033810e-01  -1.39645884e+00
C     4.953132989699999e+00   2.058757988431144e-01  -8.014769999999771e-02 -1.50805691e+00   8.68686020e-01   9.35394550e-01
C     6.175301287300000e+00   9.222350770969336e-01  -7.644150000000138e-02  2.48091060e-01  -3.89968780e-01   6.67183240e-01
C     7.418191163700000e+00   2.457560518284872e-01   3.806880000000000e-02  3.01617280e-01  -4.81400510e-01  -5.51757110e-01
C     8.652263192800000e+00   9.744983469100881e-01   7.174349999999999e-02 -1.03202074e+00  -9.84845100e-01  -2.62683120e-01
C     1.104176537000000e+01   2.367638931403345e+00   2.834970000000000e-02  1.13718156e+00   2.64299340e-01  -8.43442200e-02
C     2.420565515600000e+00   3.099899725753230e+00   3.988350000000000e-02  1.68361959e+00  -1.75559857e+00   7.71081260e-01
C     3.710459491000000e+00   2.402252322724654e+00   1.026849000000000e-01 -1.41066883e+00  -2.00906956e+00  -5.30634140e-01
C     4.950969409900000e+00   3.052019359239250e+00   4.483320000000000e-02 -8.81893890e-01   1.17248451e+00   1.67370990e-01
C     6.158728352800000e+00   2.319277562429027e+00  -2.411250000000109e-02  1.07622620e-01   1.48170255e+00   6.03476400e-02
C     7.370575547500000e+00   3.063151154861398e+00  -4.227600000000109e-03  2.59910750e-01   3.38741490e-01   2.93385020e-01
C     8.588400219299999e+00   2.393717837920209e+00   5.695140000000000e-02  1.41138800e+00  -1.45387404e+00  -1.59101710e-01
C     9.836000119099999e+00   3.069612282531194e+00   6.774570000000001e-02 -9.44769980e-01   1.19922998e+00  -4.35836090e-01
C     1.234350278300000e+01   4.482974012352035e+00   1.252686000000000e-01 -1.39168595e+00   1.63054208e+00  -5.58119730e-01
C     3.729231797100000e+00   5.213789237617761e+00   7.823700000000000e-02 -1.28572493e+00  -7.80136780e-01  -1.26942900e-02
C     4.938767906400000e+00   4.497827962642414e+00   6.329880000000000e-02  8.17954390e-01  -1.08409471e+00  -3.23916540e-01
C     6.179719651899999e+00   5.173965512881765e+00  -8.246700000000828e-03 -8.64558860e-01   1.35036868e+00   3.41016350e-01
C     7.423300122700000e+00   4.487711028415815e+00   1.094910000000000e-02 -2.32151078e+00  -1.91154350e-01  -4.23994290e-01
C     8.587157415600000e+00   5.235316851548784e+00  -1.725239999999673e-02  1.62849346e+00  -6.91111050e-01   2.08268650e-01
C     9.819668557399998e+00   4.490877720452323e+00   1.783950000000000e-02  1.44710975e+00   1.22481812e+00   5.60480040e-01
C     1.108186120790000e+01   5.197206308485391e+00   1.022730000000000e-01  3.25248610e-01   1.17765976e+00   4.00065000e-02
C     1.353367971900000e+01   6.620235052070640e+00  -9.572999999996057e-04  5.63451150e-01   5.17903300e-01   9.70599010e-01
C     4.877314618300000e+00   7.354945090796503e+00   5.408700000000000e-02  1.47694413e+00  -1.19138201e+00  -6.94546960e-01
C     6.100668186500000e+00   6.605389726180846e+00  -1.203600000000193e-03  1.64170014e+00   1.12365657e+00  -2.53332270e-01
C     7.351109639699999e+00   7.365459174400526e+00  -6.331349999999958e-02 -4.29109460e-01  -2.92659400e-02   4.98479610e-01
C     8.575114362299999e+00   6.650467504065185e+00  -4.040849999999807e-02  1.19859012e+00   2.35927750e-01  -1.48157000e-02
C     9.857134634700000e+00   7.339280788411572e+00  -3.081420000000179e-02 -3.51148080e-01  -1.69343300e-02   4.24003390e-01
C     1.111592519080000e+01   6.684465830461619e+00   1.317933000000000e-01 -1.99701486e+00  -3.17850019e+00  -1.33853094e+00
C     1.233037251680000e+01   7.345618868940352e+00   3.547920000000000e-02  1.43013840e-01   1.12615710e+00   3.74589170e-01
