32
Lattice="9.86 0 0 4.93 8.53901048131456 0 0 0 30 " PBC="1 1 1" Properties=species:S:1:pos:R:3:force:R:3 Energy="-256.38631359"
C     1.265436689100000e+00   1.096420046345624e-01   3.591123000000000e+00  1.26524959e+00   2.71951830e-01   8.22840110e-01
C     2.527964234500000e+00   8.168754716081960e-01   3.609641700000000e+00 -1.60157362e+00   9.46302660e-01  -7.48971390e-01
C     3.754857197600000e+00   1.182784452241392e-01   3.633390000000000e+00 -4.64103710e-01  -5.27532740e-01  -7.96032850e-01
C     4.968296042800000e+00   8.292397026129217e-01   3.519389400000000e+00 -2.52376930e-01   3.63952800e-02   2.28734800e-02
C     6.193556929400001e+00   1.419178418369712e-01   3.499201800000000e+00  3.84547170e-01  -1.39996036e+00  -3.36490800e-02
C     7.431939158900000e+00   8.123134198691512e-01   3.547208400000000e+00  6.77455050e-01  -6.84432040e-01   3.75566570e-01
C     8.679842795999999e+00   1.195664695649424e-01   3.631383300000000e+00 -8.34904350e-01   1.29898670e+00  -8.91710800e-01
C     9.884203144799999e+00   8.708193894640239e-01   3.586156800000000e+00  9.96755560e-01  -3.38192329e+00   9.43045000e-02
C     2.483909951700000e+00   2.250702050115719e+00   3.407853900000000e+00  1.46807747e+00   4.76191790e-01   6.38522900e-02
C     3.753660440100000e+00   2.981870021904374e+00   3.274614900000000e+00 -1.52459845e+00  -1.38909414e+00   1.52189860e+00
C     4.966678016800000e+00   2.243536539471427e+00   3.434079000000000e+00 -4.71633450e-01   3.11765470e-01   1.73086290e-01
C     6.186966258899999e+00   2.905467567194993e+00   3.576190500000000e+00  1.59880152e+00   2.18926680e+00  -1.13521088e+00
C     7.438997735700001e+00   2.185105713168779e+00   3.565914300000000e+00  2.14671740e-01   3.69646930e+00   1.34105670e-01
C     8.681297047399999e+00   2.984226020285910e+00   3.505258500000000e+00 -1.78011569e+00  -4.58513170e-01  -4.86647440e-01
C     9.875278612300001e+00   2.228321303647639e+00   3.472843200000000e+00  1.32856736e+00   3.83718566e+00   2.75524140e-01
C     1.113243482410000e+01   3.002488316609382e+00   3.413123100000000e+00 -5.82558320e-01  -3.10326490e+00  -6.45348500e-01
C     3.705075142200000e+00   4.382959998203988e+00   3.366054600000000e+00  1.08664708e+00   1.08694221e+00  -6.61481730e-01
C     4.961584784499999e+00   5.114285856296417e+00   3.472154100000000e+00  1.02132320e-01  -2.10164380e-01   1.34892870e-01
C     6.230645368699999e+00   4.385193888735660e+00   3.519447300000000e+00 -1.93459162e+00  -4.96325090e-01   8.14622210e-01
C     7.430082027899999e+00   5.133031887563580e+00   3.632960400000000e+00  8.87929030e-01  -1.47544979e+00  -1.23344118e+00
C     8.659613724200000e+00   4.454288402105942e+00   3.399358200000000e+00  1.25935880e-01  -3.01083169e+00   1.47717380e+00
C     9.912756768100000e+00   5.090703841834011e+00   3.353534100000000e+00 -1.40400785e+00   1.77438854e+00  -2.56984910e-01
C     1.111947301600000e+01   4.380961528191247e+00   3.259032600000000e+00 -6.80343800e-02   7.67043480e-01   6.11391050e-01
C     1.232044201780000e+01   5.098882079121230e+00   3.289385100000000e+00  2.20159084e+00   9.36027920e-01   1.09556550e-01
C     4.964218982099999e+00   6.560420222949393e+00   3.558074700000000e+00  1.85679804e+00  -1.68416254e+00   1.26496850e-01
C     6.274505409500000e+00   7.205428041972961e+00   3.672200400000000e+00 -3.92746490e+00   2.25699361e+00  -3.58569640e-01
C     7.479634986200000e+00   6.529339334873555e+00   3.687327300000000e+00 -1.68407573e+00  -7.42902550e-01  -2.88474300e-01
C     8.655422484699999e+00   7.219479154498011e+00   3.574652100000000e+00  2.10867246e+00   1.55381051e+00   4.48860380e-01
C     9.869933604899998e+00   6.527842702506725e+00   3.430545600000000e+00  2.49413743e+00  -1.94859460e-01  -2.49174740e-01
C     1.114751603920000e+01   7.256544522678651e+00   3.398884800000000e+00 -1.18010884e+00  -5.12371520e-01   1.97042170e-01
C     1.238844441650000e+01   6.543700157308714e+00   3.342315900000000e+00 -1.13896096e+00  -2.01464720e-01   5.27503290e-01
C     1.360974449180000e+01   7.281274692490198e+00   3.516649200000000e+00  5.11402600e-02  -1.96646938e+00  -1.45893390e-01
