32
Lattice="9.86 0 0 4.93 8.53901048131456 0 0 0 30 " PBC="1 1 1" Properties=species:S:1:pos:R:3:force:R:3 Energy="-256.73461941"
C     4.959277791000000e+00   8.496833574755927e+00  -8.138160000000028e-02 -1.72307052e+00   3.07027473e+00  -3.75467900e-02
C     1.239899584900000e+00   6.815690440254696e-01  -1.064100000000003e-01  6.87724620e-01   3.16267920e-01   2.21601150e-01
C     7.417682782100000e+00   8.525011370048773e+00  -5.647169999999946e-02 -4.41642910e-01  -1.07926108e+00  -4.31780890e-01
C     3.699648346100000e+00   6.694187152332680e-01  -5.393399999999815e-02  1.15890684e+00   2.30192811e+00   3.66592500e-01
C     9.893541994500000e+00   8.516456989349908e+00  -3.400079999999761e-02 -1.54028706e+00   1.09879992e+00  -2.80706900e-02
C     6.173524958999999e+00   7.671238663376287e-01  -4.979160000000249e-02 -6.61001790e-01  -4.68861037e+00   5.48010000e-04
C     7.382009696500000e+00   2.695039792645200e-02  -4.637909999999934e-02  1.23134092e+00  -8.79649100e-01   4.15104830e-01
C     8.627242358199998e+00   7.163907018123855e-01  -4.285379999999961e-02  3.95786510e-01  -5.25492080e-01  -1.94354140e-01
C     1.227451039100000e+00   2.114570924900834e+00  -9.527699999999939e-02  4.56159700e-02  -1.73088350e-01   7.83228870e-01
C     2.428498674400000e+00   2.873263116120197e+00   1.635210000000000e-02  1.53495372e+00  -3.69343099e+00  -2.46518000e-01
C     3.683919279700000e+00   2.156385946880766e+00   1.735530000000000e-02 -3.97049940e-01  -1.72941998e+00  -5.18163220e-01
C     4.898283190100000e+00   2.850885358305784e+00   2.024700000000000e-03  7.33227550e-01   6.00852310e-01  -1.21438810e-01
C     6.151149661000000e+00   2.105424363825183e+00  -9.010439999999775e-02 -1.52768947e+00   3.94024652e+00   3.69429940e-01
C     7.346025034899999e+00   2.828793913512767e+00  -1.143090000000022e-01  2.51911404e+00   1.02314701e+00   4.71729080e-01
C     8.600953527600000e+00   2.136790540241157e+00  -2.625570000000010e-02  7.75989410e-01  -4.42543050e-01  -7.67137770e-01
C     9.878056272900000e+00   2.815925453939198e+00  -3.196649999999934e-02 -1.74306675e+00   1.06806522e+00   2.91574400e-02
C     2.482924543300000e+00   4.216367233953275e+00   9.620099999999999e-02 -5.87433890e-01   4.16975233e+00   9.01031300e-02
C     3.703945925700000e+00   4.995746458912008e+00   3.007980000000000e-02 -1.02093674e+00  -7.15151410e-01   6.53758510e-01
C     4.907683714099999e+00   4.315088612694860e+00   3.354509999999999e-02  1.83294139e+00  -2.36223986e+00  -3.59876220e-01
C     6.172213036700000e+00   4.977520111822658e+00  -1.016159999999999e-02  3.28406960e-01   9.81140460e-01  -9.21401180e-01
C     7.434377536900000e+00   4.264376624915607e+00  -1.164443999999989e-01 -1.97790102e+00  -5.43892100e-02   3.76453590e-01
C     8.669966477699999e+00   4.991666348924456e+00  -1.026728999999982e-01 -1.09482938e+00  -3.07069214e+00   5.98108190e-01
C     9.875064058700000e+00   4.258159712945538e+00   3.461910000000000e-02  1.09464450e+00  -3.40238120e-01  -2.54059460e-01
C     1.112073544110000e+01   4.954988737209711e+00   1.559733000000000e-01 -9.35658540e-01   9.79985450e-01  -7.73382810e-01
C     1.355097006710000e+01   6.398362100214084e+00   2.510700000000000e-02  9.29930100e-02   1.02175733e+00  -2.86372830e-01
C     4.921953944200000e+00   7.132682589281850e+00  -8.749650000000031e-02  2.50816530e-01  -2.31136321e+00   4.29098670e-01
C     6.155467108500000e+00   6.426875734789109e+00  -9.566490000000272e-02  8.87640180e-01  -1.54721513e+00   4.27554930e-01
C     7.431195123300000e+00   7.080082370115155e+00  -7.792530000000042e-02 -2.31431369e+00   1.19981508e+00  -1.81610330e-01
C     8.610072745800000e+00   6.349052132565542e+00  -6.201209999999691e-02  1.90952123e+00   2.87502631e+00   1.45775120e-01
C     9.844845377199999e+00   7.102909792221443e+00   2.489100000000000e-03  6.97674640e-01  -2.47398430e-01   1.59425200e-01
C     1.108059247240000e+01   6.421323755565118e+00   1.117275000000000e-01  9.73583280e-01  -1.68185420e+00  -2.03300750e-01
C     1.233345495000000e+01   7.117155423405228e+00   5.492520000000000e-02 -1.18599959e+00   8.94978000e-01  -2.12655240e-01
