32
Lattice="9.86 0 0 4.93 8.53901048131456 0 0 0 30 " PBC="1 1 1" Properties=species:S:1:pos:R:3:force:R:3 Energy="-256.78319054"
C     4.928982793100000e+00   8.436014728782441e+00  -1.537499999997749e-03  1.30475026e+00   1.17030782e+00  -2.38795760e-01
C     1.250419366800000e+00   6.098445154273472e-01  -1.853129999999936e-02  1.72249750e-01   4.96484230e-01  -9.29411100e-02
C     7.439834060900000e+00   8.465724507945504e+00   4.698030000000000e-02 -2.15709178e+00  -1.76143414e+00  -7.27120270e-01
C     3.697798462200000e+00   6.108493861806336e-01  -1.179240000000021e-01  1.97995726e+00   6.48497160e-01   5.35906240e-01
C     9.881497905900000e+00   8.472015538526540e+00  -1.492410000000000e-01  8.12870750e-01  -1.06034204e+00  -1.99725910e-01
C     6.202652779399999e+00   6.490300345200672e-01  -1.120632000000015e-01 -6.97984440e-01  -9.52604070e-01  -8.98539450e-01
C     1.236583795080000e+01   8.475780815197696e+00  -2.221893000000001e-01 -8.84538360e-01  -7.17019970e-01   8.06147320e-01
C     8.642768801599999e+00   6.379691126849040e-01  -3.753839999999897e-02  4.24720830e-01  -7.54213120e-01  -1.00306610e-01
C     1.243253217400000e+00   2.025502128995946e+00  -2.441211000000010e-01  9.64649150e-01  -2.46500990e-01   7.68909040e-01
C     2.512810351200000e+00   2.741758256003167e+00  -3.562350000000016e-01 -1.16592573e+00  -4.42300360e-01  -6.84949800e-02
C     3.746614484100000e+00   2.025895008868130e+00  -2.042751000000003e-01 -1.04425532e+00   7.61440320e-01  -5.60691260e-01
C     4.966610130699999e+00   2.745813859030642e+00  -1.993061999999988e-01  2.36868580e-01   3.32366440e-01  -1.44286660e-01
C     6.198970808900000e+00   2.053819451720036e+00  -1.171436999999997e-01  4.70647850e-01   1.01678080e-01   7.39335690e-01
C     7.444477184199999e+00   2.753082520921533e+00  -1.644089999999920e-02 -1.22598252e+00   1.06362230e-01  -1.13891670e-01
C     8.666725545000000e+00   2.055625708606871e+00   4.360080000000000e-02 -9.97294740e-01  -9.95330290e-01  -9.17109340e-01
C     9.862508531899998e+00   2.717100582390594e+00  -1.639908000000005e-01  1.88501665e+00   1.66186651e+00  -3.89858000e-02
C     2.479035364900000e+00   4.151431645637276e+00  -5.646662999999990e-01  9.68304940e-01   7.23741480e-01   7.83624760e-01
C     3.748894411900000e+00   4.880077535290558e+00  -5.071029000000031e-01 -4.85263110e-01   7.40479620e-01   1.06781996e+00
C     4.987640623299999e+00   4.178516020638160e+00  -2.555448000000027e-01 -2.32812424e+00  -8.46266690e-01  -4.26019300e-02
C     6.171236009299999e+00   4.850943285433845e+00   7.633200000000000e-03  7.66358910e-01   1.64763082e+00  -1.38192197e+00
C     7.397127344299999e+00   4.162855133857420e+00  -3.710099999999983e-02  1.46435479e+00  -4.21005900e-02   3.66690370e-01
C     8.645808097300000e+00   4.862361308687282e+00  -1.450283999999975e-01 -6.22500800e-02   5.72743870e-01   3.27129980e-01
C     9.879131062199999e+00   4.149863968703253e+00  -2.609315999999993e-01 -1.14624100e-01   3.98489600e-01  -4.03894400e-01
C     1.109592777970000e+01   4.879996585471208e+00  -4.883475000000033e-01  6.88736170e-01  -1.51036090e-01  -3.57329900e-02
C     3.728117912900000e+00   6.337155156214282e+00  -3.499040999999998e-01  8.71438370e-01  -1.13104727e+00  -5.50951300e-02
C     4.980056409900000e+00   7.045071573246106e+00  -9.952649999999963e-02 -1.52067768e+00  -1.92956970e+00  -3.78428450e-01
C     6.192986873500000e+00   6.283629393701660e+00  -3.698070000000087e-02 -1.95439680e-01   8.76690320e-01   7.33824210e-01
C     7.413133821799999e+00   7.010991955469902e+00   4.770750000000000e-02  1.18353093e+00   9.17563900e-02  -4.91293970e-01
C     8.657534644599998e+00   6.290889175021651e+00  -1.109928000000018e-01  6.41685430e-01   8.24682520e-01  -1.61781550e-01
C     9.924507472399998e+00   7.033326420501181e+00  -2.645634000000001e-01 -1.69264400e+00  -7.29827500e-02   3.06314060e-01
C     1.114568868540000e+01   6.331149243193175e+00  -4.833956999999991e-01 -1.49621520e+00  -9.98631040e-01   8.52418380e-01
C     1.235066035420000e+01   7.034307382025123e+00  -3.728795999999974e-01  1.23217037e+00   9.46161710e-01  -2.36480780e-01
