32
Lattice="9.86 0 0 4.93 8.53901048131456 0 0 0 30 " PBC="1 1 1" Properties=species:S:1:pos:R:3:force:R:3 Energy="-256.64512318"
C     9.864606049700001e+00   1.096747944348056e-01  -9.079859999999940e-02 -2.47851512e+00   1.00576230e-01  -1.15346310e-01
C     1.185537510200000e+00   8.352086417186512e-01  -1.690512000000020e-01  1.18859170e+00   1.11827197e+00   2.03201366e+00
C     2.425382322800000e+00   1.338664088553792e-01  -1.119702000000018e-01 -7.66796400e-02  -4.84828080e-01  -8.42057030e-01
C     3.659417081100000e+00   7.996811493254584e-01  -3.832379999999702e-02 -4.13571400e-02   2.11213473e+00  -2.83071420e-01
C     4.873614258900000e+00   9.791008735588079e-02  -1.675332000000012e-01  1.70323620e-01  -5.19998140e-01   7.25767800e-01
C     6.115547074400000e+00   7.856745250450096e-01  -1.318161000000018e-01 -1.00869600e-01   9.07669290e-01   4.04193400e-02
C     7.332528519000000e+00   9.887217766666240e-02  -4.949549999999903e-02  1.97752680e+00   8.58490030e-01  -5.99431320e-01
C     8.617003191900000e+00   8.461530060607624e-01  -8.800049999999970e-02 -1.03943256e+00  -1.34159629e+00   3.91994670e-01
C     1.104276591350000e+01   2.278526074204380e+00   1.041606000000000e-01  3.06639940e-01  -1.47549221e+00  -1.13348606e+00
C     2.393337224200000e+00   2.978979652246998e+00   1.318146000000000e-01  2.15028269e+00  -2.22262970e-01   6.44495500e-01
C     3.660095794200000e+00   2.260403476092362e+00   8.525220000000000e-02 -1.38246222e+00  -1.51929784e+00  -6.20513130e-01
C     4.870851240400000e+00   2.938797459851053e+00  -2.206530000000129e-02  1.52868610e+00  -6.57385520e-01  -1.52334930e-01
C     6.141231930700000e+00   2.202538444624117e+00  -1.614894000000007e-01 -1.17356539e+00   1.41558852e+00   8.16743990e-01
C     7.351574686599999e+00   2.946595625781808e+00  -1.087530000000001e-01  4.97084180e-01   1.13416994e+00  -3.21311950e-01
C     8.598033291400000e+00   2.260620196178344e+00  -5.667299999999997e-02  1.40656100e-01   2.16235300e-02   1.67475350e-01
C     9.842671493699999e+00   2.992214691540474e+00   9.298410000000000e-02 -1.90505022e+00  -1.10280371e+00  -5.61829850e-01
C     1.231371025070000e+01   4.406022755439104e+00   2.064375000000000e-01 -1.61309175e+00  -8.74154840e-01  -6.60565200e-01
C     3.671799318400000e+00   5.077274454662009e+00   9.826799999999999e-02  2.01317560e-01   8.10079660e-01  -5.16872140e-01
C     4.868967438099999e+00   4.334781278663836e+00  -5.819999999999936e-03  1.94926857e+00   1.95510277e+00  -2.56975010e-01
C     6.132610248099999e+00   5.091976666736159e+00  -1.511886000000011e-01 -1.75282382e+00   3.11020990e-01   1.86591860e-01
C     7.368829489399999e+00   4.438614877589693e+00  -1.575348000000005e-01 -1.09907066e+00  -2.83749542e+00   5.43156400e-02
C     8.561047839800001e+00   5.141132590635642e+00  -1.577642999999966e-01  2.22434284e+00  -1.52757874e+00   4.38112230e-01
C     9.809106229599999e+00   4.374685184708238e+00   4.724850000000001e-02  6.89192490e-01   2.77008409e+00  -2.58341250e-01
C     1.108277389880000e+01   5.108110870867804e+00   1.067649000000000e-01 -1.86904424e+00  -1.68044330e-01   1.00701640e-01
C     1.350478395370000e+01   6.501613594795519e+00  -5.763900000000177e-02 -4.35687390e-01   5.23172030e-01   1.49382315e+00
C     4.877411295600000e+00   7.215515602003509e+00  -1.864859999999879e-02  1.66751910e-01   6.32774220e-01  -1.42618768e+00
C     6.097290643499999e+00   6.527368275084457e+00  -1.741743000000007e-01  1.75091221e+00  -4.03947110e-01   1.98099510e-01
C     7.383269755200000e+00   7.261560166654394e+00  -2.546253000000007e-01 -2.51682956e+00  -6.22050520e-01   4.83450370e-01
C     8.591451642799999e+00   6.544020626372029e+00  -2.534621999999978e-01 -1.11272281e+00  -8.13688000e-01   5.02677980e-01
C     9.791619864699999e+00   7.203248886498465e+00  -1.440084000000006e-01  1.38025776e+00   1.83540945e+00  -5.79295600e-02
C     1.101948324900000e+01   6.533355231502299e+00   1.993770000000000e-02  6.17216590e-01  -1.08163844e+00  -4.10219730e-01
C     1.224197332770000e+01   7.235970545438034e+00  -1.156590000000079e-02  1.65815106e+00  -8.53905300e-01  -6.02101300e-02
