32
Lattice="9.86 0 0 4.93 8.53901048131456 0 0 0 30 " PBC="1 1 1" Properties=species:S:1:pos:R:3:force:R:3 Energy="-256.6837975"
C     4.949461569399999e+00   8.408799109190481e+00  -2.911116000000007e-01 -2.62904910e-01  -6.45211870e-01   4.47086280e-01
C     1.256812245700000e+00   5.326295738707943e-01  -3.611816999999995e-01  5.11325710e-01   1.90955001e+00   1.50923595e+00
C     7.431388773700000e+00   8.391867190699793e+00  -2.815250999999996e-01  3.21219330e-01  -8.83052860e-01   1.63208550e-01
C     3.736389368300000e+00   5.597853349992903e-01  -8.580089999999885e-02 -4.45151160e-01   1.31293411e+00  -1.34436061e+00
C     9.906491872000000e+00   8.413987582738336e+00  -1.511792999999990e-01 -6.61816400e-02  -4.19788500e-01   4.52249760e-01
C     6.212611330099999e+00   6.167627363281384e-01  -2.210123999999993e-01 -1.37414459e+00  -8.30021780e-01   5.72890940e-01
C     1.236824270620000e+01   8.492176569220344e+00  -1.284348000000008e-01 -6.65989170e-01  -3.26688750e+00   2.01381380e-01
C     8.650212362100000e+00   6.204415128231321e-01  -1.974200999999987e-01  1.04651415e+00  -1.79124884e+00  -7.82782810e-01
C     1.247464423400000e+00   1.976521169421198e+00  -1.235403000000019e-01 -2.04102970e-01  -3.10705890e-01  -1.14844697e+00
C     2.474485763700000e+00   2.718239515608417e+00  -6.900989999999751e-02  5.41923670e-01  -1.07228604e+00   9.29685380e-01
C     3.729283907200000e+00   2.029740210677379e+00  -6.002850000000137e-02 -8.72977540e-01  -2.30829325e+00  -1.53408230e-01
C     4.945360203800000e+00   2.704071845590315e+00  -8.188290000000009e-02  5.52128640e-01   1.38019831e+00  -7.06613380e-01
C     6.179750957400000e+00   2.013448461802378e+00  -2.686712999999976e-01 -2.98698720e-01   3.08990610e-01   7.48071950e-01
C     7.412935192099999e+00   2.692608138630810e+00  -2.674737000000000e-01 -5.21263920e-01   1.50334840e+00  -4.14497290e-01
C     8.616294997400001e+00   1.989008618347150e+00  -2.787699000000003e-01  1.76099224e+00   1.74089674e+00   6.02660300e-01
C     9.866598016199999e+00   2.689013812949464e+00  -1.392366000000003e-01  7.49682860e-01   1.74027300e-02   2.07877500e-02
C     2.508211351400000e+00   4.101377588615507e+00   1.290273000000000e-01 -6.08037780e-01   1.58882433e+00   8.59051800e-02
C     3.756955602800000e+00   4.853771149534508e+00   1.377801000000000e-01 -1.71005971e+00  -3.38608940e-01  -1.39154733e+00
C     4.941828844800000e+00   4.144424960587912e+00  -7.985400000000098e-02  1.79718499e+00  -3.64409540e-01   3.49750930e-01
C     6.207544769099999e+00   4.852301158880375e+00  -2.186151000000010e-01 -1.09879593e+00  -7.82823710e-01   1.40598950e-01
C     7.432443843000000e+00   4.130397757292206e+00  -2.834673000000016e-01  5.39808100e-02  -2.95510930e-01   5.84386710e-01
C     8.666277210800001e+00   4.828434368418461e+00  -1.688508000000013e-01  4.97569990e-01   7.28258000e-03  -3.93221390e-01
C     9.919702349300000e+00   4.109659831050374e+00  -1.371870000000186e-02 -2.26974779e+00  -2.66496570e-01  -3.90490440e-01
C     1.110669499830000e+01   4.801607444583549e+00   1.647798000000000e-01  1.97474559e+00   1.89817148e+00  -2.82982210e-01
C     3.716999431800000e+00   6.266709771386064e+00  -6.044789999999978e-02  1.12350630e-01   1.12536469e+00   1.52377989e+00
C     4.958789868900000e+00   6.980614511077407e+00  -1.661769000000000e-01 -5.38563810e-01   1.13388370e-01  -5.56493250e-01
C     6.193082762000000e+00   6.263358038992454e+00  -2.162810999999998e-01  5.28630100e-02   8.31909100e-02  -5.27599040e-01
C     7.434319412200000e+00   6.940370923196110e+00  -3.176397000000009e-01 -2.92120650e-01   1.69925059e+00   1.79676040e-01
C     8.660578081499999e+00   6.252459785306935e+00  -2.686683000000016e-01  5.82438600e-01  -3.67393610e-01   1.22315677e+00
C     9.881438302199999e+00   6.975618421435664e+00  -7.200989999999763e-02  7.46138860e-01   1.35433740e-01  -1.64832210e-01
C     1.111735094680000e+01   6.275679831115094e+00   1.537323000000000e-01 -6.11431900e-02  -8.28804800e-02  -9.78996910e-01
C     1.235200018030000e+01   7.033829624388767e+00   5.102550000000000e-02 -1.11755800e-02  -7.98607290e-01  -4.98240630e-01
