32
Lattice="9.86 0 0 4.93 8.53901048131456 0 0 0 30 " PBC="1 1 1" Properties=species:S:1:pos:R:3:force:R:3 Energy="-257.58622733"
C     9.843685150999999e+00   2.311834619334240e-01   7.591170000000000e-02  2.87654080e-01  -1.09499660e-01  -4.70553200e-02
C     1.220491210200000e+00   9.496882519604480e-01   5.273130000000000e-02  5.20703400e-02  -2.95794170e-01  -3.54155780e-01
C     2.452741012700000e+00   2.195851801687544e-01   4.390620000000000e-02 -7.34244430e-01  -2.65723470e-01   2.06645040e-01
C     3.656451834000000e+00   9.198551694860528e-01  -1.401900000001177e-03  1.52308767e+00   4.79744480e-01   3.87211340e-01
C     4.911232426700000e+00   2.099219235689576e-01   5.951699999999999e-02 -7.82938820e-01   7.40396610e-01  -1.23151660e-01
C     6.121123545300000e+00   9.275147472767176e-01   8.065620000000000e-02  1.32762468e+00   2.31385310e-01  -3.61608370e-01
C     7.377907246299999e+00   2.040479382597656e-01   4.275930000000000e-02 -8.04119610e-01   2.22899530e-01   5.29556500e-01
C     8.597273775600000e+00   9.161755390900113e-01   7.787669999999999e-02  7.73585410e-01   6.14950770e-01  -1.49208490e-01
C     1.109892936090000e+01   2.371368173450276e+00  -3.817799999999849e-02 -7.33647160e-01  -1.04934800e-02   3.22315490e-01
C     2.464662097800000e+00   3.086165922857618e+00  -5.396400000000057e-02 -4.38146900e-02  -1.17086412e+00  -1.83911370e-01
C     3.694919194300000e+00   2.349562614728129e+00  -1.663740000000047e-02 -1.37507170e+00  -4.11884940e-01  -1.25678170e-01
C     4.894586824000000e+00   3.040944518817005e+00   2.509140000000000e-02  1.50270511e+00   1.99785169e+00  -2.28930500e-02
C     6.136861584300000e+00   2.364347057473201e+00   7.283880000000000e-02  6.49159200e-01  -6.94210270e-01   6.74360400e-02
C     7.400301031800000e+00   3.076020724506330e+00   9.331650000000000e-02 -9.62550980e-01  -6.88151630e-01  -9.03688300e-02
C     8.640298822299998e+00   2.348463131738724e+00   7.779390000000000e-02 -1.05447283e+00   4.08317570e-01  -2.52883300e-01
C     9.849474647199997e+00   3.084630779553523e+00  -1.091369999999969e-02  6.81023620e-01  -3.47534360e-01   1.82609260e-01
C     1.230706594180000e+01   4.479517420909731e+00  -7.958160000000092e-02  4.23015930e-01   1.29113616e+00   5.84252530e-01
C     3.691084640299999e+00   5.199277189307001e+00  -1.008959999999703e-02 -8.98260000e-01   7.82970300e-02   2.10487800e-02
C     4.907334177099999e+00   4.510437604808335e+00   2.286510000000000e-02 -2.23524250e-01  -1.66129318e+00   2.54891050e-01
C     6.110209215499999e+00   5.218398253914446e+00   1.191003000000000e-01  2.07470802e+00  -3.67872880e-01  -3.98869910e-01
C     7.362290189499999e+00   4.487528122811334e+00   9.779130000000000e-02  7.15920050e-01   5.84451560e-01   1.79583770e-01
C     8.627665993099999e+00   5.195927677056116e+00   8.652599999999999e-02 -1.47476398e+00   7.65548800e-01  -6.41064200e-02
C     9.855568225799999e+00   4.522044084023066e+00  -1.307400000001735e-03 -4.95294730e-01  -1.69424664e+00   2.38284390e-01
C     1.107832580630000e+01   5.200146119013445e+00  -2.477700000000027e-03  3.19066070e-01   6.57294570e-01  -4.27613310e-01
C     1.354729490000000e+01   6.609039043089683e+00   6.646050000000001e-02  7.15978730e-01   9.72276710e-01  -4.39822820e-01
C     4.950770533700000e+00   7.352282114988210e+00   6.883439999999999e-02 -1.15843095e+00  -6.26088850e-01   3.07080600e-01
C     6.187193334700000e+00   6.642043941006874e+00   1.079625000000000e-01 -1.73400010e+00  -6.00296180e-01   6.02034400e-02
C     7.406785953800000e+00   7.324092706641110e+00   1.215375000000000e-01 -6.86213740e-01   1.24696291e+00  -2.62256970e-01
C     8.605295033499999e+00   6.628177783448821e+00   1.104051000000000e-01  1.46825585e+00  -6.81780130e-01  -1.30591670e-01
C     9.846940676500001e+00   7.344661731255648e+00   7.121580000000001e-02 -6.93788180e-01  -6.30322870e-01  -4.47326800e-02
C     1.105422264190000e+01   6.630097865345354e+00   2.282940000000000e-02  1.30717865e+00  -5.89667900e-01   2.43041710e-01
C     1.230740118180000e+01   7.315112400099505e+00   4.585440000000000e-02  3.41027300e-02   5.54211020e-01  -1.05251800e-01
