32
Lattice="9.86 0 0 4.93 8.53901048131456 0 0 0 30 " PBC="1 1 1" Properties=species:S:1:pos:R:3:force:R:3 Energy="-256.39799346"
C     1.235613442900000e+00   7.681995254877944e-01   3.420191400000000e+00 -1.30493935e+00  -6.12116570e-01   1.34652180e+00
C     2.444862527600000e+00   1.454704800691542e+00   3.453751800000000e+00  6.58641770e-01   3.25768106e+00   6.01297000e-03
C     3.669348418200000e+00   8.115842737642640e-01   3.616685100000000e+00  1.50122980e+00  -1.37005349e+00   1.72009590e-01
C     4.940575392300000e+00   1.505353002062510e+00   3.607688100000000e+00 -1.82689299e+00   1.63513890e+00  -3.82210700e-01
C     6.147134669000000e+00   7.942564013576191e-01   3.575388900000000e+00 -5.11096440e-01  -4.97580350e-01   1.09685086e+00
C     7.338627421999999e+00   1.519817488084896e+00   3.683138700000000e+00  1.65484337e+00  -2.36622300e-02  -1.25293012e+00
C     8.582006551600001e+00   7.649073099972304e-01   3.649310700000000e+00  7.35318220e-01   3.33163866e+00  -3.52376310e-01
C     9.859788502999999e+00   1.475714694417163e+00   3.474625800000000e+00 -1.50151906e+00  -5.97887000e-03   8.79185730e-01
C     2.439393580000000e+00   2.956696250498390e+00   3.414711300000000e+00 -1.26778015e+00  -2.76116084e+00  -6.58900000e-04
C     3.620433747000000e+00   3.669635484274760e+00   3.450438600000000e+00  3.40798937e+00  -1.62825149e+00   3.46020030e-01
C     4.941809815000000e+00   2.978092278277917e+00   3.559081500000000e+00 -2.91731588e+00  -2.63682320e+00  -3.47335540e-01
C     6.142952254200000e+00   3.632796826822363e+00   3.571065900000000e+00  2.39893300e-02   3.15099491e+00   1.39760130e-01
C     7.351874036199998e+00   2.947054512205003e+00   3.571771200000000e+00  1.54961951e+00  -1.16778117e+00   7.30027180e-01
C     8.633913437000000e+00   3.616407733227890e+00   3.581733300000000e+00 -1.85649640e+00   3.57688600e-02   2.57588530e-01
C     9.819140455800000e+00   2.903965299081246e+00   3.553805700000000e+00  1.31956049e+00  -1.31871626e+00  -1.00074296e+00
C     1.104251379330000e+01   3.623734801950463e+00   3.439311900000000e+00  3.77348720e-01  -8.22720910e-01  -1.75577240e-01
C     3.657283179899999e+00   5.043283301034378e+00   3.465339300000000e+00  6.82907870e-01   2.83025250e+00   5.41791130e-01
C     4.915245249500000e+00   5.825279732705233e+00   3.571449600000000e+00 -9.79309750e-01  -2.15131323e+00   9.41742200e-02
C     6.130854182100000e+00   5.111353047756956e+00   3.631722300000000e+00  1.20192214e+00  -1.33048767e+00  -6.67324980e-01
C     7.407230097500000e+00   5.764083377078427e+00   3.651658200000000e+00 -1.58868910e-01  -2.57116920e-01   5.87563460e-01
C     8.664659135499999e+00   5.022269991704565e+00   3.650076600000000e+00 -3.36594813e+00   2.77351190e-01  -2.96061470e-01
C     9.824691734399998e+00   5.736226307019208e+00   3.604083000000000e+00  1.59409160e+00   1.26953159e+00   1.39165570e-01
C     1.102005567130000e+01   5.007605949007262e+00   3.409319400000000e+00  2.25288333e+00   2.33688224e+00   1.20966141e+00
C     1.229912533870000e+01   5.747717338812249e+00   3.502493700000000e+00 -1.56773350e+00   2.32296890e-01  -7.28054150e-01
C     4.913042131100000e+00   7.218227335561642e+00   3.623140200000000e+00 -1.39817327e+00   6.65924830e-01   2.90330290e-01
C     6.137421090000000e+00   7.893210923924727e+00   3.654363600000000e+00  1.72592083e+00   2.86095580e-01  -9.85868040e-01
C     7.425526510699999e+00   7.184208430149951e+00   3.700425000000000e+00 -2.39491437e+00  -1.05614940e-01   4.84173000e-02
C     8.616705074799999e+00   7.899964598093568e+00   3.759065100000000e+00  7.38371100e-01   9.10570100e-01  -5.79267690e-01
C     9.835110697799999e+00   7.166288548146728e+00   3.746094600000000e+00  5.00490500e-01   6.54460410e-01  -1.12152540e+00
C     1.106725184310000e+01   7.899713465795351e+00   3.599781300000000e+00 -9.43667600e-01  -3.88085850e-01   4.18450710e-01
C     1.226933965910000e+01   7.187182567500136e+00   3.564539700000000e+00  1.30953151e+00  -1.95412800e-01   4.45409350e-01
C     1.349696408630000e+01   7.950738664479011e+00   3.666583800000000e+00  7.59996340e-01  -3.60171093e+00  -8.59006770e-01
