32
Lattice="9.86 0 0 4.93 8.53901048131456 0 0 0 30 " PBC="1 1 1" Properties=species:S:1:pos:R:3:force:R:3 Energy="-257.60876077"
C     1.194692569500000e+00   3.867450201054440e-01   3.589542000000000e+00  1.40139060e-01  -1.38842628e+00   5.55618910e-01
C     2.422664512400000e+00   1.081076639974531e+00   3.676803000000000e+00 -2.28048210e-01   6.48076570e-01  -7.28681450e-01
C     3.644088577200000e+00   3.618077792897568e-01   3.652751700000000e+00  9.27263200e-02   6.12577900e-01   1.20069000e-01
C     4.885064282499999e+00   1.074048948959386e+00   3.619434900000000e+00 -4.06443800e-02  -6.81330460e-01  -4.85550200e-01
C     6.117374674700000e+00   3.773398124023528e-01   3.545210700000000e+00  4.02859090e-01  -1.19560225e+00   9.43475070e-01
C     7.352845542000001e+00   1.067021941065080e+00   3.564462300000000e+00  1.59581820e-01   1.00625707e+00   1.61251450e-01
C     8.601226304499999e+00   3.780073922416792e-01   3.619555800000000e+00 -6.74407180e-01   6.04025500e-02  -5.64450190e-01
C     9.832962450299998e+00   1.079974339111668e+00   3.557085000000000e+00 -2.48237610e-01   8.52805950e-01   5.44011330e-01
C     2.404301593500000e+00   2.513190207589662e+00   3.622066500000000e+00  3.38942850e-01  -5.04450960e-01   2.62289810e-01
C     3.653300331500000e+00   3.184561709129601e+00   3.581124600000000e+00  1.58778210e-01   9.94529040e-01   4.93236020e-01
C     4.897893325700000e+00   2.472494991444078e+00   3.573983100000000e+00 -7.09386430e-01   8.23285670e-01   3.14012100e-01
C     6.123793436100000e+00   3.188513904740164e+00   3.594158700000000e+00 -2.29218310e-01   9.50374970e-01  -4.58681800e-01
C     7.341992541400000e+00   2.498700958436884e+00   3.577355100000000e+00  1.59087166e+00  -3.75354380e-01  -2.80117400e-01
C     8.616415190800000e+00   3.209467014046092e+00   3.538802400000000e+00 -1.87631132e+00   4.54603150e-01   4.61846310e-01
C     9.837111538300000e+00   2.526459659095372e+00   3.587108400000000e+00 -9.76417190e-01  -1.55792683e+00  -2.66307390e-01
C     1.102442572190000e+01   3.233787225964495e+00   3.634175400000000e+00  2.02456286e+00   5.78721210e-01  -4.05018550e-01
C     3.664995474700000e+00   4.619342607448369e+00   3.637622100000000e+00  6.67718740e-01   1.83499130e-01  -6.61778400e-01
C     4.917466904699999e+00   5.355418290120298e+00   3.578226000000000e+00 -1.48486218e+00  -6.81294070e-01   1.85472700e-01
C     6.130246510299999e+00   4.626935666347394e+00   3.561924900000000e+00 -8.92908000e-03  -1.21004000e-02   2.27573350e-01
C     7.353863685599999e+00   5.350825754113840e+00   3.581750400000000e+00  3.39865290e-01  -1.34526839e+00   1.16685430e-01
C     8.594951647000000e+00   4.636490904464619e+00   3.562914300000000e+00 -2.01024690e-01  -1.82942720e-01  -7.82654200e-02
C     9.811175350599999e+00   5.360583110609126e+00   3.576185400000000e+00  5.17437790e-01   1.23408250e-01   3.59003220e-01
C     1.106127515480000e+01   4.664583053482351e+00   3.601000800000000e+00 -5.98954610e-01  -6.17538310e-01   1.16855900e-01
C     1.230370333670000e+01   5.346796963579272e+00   3.621955500000000e+00 -1.26358780e-01  -1.85253160e-01  -7.40433900e-02
C     4.872861447900000e+00   6.778821810875514e+00   3.574285500000000e+00  5.90307200e-01   2.92180330e-01   4.99218950e-01
C     6.119161306700000e+00   7.480001460979247e+00   3.622744500000000e+00 -2.91134740e-01   1.87974060e-01  -2.41906610e-01
C     7.350042442600000e+00   6.742119521420483e+00   3.657155700000000e+00 -6.01416820e-01   1.80151551e+00  -4.75233140e-01
C     8.555661124600000e+00   7.496748766063357e+00   3.642217500000000e+00  1.12095068e+00  -1.12467989e+00   2.57897000e-01
C     9.802540504900000e+00   6.777799862101269e+00   3.641217900000000e+00  4.94902160e-01   5.73473900e-01  -3.04202520e-01
C     1.106981958430000e+01   7.479269667781112e+00   3.634425900000000e+00 -1.38374518e+00   1.32886880e-01  -6.42202210e-01
C     1.229431272200000e+01   6.764669511076277e+00   3.589665600000000e+00 -4.50017910e-01   5.63053530e-01   6.21041460e-01
C     1.349141049060000e+01   7.507463516413661e+00   3.630748800000000e+00  1.48947086e+00  -9.87457550e-01  -5.73119360e-01
