32
Lattice="9.86 0 0 4.93 8.53901048131456 0 0 0 30 " PBC="1 1 1" Properties=species:S:1:pos:R:3:force:R:3 Energy="-256.9209775"
C     1.231459671400000e+00   8.204604043780144e-01   3.553900500000000e+00  8.75922360e-01  -2.17243985e+00   1.14157390e-01
C     2.497440632500000e+00   1.443211890316196e+00   3.482736300000000e+00 -2.42508220e-01   1.52132060e+00   3.38779380e-01
C     3.732620580500000e+00   7.424470653415817e-01   3.605822700000000e+00 -4.96505540e-01   1.05407982e+00  -6.42115070e-01
C     4.945724826599999e+00   1.479545123738282e+00   3.530277300000000e+00  4.86994500e-01  -4.42487410e-01   7.32807960e-01
C     6.174774023800000e+00   7.726407502285473e-01   3.611468100000000e+00  7.08818690e-01  -4.34175700e-01  -2.49054330e-01
C     7.421019553999999e+00   1.476658767415832e+00   3.609477300000000e+00  3.63894200e-02  -4.52514020e-01   7.56412490e-01
C     8.682592848600001e+00   7.284177272932559e-01   3.620079900000000e+00 -2.57376766e+00   8.58143310e-01  -2.62768830e-01
C     9.842630919799999e+00   1.486423467460131e+00   3.559341300000000e+00  1.88372628e+00  -2.11140820e-01  -3.56847940e-01
C     2.491443977700000e+00   2.874852652921049e+00   3.373598100000000e+00  4.88631170e-01   2.66570820e-01  -1.47999050e-01
C     3.726110268999999e+00   3.614155654603894e+00   3.347201400000000e+00 -2.05154910e-01  -2.07014960e-01   3.61888030e-01
C     4.974105160400000e+00   2.888574415811885e+00   3.521431200000000e+00 -1.26633541e+00   9.61353030e-01  -2.17184160e-01
C     6.185431402000000e+00   3.599960062021523e+00   3.685283700000000e+00  1.35636720e-01   7.40325020e-01  -7.83005530e-01
C     7.400778157200000e+00   2.906574820683934e+00   3.715472100000000e+00  2.07884248e+00  -1.05879686e+00  -8.80395000e-01
C     8.691031036600000e+00   3.592149770695886e+00   3.585068100000000e+00 -3.10584324e+00   9.68293250e-01  -1.45274620e-01
C     9.875510519500001e+00   2.892324493044386e+00   3.447346800000000e+00  4.69600210e-01   3.56845300e-02   6.54252820e-01
C     1.111415916620000e+01   3.592858850126146e+00   3.381978600000000e+00  5.94242950e-01  -3.84992000e-02  -2.32339310e-01
C     3.691483428000000e+00   5.047748776564895e+00   3.318510000000000e+00  1.50518161e+00  -3.65401470e-01   8.85143620e-01
C     4.985627014100000e+00   5.720688125819066e+00   3.543387000000000e+00 -2.10611972e+00   7.47119700e-01  -3.82601560e-01
C     6.202467362100000e+00   5.039478830305120e+00   3.627456600000000e+00 -7.62215290e-01  -1.02865448e+00   5.42797770e-01
C     7.398059656599999e+00   5.765520748712524e+00   3.714796200000000e+00  1.47862177e+00  -1.24278284e+00  -8.19802910e-01
C     8.631695380699998e+00   5.014278331796334e+00   3.528648900000000e+00  3.95746320e-01   6.02497560e-01   1.36121130e+00
C     9.863998821599999e+00   5.720647223958867e+00   3.520521300000000e+00  5.59982400e-01   1.97593780e-01  -3.22811330e-01
C     1.113098259400000e+01   5.020821348576633e+00   3.400152300000000e+00 -2.05320286e+00  -2.11203030e-01  -2.32445740e-01
C     1.230590053910000e+01   5.759747267556683e+00   3.328613100000000e+00  1.89600167e+00   3.04815850e-01   1.10911453e+00
C     4.966763749500000e+00   7.141303488872353e+00   3.639489000000000e+00  4.62302230e-01   1.04044013e+00  -8.17731940e-01
C     6.207590815300000e+00   7.926530740548420e+00   3.624240000000000e+00 -1.24649341e+00  -1.54186221e+00   7.77559330e-01
C     7.429380439600000e+00   7.167036565464776e+00   3.731121900000000e+00 -3.31975240e-01   1.73512962e+00  -5.39356390e-01
C     8.671627838399999e+00   7.890826149077872e+00   3.695697900000000e+00 -3.90098000e-01  -1.70028557e+00  -3.27395910e-01
C     9.873942039999999e+00   7.142071060524399e+00   3.595983900000000e+00  9.95817190e-01   6.66291840e-01   1.66770040e-01
C     1.113038187350000e+01   7.875174911378975e+00   3.586800900000000e+00 -1.90791580e+00   5.74519180e-01   1.99219960e-01
C     1.233105872350000e+01   7.188888491013830e+00   3.563513700000000e+00  6.36968190e-01  -1.62535166e+00  -1.07027102e+00
C     1.357745392850000e+01   7.847112307337503e+00   3.585006600000000e+00  9.98709150e-01   4.58432030e-01   4.29286020e-01
