32
Lattice="9.86 0 0 4.93 8.53901048131456 0 0 0 30 " PBC="1 1 1" Properties=species:S:1:pos:R:3:force:R:3 Energy="-256.14752519"
C     1.224069354900000e+00   3.361440394624312e-01   3.585456000000000e+00 -9.35883220e-01   9.05989620e-01  -1.45287012e+00
C     2.464839725700000e+00   1.066582096635255e+00   3.473534700000000e+00 -1.80506859e+00  -9.88087300e-02   1.50518745e+00
C     3.655778494600000e+00   3.985678778457376e-01   3.543272700000000e+00  2.79784605e+00  -2.21026035e+00   9.25602200e-02
C     4.893192422800000e+00   1.159120292498168e+00   3.633951600000000e+00 -3.11838560e-01  -2.84363032e+00   1.66385030e-01
C     6.096121789800000e+00   3.953515741583408e-01   3.670352400000000e+00  5.02033120e-01  -1.72279309e+00  -1.29661320e+00
C     7.340949846399999e+00   1.050561802903413e+00   3.474341400000000e+00  3.19298600e-02  -1.90083930e-01   3.41444460e-01
C     8.555018006099999e+00   3.112664863299992e-01   3.429905700000000e+00  1.88378763e+00   1.31074394e+00   8.36286520e-01
C     9.837988190899999e+00   1.068711384288548e+00   3.557131800000000e+00 -1.76333524e+00  -1.76813058e+00  -7.69623010e-01
C     2.448377913400000e+00   2.478061999326513e+00   3.653185200000000e+00  4.26852350e-01  -1.05172290e-01  -5.57239070e-01
C     3.640252100500000e+00   3.254301686302066e+00   3.732864900000000e+00  1.33173782e+00  -1.56763625e+00  -1.01801745e+00
C     4.937222647200000e+00   2.551616010919976e+00   3.655250400000000e+00 -3.34325337e+00   2.92939000e-03  -2.36615410e-01
C     6.113683435800000e+00   3.210250724427947e+00   3.474576300000000e+00  1.91715242e+00   1.43021112e+00   5.84687510e-01
C     7.364636129999999e+00   2.459016590351922e+00   3.432104700000000e+00 -1.41685436e+00   2.04214294e+00   3.68366510e-01
C     8.542138874100001e+00   3.232819926857321e+00   3.537950700000000e+00  1.46844843e+00  -1.64011849e+00  -4.17476790e-01
C     9.768377774099999e+00   2.468416076917991e+00   3.551071200000000e+00  1.82345515e+00   8.06308620e-01   3.85226610e-01
C     1.107898420780000e+01   3.128357515199717e+00   3.623538900000000e+00 -2.44806604e+00   8.77590890e-01   5.94524820e-01
C     3.630561495300000e+00   4.646859568720169e+00   3.631042800000000e+00  7.98384310e-01   1.51921980e-01   7.03175930e-01
C     4.884887295500000e+00   5.346941955977221e+00   3.635638800000000e+00 -1.08300762e+00   1.87429930e-01  -4.01843880e-01
C     6.075872751500000e+00   4.673740202930999e+00   3.517941900000000e+00  2.41783963e+00  -2.36380047e+00   2.75236270e-01
C     7.330634905999998e+00   5.354461152435595e+00   3.554697000000000e+00  3.03747660e-01   3.53867170e-01  -6.02020490e-01
C     8.568692889399999e+00   4.650227610623795e+00   3.608269500000000e+00 -9.35155760e-01  -9.07887440e-01   2.93187210e-01
C     9.801371946999998e+00   5.293757668493694e+00   3.773586600000000e+00  1.39248223e+00  -3.96936900e-02  -1.05274290e+00
C     1.103179799460000e+01   4.520775187065738e+00   3.752085900000000e+00  9.86268370e-01   3.26129891e+00  -4.54282140e-01
C     1.228277731080000e+01   5.343359243350128e+00   3.665605200000000e+00 -1.95390426e+00  -1.85208573e+00   7.80922940e-01
C     4.919818810500000e+00   6.748014427305352e+00   3.629868600000000e+00 -2.12979459e+00   7.78800010e-01  -1.23267531e+00
C     6.111735839300000e+00   7.452595165283268e+00   3.488443200000000e+00  1.96966451e+00   1.15345008e+00   8.11431360e-01
C     7.380021624699999e+00   6.770568857246595e+00   3.473919300000000e+00 -2.06458170e-01  -3.75734030e-01   7.04906100e-01
C     8.644160491299999e+00   7.436652661936898e+00   3.549334200000000e+00 -1.21549740e+00   2.33047767e+00  -1.78320650e-01
C     9.867807394500000e+00   6.724189904945313e+00   3.658577100000000e+00 -1.43019087e+00  -3.63461000e-01   4.05413140e-01
C     1.106157775820000e+01   7.439092171840930e+00   3.653901000000000e+00 -5.54798000e-03   2.43226212e+00   6.61306760e-01
C     1.228293309880000e+01   6.743115853163290e+00   3.701296800000000e+00  2.43053160e-01   5.97934310e-01  -1.40017884e+00
C     1.350839300950000e+01   7.452867901277999e+00   3.493640700000000e+00  6.89173330e-01  -5.74062300e-01   1.56027042e+00
