64
Lattice="9.86 0 0 4.93 8.53901048131456 0 0 0 30 " PBC="1 1 1" Properties=species:S:1:pos:R:3:force:R:3 Energy="-515.28392784"
C     4.972478260400000e+00   8.293871200898483e+00  -1.593611999999993e-01 -1.09670762e+00  -2.22501720e+00   7.86177800e-02
C     1.265926928300000e+00   4.297163948845768e-01  -1.911197999999992e-01  2.10943160e-01   6.51802840e-01   1.85121170e-01
C     9.831068837300000e+00   2.691001694589208e-01   3.747798000000000e+00 -1.63830900e-02   8.30852150e-01  -6.35102000e-01
C     1.207826582500000e+00   9.639947662889544e-01   3.660294900000000e+00  7.68346000e-02   1.03991088e+00  -3.20037400e-02
C     7.424693192800000e+00   8.242971696449089e+00  -1.448357999999992e-01  3.48580020e-01   1.00501558e+00   1.78333220e-01
C     3.746862315200000e+00   4.267877704602512e-01  -1.632716999999992e-01 -1.41712166e+00   2.55993110e-01  -1.12823249e+00
C     2.450131563700000e+00   2.652384873594456e-01   3.785981100000000e+00 -7.89895570e-01   3.13060120e-01  -2.70647640e-01
C     3.652438912600000e+00   1.006788615040208e+00   3.734605200000000e+00  1.00771238e+00  -4.90173610e-01   1.95770690e-01
C     9.877232765700001e+00   8.260126995453934e+00  -2.845896000000003e-01  8.25130460e-01  -7.94442600e-02   4.64307570e-01
C     6.189366035000000e+00   4.278542928692032e-01  -2.671739999999971e-01 -3.80516900e-01   1.24714566e+00   3.88883880e-01
C     4.898495130799999e+00   2.901782898782768e-01   3.822665400000000e+00  8.72361800e-02  -4.52100090e-01  -7.77018690e-01
C     6.147147733500000e+00   9.562550071898824e-01   3.749864100000000e+00  3.16169860e-01   3.47583840e-01  -2.31140180e-01
C     1.235005726730000e+01   8.251882580835494e+00  -2.588195999999989e-01 -1.70503800e-01   3.16516050e-01  -1.53925470e-01
C     8.649790600599998e+00   4.383668394513408e-01  -1.253516999999995e-01  1.55719860e-01  -9.64853310e-01  -8.30731690e-01
C     7.388346817100000e+00   2.668042003210584e-01   3.662734800000000e+00 -1.07919050e-01   1.34932074e+00   4.45268400e-02
C     8.610404288300000e+00   1.011923378212146e+00   3.623350800000000e+00 -1.79897550e-01  -4.07772520e-01   4.32059860e-01
C     1.256939735500000e+00   1.866954649639279e+00  -3.198833999999984e-01 -7.27938720e-01  -9.74492260e-01  -9.10836200e-02
C     2.474780528400000e+00   2.523207235393645e+00  -5.040507000000005e-01  4.67555800e-01   2.15325843e+00   6.34637040e-01
C     1.105394774510000e+01   2.405579718938396e+00   3.452005200000000e+00  1.40728953e+00  -6.69338910e-01   4.76953750e-01
C     2.455635711500000e+00   3.129489702599260e+00   3.428707500000000e+00 -6.76331980e-01  -6.76161120e-01   4.92893990e-01
C     3.722406261400000e+00   1.848174718500510e+00  -3.470462999999988e-01 -9.68466950e-01  -7.06008200e-02   1.94109750e-01
C     4.892253356399999e+00   2.612638170732990e+00  -2.937189000000018e-01  2.57043137e+00  -8.45330370e-01   1.63498880e-01
C     3.688286175100000e+00   2.429091030394028e+00   3.603331800000000e+00 -7.16566130e-01  -1.34578144e+00   2.37071300e-02
C     4.939142241300000e+00   3.054745011384466e+00   3.715329900000000e+00 -8.25584600e-02   2.10453145e+00  -9.94756400e-02
C     6.157787166500000e+00   1.892915973981833e+00  -1.803239999999988e-01 -1.77464320e-01  -1.18242060e+00  -4.04261390e-01
C     7.409631697700000e+00   2.562684703254676e+00  -1.475915999999984e-01 -5.34085420e-01   7.12520330e-01   4.69025200e-02
C     6.174424881199999e+00   2.356164550680741e+00   3.734574600000000e+00  8.38693700e-02   1.85528961e+00   4.20328190e-01
C     7.402008389400000e+00   3.156932289089779e+00   3.741081600000000e+00 -1.56275502e+00  -1.23755015e+00  -6.42411500e-02
C     8.624170770999999e+00   1.827955024804709e+00  -1.646885999999981e-01  1.31140474e+00   2.43066727e+00   1.27138140e-01
C     9.888777248099998e+00   2.597239858524511e+00  -2.765664000000001e-01 -3.20785760e-01  -1.67395938e+00  -3.33010420e-01
C     8.598645153700000e+00   2.450709072446034e+00   3.596887500000000e+00  8.29918860e-01  -1.29762122e+00   1.02107560e-01
C     9.840086694700000e+00   3.128668932911923e+00   3.482789400000000e+00 -3.20640030e-01  -5.27476960e-01   7.09519000e-03
C     2.466091058300000e+00   3.986501341336914e+00  -5.913566999999986e-01  7.99503090e-01  -4.65878120e-01   4.53468500e-01
C     3.719634221000000e+00   4.697255186161137e+00  -4.849236000000019e-01 -8.34859310e-01   3.89027080e-01  -3.63474830e-01
C     1.230377033540000e+01   4.538831607846536e+00   3.441277200000000e+00  1.27173770e-01   3.77357950e-01  -8.31771100e-02
C     3.689553924600000e+00   5.241960201702224e+00   3.553623600000000e+00 -1.48284970e-01  -2.14920400e-02   4.66907670e-01
C     4.936653873099999e+00   4.029983178162541e+00  -3.291767999999990e-01  1.22481803e+00  -4.72625860e-01   4.24630560e-01
C     6.210640118900000e+00   4.744473608582708e+00  -1.427753999999979e-01 -1.42084785e+00  -1.86753963e+00  -2.33270030e-01
C     4.918807470299999e+00   4.509505998764967e+00   3.759066600000000e+00 -5.92021320e-01  -1.27030810e-01  -5.86932540e-01
C     6.113659969000000e+00   5.241699078761745e+00   3.891668400000000e+00  7.67012870e-01   8.27965890e-01  -1.27347640e-01
C     7.432612892700000e+00   4.009662724143076e+00  -1.236642000000003e-01 -2.90352000e-02  -7.77412840e-01  -1.91550360e-01
C     8.665718888299999e+00   4.691600397250967e+00  -2.120004000000009e-01  5.05579870e-01   1.11789069e+00  -3.92563060e-01
C     7.373192391500000e+00   4.568596463627197e+00   3.869551800000000e+00 -3.90068890e-01  -5.70623320e-01  -7.23423670e-01
C     8.594111870799999e+00   5.262757815627312e+00   3.747539400000000e+00  9.03189920e-01  -1.71679000e-03  -3.53611400e-02
C     9.926206646199999e+00   4.002321822223525e+00  -4.162724999999980e-01 -2.63828392e+00  -7.10769100e-02   1.00433063e+00
C     1.110450090180000e+01   4.731966092982128e+00  -5.355449999999990e-01  1.28326948e+00  -5.83678880e-01  -7.47693700e-02
C     9.824193557899999e+00   4.525740707049962e+00   3.503049900000000e+00 -1.56156700e-01   1.67367124e+00   7.24014410e-01
C     1.105848935970000e+01   5.240753383351086e+00   3.487443000000000e+00  3.42998000e-01   6.69038140e-01  -3.22034830e-01
C     3.732749154900000e+00   6.112232667545005e+00  -4.716440999999989e-01 -1.11691235e+00   1.01575015e+00   9.97997160e-01
C     4.941985569500000e+00   6.813155634993708e+00  -2.066291999999983e-01  3.09470700e-02   1.83681910e+00  -1.40113770e-01
C     1.353437110220000e+01   6.672888127712207e+00   3.599595000000000e+00  6.12325510e-01   3.19720910e-01   6.84755810e-01
C     4.908195645299999e+00   7.392629622627049e+00   3.821160900000000e+00 -9.67042760e-01  -3.77670450e-01  -8.53854590e-01
C     6.177036006400000e+00   6.135617516255428e+00  -6.912360000000106e-02  1.12508060e-01   1.46432270e-01  -6.35061260e-01
C     7.410204810200000e+00   6.834621768049275e+00  -7.743809999999840e-02  5.12174000e-01   2.93586850e-01  -1.68563050e-01
C     6.125355753099999e+00   6.685375662028263e+00   3.882980700000000e+00  3.43667740e-01  -8.28552260e-01   2.27611380e-01
C     7.374054106199999e+00   7.377876859610857e+00   3.889060800000000e+00 -2.22594360e-01   5.74929130e-01   2.93367500e-02
C     8.648199541699999e+00   6.141514813063229e+00  -2.058243000000033e-01 -3.59758520e-01  -1.35151279e+00   1.68706370e-01
C     9.861221062399999e+00   6.842947815607904e+00  -3.376029000000003e-01  5.01694460e-01   2.84682150e-01   2.14768890e-01
C     8.604483062500000e+00   6.686314782400854e+00   3.850637100000000e+00  8.46740880e-01  -3.45608760e-01  -5.50430700e-01
C     9.855420276499999e+00   7.403297749980132e+00   3.750972000000000e+00 -8.38719260e-01  -5.54912040e-01   1.06262810e-01
C     1.109784071830000e+01   6.152359527153039e+00  -4.587969000000029e-01 -1.25215060e-01  -4.44307330e-01  -3.32461950e-01
C     1.232295971950000e+01   6.842262730797094e+00  -4.549719000000003e-01  1.54176795e+00   3.09895000e-03   3.73577600e-01
C     1.107613698490000e+01   6.673107494891438e+00   3.569417100000000e+00 -1.86279610e-01   7.35113640e-01   4.45447780e-01
C     1.231075792020000e+01   7.428164458569254e+00   3.587093400000000e+00  6.84715600e-02  -2.93720990e+00  -1.32913960e-01
