64
Lattice="9.86 0 0 4.93 8.53901048131456 0 0 0 30 " PBC="1 1 1" Properties=species:S:1:pos:R:3:force:R:3 Energy="-515.77383904"
C     4.952171097400000e+00   8.534894335388222e+00  -3.797249999999863e-02 -1.76502890e-01  -8.28389290e-01   1.14843200e-01
C     1.271233136600000e+00   6.864558343330688e-01  -1.841909999999913e-02 -1.11290304e+00   3.74701770e-01  -7.47920630e-01
C     9.824314737299998e+00   6.130522801042640e-02   3.435003300000000e+00  7.96001730e-01  -1.57006794e+00  -2.12474600e-01
C     1.213243420000000e+00   7.243900468300496e-01   3.427054500000000e+00  2.43750630e-01  -4.57431100e-01  -7.28381000e-02
C     7.426437969099999e+00   8.526618582601319e+00  -2.246309999999951e-02 -5.00309090e-01   4.05836530e-01  -2.60178300e-02
C     3.714389391200000e+00   7.245925921586353e-01  -3.167850000000172e-02 -7.00732720e-01  -1.12483792e+00   1.86356350e-01
C     7.382632601999999e+00   8.537056071281338e+00   3.408047100000000e+00 -3.74282050e-01  -5.97313290e-01   1.75430430e-01
C     3.683371260900000e+00   6.776942118498551e-01   3.425077800000000e+00  8.71599410e-01   8.00556540e-01  -1.88543040e-01
C     9.840733214899998e+00   8.510088253773507e+00  -1.480710000000229e-02  1.07272742e+00   4.07217850e-01  -1.91296700e-02
C     6.140010178100000e+00   6.555850059150392e-01  -5.174699999997756e-03  8.47077660e-01   2.73146004e+00  -5.11405500e-01
C     9.863466233699999e+00   8.530520568830260e+00   3.428391600000000e+00  4.47970090e-01   5.37463730e-01  -1.88290460e-01
C     6.196664505599999e+00   7.192664697618401e-01   3.395907600000000e+00 -1.22805259e+00  -6.10862700e-01   2.68715660e-01
C     1.233543340830000e+01   8.514988450327559e+00  -3.845850000000084e-02 -6.01905100e-01   1.05335310e+00   4.64805760e-01
C     8.651190523399999e+00   7.052642003767361e-01  -1.115549999999743e-02 -6.75104050e-01   2.84165570e-01  -2.12287810e-01
C     1.235204563490000e+01   8.520507042020574e+00   3.393589200000000e+00 -9.06062150e-01   5.40754460e-01   5.43672650e-01
C     8.602854141200000e+00   7.631282925538272e-01   3.454935900000000e+00  6.96820420e-01  -1.05186687e+00  -4.74079140e-01
C     1.233005768700000e+00   2.105064444533451e+00  -1.043699999999994e-01 -9.13078400e-02   6.42303860e-01   1.78682378e+00
C     2.444601582700000e+00   2.823585287900177e+00   4.143090000000001e-02  3.58989600e-02   1.49364559e+00  -1.06152062e+00
C     1.107418273290000e+01   2.126590606832692e+00   3.417938100000000e+00  1.29485894e+00   7.87759560e-01   2.46310660e-01
C     2.477626913200000e+00   2.812475608315173e+00   3.455371500000000e+00 -1.00684997e+00   1.68821061e+00  -1.72078650e-01
C     3.664921327500000e+00   2.130844741853828e+00   9.409200000000000e-03  8.58586890e-01   5.32445390e-01  -1.21346530e-01
C     4.886343223100000e+00   2.873329293451417e+00  -5.253299999999683e-03  8.43418310e-01  -8.01938790e-01   8.40636200e-02
C     3.703806061600000e+00   2.100340920106229e+00   3.397061700000000e+00 -2.17282180e-01   8.78277780e-01   2.96080500e-01
C     4.924877927200000e+00   2.851159204371878e+00   3.359710800000000e+00  7.30499060e-01  -1.53171937e+00   6.98366670e-01
C     6.111995255900000e+00   2.150475073046300e+00  -4.365269999999910e-02  1.42332776e+00  -1.18653763e+00   1.41668080e-01
C     7.385499199800000e+00   2.869601246865954e+00  -7.091340000000201e-02 -5.21275880e-01  -9.48913160e-01   6.52335150e-01
C     6.176519095899999e+00   2.154577384461101e+00   3.413920200000000e+00 -2.41389280e-01  -1.04976601e+00  -5.01820260e-01
C     7.403951548899999e+00   2.859021156710919e+00   3.401193000000000e+00 -5.58796670e-01   1.38521450e-01   6.36572660e-01
C     8.630769181600000e+00   2.145641736944306e+00   1.295250000000000e-02 -4.52299150e-01  -2.26582590e-01  -6.69010840e-01
C     9.868034470299998e+00   2.848558136389566e+00   7.456800000000000e-03  1.95095150e-01  -5.41703140e-01  -6.66537540e-01
C     8.635091608400000e+00   2.169750779133538e+00   3.423816300000000e+00 -3.57435710e-01   4.21605800e-02  -4.82338400e-02
C     9.870681042199999e+00   2.866088981075320e+00   3.395804400000000e+00 -1.96302620e-01  -3.72934200e-02   6.53690990e-01
C     1.232901918250000e+01   4.296569548326255e+00   2.372580000000000e-02  1.85844360e-01  -1.96315710e+00   2.86376140e-01
C     3.689915737300000e+00   4.999911617443944e+00  -3.021509999999950e-02  3.92329790e-01  -2.61889880e-01   1.03086084e+00
C     1.231154460030000e+01   4.292996826341422e+00   3.483432900000000e+00  4.33180590e-01  -1.63893021e+00  -6.11462730e-01
C     3.717109370799999e+00   4.941039495079687e+00   3.426799800000000e+00 -6.12492160e-01   1.09659599e+00  -1.82934700e-02
C     4.932766913200000e+00   4.285692129826307e+00   3.006600000000000e-02 -5.32019020e-01   2.80047030e-01  -5.60034280e-01
C     6.171433110700000e+00   4.991225565203478e+00   2.247330000000000e-02 -1.80485140e-01  -4.65657540e-01  -7.45772160e-01
C     4.953935593699999e+00   4.246313543706634e+00   3.397218600000000e+00 -1.33698717e+00   3.19246310e-01  -1.43662300e-01
C     6.152388076999999e+00   4.970211316582512e+00   3.383204700000000e+00  2.02181010e-01   1.17381015e+00   6.74473060e-01
C     7.405683014200000e+00   4.294970789394084e+00  -5.064780000000013e-02  3.42417450e-01  -7.67189860e-01   6.20747100e-02
C     8.661660857399999e+00   4.976237296278248e+00  -6.075869999999739e-02 -4.22206790e-01   7.86240800e-01   4.79237980e-01
C     7.366640569399999e+00   4.263849341018467e+00   3.464119800000000e+00  1.45595796e+00   7.61369220e-01  -1.13148990e+00
C     8.623896958800000e+00   4.968360229890657e+00   3.389162100000000e+00 -3.48065200e-01   4.09359770e-01   5.50965620e-01
C     9.901812562499998e+00   4.269623334514939e+00   7.046999999999999e-03 -1.14515988e+00  -7.44778100e-02   9.34664500e-02
C     1.111397399540000e+01   4.992219249853035e+00   9.039509999999999e-02 -2.45185400e-01  -7.35452000e-01  -8.84132610e-01
C     9.867820261799999e+00   4.286706393491121e+00   3.441307800000000e+00 -5.71378460e-01  -1.92181990e-01  -6.05961180e-01
C     1.106887992630000e+01   5.030946821813713e+00   3.414873900000000e+00  1.18470599e+00  -1.93799042e+00   3.16505630e-01
C     1.352926874940000e+01   6.416609880219739e+00   4.035570000000000e-02  7.13700440e-01  -5.55621100e-01  -9.48386760e-01
C     4.912742091300000e+00   7.088394926037225e+00  -5.309850000000083e-02  3.88378420e-01   1.37074048e+00   4.14241370e-01
C     3.712113851100000e+00   6.368189506683004e+00   3.386469600000000e+00  1.42666350e-01   9.91467160e-01   3.50853770e-01
C     4.919524193700000e+00   7.165118789101072e+00   3.373613100000000e+00 -1.26674660e-01  -1.26673217e+00   5.51705280e-01
C     6.154863725799999e+00   6.392140662568460e+00  -5.954429999999888e-02  1.26002700e-02   7.52263380e-01   5.24830200e-01
C     7.384846862200000e+00   7.118570679002183e+00  -1.749389999999806e-02  9.68065390e-01  -6.07656830e-01  -4.35376670e-01
C     6.148445950399999e+00   6.419723203440747e+00   3.413051400000000e+00  1.57276450e-01  -2.08623340e-01  -5.31862830e-01
C     7.400016324299999e+00   7.103934729649358e+00   3.387676500000000e+00 -4.34986870e-01   3.42321370e-01   1.77216950e-01
C     8.643997850600000e+00   6.422479937584110e+00  -2.534370000000052e-02 -7.99296150e-01  -1.58314102e+00  -8.30069400e-02
C     9.873575001500001e+00   7.092866635045391e+00  -2.949000000000979e-03 -6.45056130e-01   5.23262650e-01   1.19894900e-02
C     8.638595556600000e+00   6.393581876757276e+00   3.359744100000000e+00 -5.58861840e-01   5.69462800e-02   5.69698870e-01
C     9.861757495699999e+00   7.118669646133646e+00   3.418622100000000e+00 -2.58509480e-01   2.06035950e-01  -5.74708630e-01
C     1.109804521470000e+01   6.384812739944839e+00   3.908550000000000e-02 -4.49662950e-01   9.89573240e-01   1.86781400e-02
C     1.229957327850000e+01   7.110124999906729e+00   2.087430000000000e-02  9.90179910e-01   4.39670100e-02  -7.45904400e-02
C     1.108020418560000e+01   6.421622108591290e+00   3.365152200000000e+00  7.85919470e-01   1.54515190e-01   7.99939130e-01
C     1.234185044420000e+01   7.076845999753129e+00   3.421824600000000e+00 -8.14278000e-02   1.21171773e+00  -5.85446440e-01
