64
Lattice="9.86 0 0 4.93 8.53901048131456 0 0 0 30 " PBC="1 1 1" Properties=species:S:1:pos:R:3:force:R:3 Energy="-515.07399612"
C     4.996337636300000e+00   6.788399165029882e+00  -2.372462999999989e-01  1.42071166e+00  -1.43607926e+00   7.01287040e-01
C     6.263362968599999e+00   7.471490202283307e+00  -1.840662000000002e-01 -1.62450117e+00   3.83644230e-01  -5.19590190e-01
C     9.758584082599999e+00   1.767461942081035e+00   3.723488100000000e+00  1.52743821e+00   3.50447980e-01  -1.81582470e-01
C     1.101126755190000e+01   2.475546492229210e+00   3.650110800000000e+00 -1.80961673e+00  -1.38637460e-01   3.83204650e-01
C     7.475327201500001e+00   6.773332593378552e+00  -1.545810000000003e-01 -3.40429550e-01  -8.31890030e-01   2.81170690e-01
C     8.703770008699999e+00   7.464190970734898e+00  -9.146219999999872e-02  2.46908130e-01   3.71947200e-01  -9.20863920e-01
C     2.361274821300000e+00   1.766653212398474e+00   3.722147100000000e+00  3.11149810e-01   8.49212900e-02  -9.50161900e-02
C     3.563689693500000e+00   2.503711735176652e+00   3.712353900000000e+00  1.89292073e+00  -8.51512220e-01  -1.23341163e+00
C     9.914965555999999e+00   6.792334880350219e+00  -2.153762999999991e-01  2.63469570e+00  -1.39170026e+00  -9.72762000e-03
C     1.120673726980000e+01   7.464234092737822e+00  -2.243702999999968e-01 -1.41548866e+00   4.40796970e-01   5.52791440e-01
C     4.804639762800000e+00   1.801070121088638e+00   3.566693700000000e+00  1.32362159e+00   2.56988000e-03   7.98653720e-01
C     6.056493562400000e+00   2.525552389231872e+00   3.605958900000000e+00  3.39166160e-01  -8.82893730e-01  -9.13986080e-01
C     1.243856841670000e+01   6.742093306658310e+00  -1.545801000000004e-01 -1.63758172e+00  -1.20280590e-01  -5.45697000e-01
C     1.362856737970000e+01   7.475431553350561e+00  -1.841612999999995e-01  1.03940737e+00  -5.96419960e-01  -3.15865010e-01
C     7.320999171700000e+00   1.781762137541786e+00   3.590184300000000e+00 -1.48920612e+00   1.80710599e+00   4.76755070e-01
C     8.570145316700000e+00   2.510062880391466e+00   3.673251300000000e+00 -1.56133750e+00  -1.91169654e+00   7.42795500e-02
C     1.333410740300000e+00   3.448789348428424e-01  -2.840424000000006e-01 -1.99287060e-01  -1.89882620e-01   3.45146700e-02
C     2.584174566200000e+00   9.997756965131936e-01  -2.818703999999990e-01 -1.37153991e+00   2.68073563e+00   1.32697710e-01
C     1.094860059640000e+01   3.892920190733974e+00   3.563433900000000e+00  2.50707166e+00   9.61285010e-01   8.98146610e-01
C     1.222254025370000e+01   4.600682307846425e+00   3.578094900000000e+00  1.27780100e-02   9.20379720e-01  -7.80133320e-01
C     3.793797837900000e+00   3.261545926622984e-01  -1.699899000000009e-01  1.20257083e+00   1.23396182e+00  -4.65407160e-01
C     5.038752102500000e+00   1.098894053851994e+00  -2.665985999999982e-01 -7.13897540e-01  -2.42095084e+00   1.15231745e+00
C     3.631377508900000e+00   3.905195786809917e+00   3.572046300000000e+00 -2.57779213e+00   7.08249800e-01   2.85274720e-01
C     4.813663634799999e+00   4.650270476456405e+00   3.485129100000000e+00  1.75777713e+00  -8.50228200e-01   6.26694480e-01
C     6.251792948799999e+00   3.562195092712256e-01  -1.909605000000028e-01  1.43808717e+00  -3.04566300e-02  -3.15721730e-01
C     7.528806756899999e+00   1.044840068151079e+00  -1.704533999999995e-01 -2.13189671e+00   1.10028851e+00  -1.21069810e-01
C     6.063780841900000e+00   3.937251402932047e+00   3.540711000000000e+00  4.63561470e-01   3.08667650e-01   6.20973040e-01
C     7.333186821899999e+00   4.635418319358227e+00   3.672111900000000e+00 -1.65852191e+00  -1.15821192e+00  -6.17636600e-02
C     8.726356951600000e+00   3.312845739883680e-01  -2.377937999999986e-01  6.44850560e-01   1.46860462e+00  -3.04365800e-02
C     9.963156355299999e+00   1.068671080159082e+00  -3.576041999999973e-01  7.77633800e-02  -7.70560450e-01   3.27866020e-01
C     8.554069720599999e+00   3.894124874332493e+00   3.727799400000000e+00 -3.96690970e-01   2.39961927e+00  -4.15106470e-01
C     9.760219363600001e+00   4.658070520969466e+00   3.683001600000000e+00  2.80022880e-01  -1.82410451e+00  -5.06202210e-01
C     2.541278143200000e+00   2.455910610679926e+00  -3.155441999999979e-01  3.76730950e-01   6.26609180e-01   3.04649780e-01
C     3.778590069700000e+00   3.175808540266762e+00  -1.782578999999984e-01 -1.95649810e-01   2.36988670e-01  -3.02271640e-01
C     1.225709038390000e+01   6.057261592118537e+00   3.495602700000000e+00 -6.59988480e-01  -1.31633640e+00   3.26037620e-01
C     1.349330745600000e+01   6.753254561866612e+00   3.566270100000000e+00 -1.63477807e+00   1.80101066e+00  -6.84045400e-02
C     5.031811648500000e+00   2.488302066084234e+00  -1.800138000000011e-01 -6.27363000e-01   3.33088300e-01  -1.68567900e-02
C     6.257148999400000e+00   3.191222051913896e+00  -1.115192999999977e-01 -2.92412620e-01   1.52046300e-02   5.13516700e-02
C     4.848958047100000e+00   6.063822284650530e+00   3.563168100000000e+00 -1.46491549e+00  -1.20771252e+00  -2.28502800e-01
C     6.041418214000000e+00   6.722019544651611e+00   3.656902200000000e+00  2.02271061e+00   2.65449798e+00   2.31145250e-01
C     7.481036585200000e+00   2.489814751790767e+00  -1.434591000000012e-01  1.43111342e+00  -3.42399110e-01  -4.27066310e-01
C     8.718958007600000e+00   3.213959045899202e+00  -2.680137000000009e-01  7.34681000e-02   2.16035900e-02  -9.29717000e-02
C     7.272031059300000e+00   6.039088186894163e+00   3.728294700000000e+00  2.07345894e+00   1.47644960e-01  -6.04855100e-01
C     8.547324790399999e+00   6.730135874112851e+00   3.679761900000000e+00 -5.74271340e-01   2.25875016e+00  -3.13576410e-01
C     9.964389939900000e+00   2.483436025572102e+00  -4.215528000000006e-01 -1.61101331e+00   8.72497700e-01   8.25916820e-01
C     1.115413865610000e+01   3.234605433948689e+00  -3.758255999999989e-01  2.11575650e+00  -2.30137358e+00   6.81276000e-03
C     9.781581004300000e+00   6.060406509678321e+00   3.607007400000000e+00 -8.55984700e-02  -2.16512190e-01   2.69587200e-02
C     1.101656217470000e+01   6.770327544810430e+00   3.474609000000000e+00 -1.42912600e-02  -7.49606240e-01   2.14499040e-01
C     3.780637597299999e+00   4.607465356211318e+00  -1.353033000000003e-01  3.79638840e-01  -6.43329000e-03  -5.15826890e-01
C     5.014732550900000e+00   5.350120175677878e+00  -1.796487000000013e-01 -7.10599050e-01  -5.47338230e-01   6.23605110e-01
C     1.342919798250000e+01   8.202443759518808e+00   3.654687000000000e+00  1.09948077e+00  -6.24145150e-01  -1.39338100e-02
C     9.773912882299999e+00   3.547548128035912e-01   3.777056100000000e+00 -9.91483850e-01  -3.95050350e-01  -9.44644810e-01
C     6.226934360500000e+00   4.600384467160882e+00  -8.901360000000125e-02  7.97845270e-01   1.73221567e+00  -9.24267440e-01
C     7.445079679499999e+00   5.358782147908790e+00  -1.859838000000025e-01  1.54225565e+00  -1.18991580e+00   5.57863320e-01
C     6.084239848899999e+00   8.180870120321298e+00   3.702765000000000e+00 -2.58396170e-01  -9.46451000e-01   4.86962830e-01
C     2.405195796900000e+00   3.365084844297176e-01   3.726770700000000e+00 -3.82216290e-01   2.93472720e-01  -4.96582110e-01
C     8.732248695999999e+00   4.661037827111265e+00  -2.447303999999981e-01 -1.03246773e+00  -7.91424500e-01  -2.67519030e-01
C     9.967646155599999e+00   5.368085826777273e+00  -3.200813999999994e-01 -6.01585270e-01  -1.32235500e-01   7.32632250e-01
C     8.593104868999999e+00   8.199794702297599e+00   3.603035400000000e+00 -1.66194345e+00  -1.63811489e+00   6.89841480e-01
C     4.877389800800000e+00   3.730434092793408e-01   3.532747500000000e+00 -1.64166066e+00   6.58662800e-02  -2.16093210e-01
C     1.120926843040000e+01   4.630812120934999e+00  -2.987456999999978e-01 -1.96266581e+00   4.48472610e-01  -2.87134800e-01
C     1.241377983440000e+01   5.305361329834966e+00  -1.996061999999981e-01  1.23060603e+00   1.26757756e+00   3.27630390e-01
C     1.099458245990000e+01   8.169228033432868e+00   3.447540600000000e+00  2.58304830e-01   1.23853724e+00   5.34982460e-01
C     7.244006375700000e+00   3.869409050058552e-01   3.569721600000000e+00  2.87073605e+00  -1.35248735e+00  -1.94774670e-01
