64
Lattice="9.86 0 0 4.93 8.53901048131456 0 0 0 30 " PBC="1 1 1" Properties=species:S:1:pos:R:3:force:R:3 Energy="-515.20561626"
C     4.933897657999999e+00   8.318895112670543e+00  -5.746467000000024e-01  1.53400882e+00   1.47779177e+00   1.15675540e-01
C     1.267107663300000e+00   5.195180940589640e-01  -5.801435999999995e-01 -1.17497745e+00   6.39863220e-01   7.16677340e-01
C     9.815809895699999e+00   2.092686892672376e-01   3.860445000000000e+00  2.09800242e+00  -5.83107640e-01  -5.07128080e-01
C     1.241677195000000e+00   8.977845598786064e-01   3.868424400000000e+00 -1.75811211e+00  -7.57976000e-02   3.33520500e-01
C     7.428871367799999e+00   8.370785654676245e+00  -6.230925000000020e-01 -8.15534000e-01  -1.23438039e+00   4.39888690e-01
C     3.718445893800000e+00   5.217757230397713e-01  -4.878429000000004e-01  2.23194130e-01   2.72572250e-01  -3.90045000e-01
C     2.457351647300000e+00   1.990398086132456e-01   3.744280200000000e+00 -4.41798110e-01  -8.14160840e-01  -1.22042680e-01
C     3.659017751099999e+00   9.204603291587704e-01   3.759020700000000e+00  9.58444560e-01   2.85494500e-01   4.90611310e-01
C     9.881399897500000e+00   8.356501854115615e+00  -4.766972999999979e-01  3.54759080e-01  -1.26264588e+00   5.06165740e-01
C     6.203716919899999e+00   5.092261955076296e-01  -4.705799999999982e-01 -8.91197120e-01  -3.59038650e-01  -3.43492900e-02
C     4.888586964700000e+00   2.043512439120152e-01   3.754450200000000e+00  7.45117900e-01   2.86953820e-01  -3.05139400e-01
C     6.134941004200000e+00   9.189046068394192e-01   3.768126900000000e+00  2.44666970e-01  -1.13168816e+00   4.34930620e-01
C     1.237167408480000e+01   8.340265694198839e+00  -4.424808000000020e-01 -1.14684877e+00  -3.67220700e-01   2.26098120e-01
C     8.656220158699998e+00   4.967718779423400e-01  -5.471420999999985e-01  2.15239600e-02   1.24495677e+00  -1.11764360e-01
C     7.375560664900000e+00   1.716121653910664e-01   3.860529600000000e+00 -7.43455350e-01   1.57371000e+00  -8.57110750e-01
C     8.603095464700001e+00   9.298154982604488e-01   3.835146600000000e+00 -4.92108480e-01  -3.03761640e+00   7.20432830e-01
C     1.226497232000000e+00   1.941368112637554e+00  -3.281936999999999e-01  1.07512185e+00  -2.47939630e-01  -1.38681366e+00
C     2.501350714100000e+00   2.667920322311244e+00  -2.815862999999972e-01 -1.60071825e+00  -1.34669546e+00   3.87021840e-01
C     1.109205777900000e+01   2.306376313055214e+00   4.053285600000001e+00 -6.27867950e-01   6.10618950e-01  -4.20983610e-01
C     2.435383271500000e+00   3.044624405383361e+00   4.014609300000000e+00  6.26910790e-01   8.27492620e-01   1.39407560e-01
C     3.697900661100000e+00   1.931998171047745e+00  -3.995837999999985e-01  1.58742333e+00   9.19721030e-01   3.20622370e-01
C     4.985045569900000e+00   2.646063358746007e+00  -4.141958999999993e-01 -2.70161856e+00  -1.12119540e-01  -2.51389990e-01
C     3.677236911200000e+00   2.347487891351803e+00   3.908630100000000e+00 -3.06935830e-01  -4.41513000e-02  -2.01377150e-01
C     4.908722317200001e+00   3.060586633843939e+00   3.883327200000000e+00  5.69937840e-01  -3.28295070e-01  -9.11112930e-01
C     6.147167305599999e+00   1.917318843521681e+00  -5.140349999999998e-01  3.08891211e+00   4.46145370e-01  -2.01133360e-01
C     7.417618790699999e+00   2.644050030855033e+00  -5.846079000000017e-01 -8.03596550e-01  -3.86965060e-01  -5.18513700e-02
C     6.148071270400000e+00   2.335217845632672e+00   3.759159600000000e+00 -8.80821300e-01   3.62028200e-02   5.59230390e-01
C     7.365390567900000e+00   3.035279312314049e+00   3.791024100000000e+00  7.17820080e-01   6.18411380e-01  -3.80779140e-01
C     8.659432250900000e+00   1.960400969266740e+00  -6.063936000000005e-01 -1.38130628e+00  -1.89899770e+00   6.69741840e-01
C     9.845955958300001e+00   2.647265651421591e+00  -4.335339000000005e-01  2.04288104e+00   9.95584010e-01   3.23495520e-01
C     8.600975416799999e+00   2.285468204334515e+00   3.903596100000000e+00  3.49658120e-01   3.95582748e+00   9.81219600e-02
C     9.849576402399999e+00   3.026539720477873e+00   4.073126400000000e+00 -6.80223240e-01  -6.35284240e-01  -9.88238960e-01
C     2.503331489500000e+00   4.065679316012714e+00  -1.109064000000011e-01 -7.64699020e-01   4.90368920e-01  -4.83570110e-01
C     3.722793562200000e+00   4.764705683843705e+00  -1.581936000000006e-01  1.35481636e+00   1.15576524e+00  -1.52990767e+00
C     1.228875942210000e+01   4.498431926853665e+00   4.031216400000000e+00  6.23250020e-01  -1.31688890e+00  -3.06794200e-01
C     3.678184062800000e+00   5.172228763540238e+00   3.874646700000000e+00  1.03193100e-02   1.00425217e+00   5.50535080e-01
C     4.978680939900000e+00   4.065953759809542e+00  -4.338347999999996e-01 -1.43023937e+00   1.03708190e-01   1.05624885e+00
C     6.181278024900000e+00   4.776395333020512e+00  -5.717987999999998e-01  3.71026450e-01   3.39834210e-01   7.23134000e-02
C     4.932481022499999e+00   4.483992460131985e+00   3.809411700000000e+00 -1.56365421e+00  -6.75502070e-01   8.88710400e-02
C     6.132411569099999e+00   5.188855497796371e+00   3.658188600000000e+00  8.60617280e-01   3.27927080e-01  -1.65269530e-01
C     7.414734001199999e+00   4.054620187369752e+00  -5.879285999999979e-01  2.57159470e-01   7.20374620e-01   2.99059950e-01
C     8.643788769299999e+00   4.792110357127694e+00  -4.617174000000013e-01  4.89407500e-02  -8.16384070e-01  -4.73324150e-01
C     7.356191187899999e+00   4.479473957346388e+00   3.662326800000000e+00  1.56086721e+00  -1.19103919e+00   9.40246630e-01
C     8.643509583400000e+00   5.147428915403174e+00   3.764477400000001e+00 -2.13248852e+00   1.04426587e+00  -1.85579130e-01
C     9.892758173800001e+00   4.083206915874487e+00  -3.597627000000010e-01 -1.06678653e+00  -1.09315460e-01   2.62891290e-01
C     1.110833560370000e+01   4.786781843807964e+00  -1.752770999999989e-01  7.77212380e-01  -2.27625670e-01   9.33633000e-03
C     9.833034526900001e+00   4.454662837715491e+00   3.977519400000000e+00  8.13237700e-01  -6.07924490e-01   2.28862410e-01
C     1.105545948030000e+01   5.200852807520771e+00   4.028380500000000e+00  1.75147270e-01  -8.28785970e-01  -1.28865560e-01
C     3.715086838300000e+00   6.215385792725709e+00  -3.099530999999978e-01  6.59206300e-02  -9.63320760e-01   6.45796950e-01
C     4.947591176700000e+00   6.929204032240890e+00  -4.937301000000005e-01 -6.88869740e-01  -1.46792555e+00  -2.59560300e-01
C     1.354881067780000e+01   6.615559431492211e+00   3.880476300000000e+00 -1.75773940e-01  -1.20009953e+00  -5.31952360e-01
C     4.921074777299999e+00   7.310848786776735e+00   3.772353600000000e+00 -4.06664310e-01   9.75855080e-01  -2.55753400e-02
C     6.166084652300000e+00   6.203224363219884e+00  -6.119418000000003e-01  2.28013310e-01   2.98008730e-01   3.20956850e-01
C     7.383684762600000e+00   6.932484976237621e+00  -6.459875999999980e-01  9.98900600e-01  -2.11470880e-01   3.10380110e-01
C     6.155856627800000e+00   6.613436804267092e+00   3.613579500000000e+00 -6.20245830e-01  -2.29115650e-01   7.35032600e-01
C     7.384642415100000e+00   7.300053086607081e+00   3.645633300000000e+00  7.25684500e-01   4.18609880e-01  -1.16632300e-02
C     8.617906762299999e+00   6.200840783834496e+00  -4.997943000000014e-01  3.59456950e-01   8.67012820e-01   4.18913700e-02
C     9.856549690200000e+00   6.910268178770757e+00  -3.800643000000008e-01  7.30763260e-01   5.76329840e-01  -1.86652120e-01
C     8.633754148700000e+00   6.586037083609183e+00   3.713343300000000e+00 -6.53315300e-01  -1.05921390e-01  -3.35582000e-01
C     9.841257323199999e+00   7.320885625085032e+00   3.751358100000000e+00  2.33569650e-01  -2.52236120e-01   7.60556370e-01
C     1.112631008790000e+01   6.210825961129389e+00  -2.158520999999993e-01 -2.14709685e+00  -1.87582350e-01  -2.30464330e-01
C     1.232992807730000e+01   6.913649199970314e+00  -2.594327999999990e-01  1.57883701e+00   8.39517480e-01  -5.07979830e-01
C     1.106876476150000e+01   6.598817079034180e+00   3.935795699999999e+00 -3.97969800e-01   8.24108600e-01  -7.06832180e-01
C     1.230120910180000e+01   7.303143610670107e+00   3.885041999999999e+00  4.48165340e-01   1.29088890e-01   4.07816450e-01
