64
Lattice="9.86 0 0 4.93 8.53901048131456 0 0 0 30 " PBC="1 1 1" Properties=species:S:1:pos:R:3:force:R:3 Energy="-515.37719659"
C     4.999742836599999e+00   6.850351820814902e+00  -1.114041000000014e-01 -1.07034118e+00  -9.66630590e-01   4.18747800e-01
C     6.195515519800000e+00   7.562809283619990e+00  -8.115869999999958e-02  1.60948688e+00  -6.68555660e-01   6.82756000e-03
C     9.814425946100000e+00   1.735227092128931e+00   3.312454200000000e+00 -6.03120740e-01  -4.71156400e-01  -3.81697960e-01
C     1.105513360730000e+01   2.439142470410246e+00   3.323978700000000e+00 -1.13408708e+00  -4.80721160e-01   6.88880970e-01
C     7.439886516100000e+00   6.844624108755233e+00  -1.168443000000003e-01  1.47682431e+00   2.53419400e-02  -6.00997500e-02
C     8.739043616400000e+00   7.522956013907734e+00  -7.729949999999874e-02 -1.98121000e+00   1.03745970e-01   3.24625540e-01
C     2.376552102500000e+00   1.726654608727849e+00   3.448136700000000e+00  2.31893677e+00  -1.13763244e+00  -4.94631210e-01
C     3.616860828099999e+00   2.469157263027655e+00   3.564386100000000e+00 -1.43346660e-01  -2.20093859e+00  -2.23955140e-01
C     9.964561848999999e+00   6.785761550082715e+00  -1.384050000000059e-02 -6.00997910e-01   3.27419683e+00  -3.90151380e-01
C     1.119511499200000e+01   7.545722382089092e+00  -1.106460000000098e-02 -7.44158410e-01  -5.46101140e-01   2.05378480e-01
C     4.828299030000000e+00   1.699376825139594e+00   3.539148000000000e+00  3.26870090e-01  -5.45447700e-02  -6.59543890e-01
C     6.068367664599999e+00   2.385149538634263e+00   3.429921000000000e+00  6.61352220e-01   6.79431780e-01  -8.42842500e-02
C     1.242091684750000e+01   6.855469335185671e+00   7.437690000000000e-02 -6.86260650e-01  -1.84769435e+00   2.76751860e-01
C     1.363356181480000e+01   7.537806036253293e+00   5.008319999999999e-02  1.90664990e-01   1.27637047e+00  -1.95581310e-01
C     7.310134536300000e+00   1.684631918013044e+00   3.360225000000000e+00  1.24675538e+00   9.25833810e-01  -1.30191340e-01
C     8.583793873799999e+00   2.436875277737701e+00   3.266960400000000e+00 -2.03974185e+00  -8.27242230e-01   4.61452560e-01
C     1.257706695600000e+00   4.248260181925760e-01   5.267850000000000e-02  2.04066765e+00   2.72157480e-01  -2.86782500e-01
C     2.517887906100000e+00   1.130963503171101e+00   3.515520000000000e-02  4.50448860e-01  -8.30056230e-01   1.45100300e-01
C     1.104067219180000e+01   3.849894507848189e+00   3.420882600000000e+00  1.85148060e-01  -1.22938240e-01   2.72574440e-01
C     1.223343792010000e+01   4.591443952408113e+00   3.592352700000000e+00  1.40695097e+00  -8.48559540e-01  -2.57513850e-01
C     3.759738193400000e+00   4.151663479771808e-01  -2.110649999999836e-02  1.35612460e-01  -5.15336800e-01  -6.26372870e-01
C     4.982666795600000e+00   1.116447270745206e+00  -1.200366000000024e-01  5.79396690e-01   9.80277700e-01  -8.97636200e-02
C     3.658947153500000e+00   3.869664964202638e+00   3.581133000000000e+00 -2.46447142e+00   2.72383390e-01  -3.38500520e-01
C     4.852214262800000e+00   4.543790723572902e+00   3.401822400000000e+00  1.16651597e+00   1.29822221e+00   6.09979020e-01
C     6.229224049700000e+00   4.203511497505319e-01  -1.022297999999999e-01 -1.91250230e-01  -1.50596900e-01   5.39580420e-01
C     7.460239281599999e+00   1.128181237386403e+00  -4.422000000019466e-04 -5.06666970e-01  -3.58234610e-01  -1.83249320e-01
C     6.094388993399999e+00   3.814687142957891e+00   3.358563300000000e+00 -7.82085590e-01   1.09668233e+00  -8.68904800e-02
C     7.297784344000000e+00   4.591455138511842e+00   3.289808700000000e+00  5.08533270e-01  -1.94962712e+00  -8.74322500e-02
C     8.672189710500000e+00   4.294641525149976e-01   1.137309000000000e-01  1.52665185e+00  -2.34305270e-01  -7.35153170e-01
C     9.940524795900000e+00   1.135899392788961e+00   9.847320000000001e-02 -2.02886529e+00   1.11478828e+00   5.47214180e-01
C     8.525064805100000e+00   3.850071009194810e+00   3.258488400000000e+00  1.20999489e+00   1.45574160e-01   4.93826750e-01
C     9.805415631600001e+00   4.513263931887111e+00   3.376613700000000e+00 -1.37563609e+00   6.57370350e-01  -2.82994680e-01
C     2.576112389300000e+00   2.530261055780858e+00   9.395400000000001e-02 -1.11520821e+00   1.57533457e+00  -1.30298910e-01
C     3.801240905400000e+00   3.285917970335000e+00  -3.959460000000092e-02 -1.18880197e+00  -1.30259490e+00   1.24696770e-01
C     1.222908660350000e+01   6.001515345320696e+00   3.632197800000000e+00  1.31642753e+00  -1.14334300e-02  -4.26858880e-01
C     1.349757230040000e+01   6.710553873719696e+00   3.611799000000000e+00 -8.66131450e-01  -4.61752050e-01  -6.91213070e-01
C     5.004642665000000e+00   2.559710822074806e+00  -1.886682000000022e-01 -2.54523900e-02  -2.81954670e-01   7.92804980e-01
C     6.224739080799999e+00   3.274362810573254e+00  -1.581963000000002e-01  1.04764900e+00  -1.53852630e-01  -4.29904350e-01
C     4.824452841200000e+00   6.007258427599229e+00   3.401047800000000e+00  1.50103140e+00  -1.55748244e+00   6.04653200e-01
C     6.068990422199999e+00   6.705056629552882e+00   3.342263700000000e+00  3.02539750e-01   2.87168560e-01  -4.99756090e-01
C     7.466347255799999e+00   2.525237641305579e+00  -7.986569999999915e-02 -9.29165100e-01   1.47207517e+00   1.36404470e-01
C     8.669080655300000e+00   3.245024563756175e+00  -5.734799999999041e-03  1.84801872e+00   8.84614990e-01   2.57897920e-01
C     7.316386072100000e+00   6.000472902921297e+00   3.297402000000000e+00 -1.02384636e+00  -4.35050190e-01   2.77571320e-01
C     8.552250550600000e+00   6.657887989562409e+00   3.368619300000000e+00  8.86417220e-01   1.09620060e-01  -3.30355050e-01
C     9.956057007400000e+00   2.583065015737606e+00   1.691481000000000e-01 -1.46744748e+00  -1.31211642e+00  -9.93776640e-01
C     1.117748102290000e+01   3.258439520000465e+00   1.749093000000000e-01  9.57909230e-01   1.50097269e+00  -1.73426660e-01
C     9.784955638600000e+00   5.912898092289988e+00   3.425617500000000e+00  5.57149080e-01   2.31464818e+00   4.35070000e-03
C     1.102789225140000e+01   6.695615216445355e+00   3.495330300000000e+00 -1.61444312e+00  -7.25079380e-01   5.43862880e-01
C     3.754084666600000e+00   4.692410322394996e+00   3.505800000000000e-03  7.12451350e-01   3.14162230e-01  -1.13232870e-01
C     4.957681950000000e+00   5.423501101528911e+00  -1.819185000000019e-01  1.90966651e+00  -3.12794260e-01   6.28489270e-01
C     1.353235586610000e+01   8.114593395019311e+00   3.524509200000000e+00 -2.09119814e+00   7.09469970e-01  -5.62711220e-01
C     9.783381243099999e+00   2.969212902840184e-01   3.355591200000000e+00  1.72144533e+00   7.49543070e-01   1.98760400e-01
C     6.243265281299999e+00   4.712517728102985e+00  -1.940972999999993e-01 -1.97197392e+00  -6.67403400e-01  -7.90838300e-02
C     7.458465763400000e+00   5.413233282987130e+00  -1.613547000000004e-01  3.40424840e-01   2.30098660e-01  -6.48255200e-02
C     6.101949986499999e+00   8.130498839060197e+00   3.297617700000000e+00 -9.74984900e-02  -4.88902740e-01   4.31925040e-01
C     2.436975661500000e+00   2.568376380690120e-01   3.309022500000000e+00 -1.46352536e+00   1.90219885e+00   6.59547440e-01
C     8.684730890999999e+00   4.670314437316528e+00  -9.542040000000185e-02  3.03567450e-01   9.81367070e-01   4.90999730e-01
C     9.925208222599998e+00   5.428131465351795e+00   1.919820000000000e-02  3.30993250e-01  -3.29210294e+00   2.00413450e-01
C     8.579007238199999e+00   8.082049091327411e+00   3.360147300000000e+00 -2.19727160e-01  -1.61760890e-01   2.12700770e-01
C     4.860150034500000e+00   2.587373971206024e-01   3.446198400000000e+00 -1.69044450e-01   1.14382615e+00   4.28231580e-01
C     1.117972934940000e+01   4.731667910736166e+00   1.632612000000000e-01 -1.16629023e+00  -2.18088319e+00  -1.85976890e-01
C     1.239997553860000e+01   5.391318766491257e+00   1.778892000000000e-01  2.31891980e-01   1.99175598e+00  -9.78879990e-01
C     1.102100548510000e+01   8.114878427189133e+00   3.507349500000000e+00  4.76541000e-01  -1.60587690e-01  -6.34644740e-01
C     7.334730749999999e+00   2.848128880332736e-01   3.434325900000000e+00  2.54086610e-01  -6.32466480e-01   8.82314220e-01
