64
Lattice="9.86 0 0 4.93 8.53901048131456 0 0 0 30 " PBC="1 1 1" Properties=species:S:1:pos:R:3:force:R:3 Energy="-516.17243745"
C     4.982809962799999e+00   7.932579519402138e+00  -5.988420000000261e-02 -1.66886213e+00  -1.60062933e+00   1.92101420e-01
C     1.256738295700000e+00   7.726617561943280e-02  -5.400480000000130e-02  1.43881789e+00  -5.82059490e-01  -7.55155900e-02
C     9.853522078599999e+00   6.588370880563472e-01   3.459265500000000e+00 -1.84906079e+00  -1.09813297e+00   4.42493520e-01
C     1.187170622000000e+00   1.367663934385549e+00   3.489940200000000e+00  6.84436770e-01   6.04825330e-01  -2.80957890e-01
C     7.421006538799999e+00   7.871922316897038e+00   4.989300000000000e-03  8.48103030e-01   1.11146145e+00  -3.48943900e-02
C     3.752620801700000e+00   5.365564086202320e-02  -3.710999999988474e-04 -7.00603180e-01  -5.34705200e-02  -5.74609380e-01
C     2.414457492100000e+00   6.793681994643544e-01   3.470307900000000e+00  4.37225440e-01  -1.13994338e+00   1.42168540e-01
C     3.653732643200000e+00   1.371645674972373e+00   3.431563200000000e+00  4.87101400e-02  -7.00009650e-01  -3.21021400e-02
C     9.915784281100001e+00   7.894987635835300e+00  -2.958209999999895e-02 -4.26575620e-01   2.47282410e-01   4.55075400e-01
C     6.208850381000000e+00   7.501264536365600e-02  -1.945650000000043e-02 -1.29467900e-02   8.70409800e-02   6.09517000e-03
C     4.871318407200000e+00   6.294263450402928e-01   3.390967200000000e+00  1.06475222e+00  -6.00461300e-02   3.06473120e-01
C     6.104290208199999e+00   1.348779912709029e+00   3.441784800000000e+00  7.37542040e-01   2.40396510e-01  -2.46070600e-01
C     1.236072652680000e+01   7.886474669337264e+00  -1.248989999999850e-02  4.43030340e-01   2.74966730e-01  -7.84145190e-01
C     8.646359074099999e+00   6.890545967825520e-02  -1.253886000000008e-01  7.29806360e-01  -5.37444900e-02   5.48317660e-01
C     7.380377619999999e+00   6.548100907139791e-01   3.449630100000000e+00 -1.36306503e+00  -7.72137920e-01  -4.86780000e-02
C     8.612459753200000e+00   1.349614515593344e+00   3.476064000000000e+00 -4.63486960e-01   1.44646537e+00   4.73033760e-01
C     1.270200400200000e+00   1.484298278531869e+00  -1.098914999999998e-01  3.01606460e-01  -1.88407200e-02   3.84906760e-01
C     2.501970119300000e+00   2.170858886523527e+00  -6.185070000000081e-02  7.12934080e-01   1.35479193e+00  -4.41917090e-01
C     1.103932541440000e+01   2.787149415572121e+00   3.442844100000000e+00  2.74167200e-02   4.74110280e-01  -2.58150350e-01
C     2.411222968400000e+00   3.496719155813083e+00   3.317913600000000e+00  7.23944280e-01  -6.55409290e-01   8.33957490e-01
C     3.768324232100000e+00   1.479480995769577e+00  -8.340480000000028e-02 -1.91320584e+00  -1.55665530e-01   7.36525000e-01
C     4.947788820400000e+00   2.226261608929758e+00  -3.484560000000059e-02  1.73494764e+00  -1.17805135e+00   2.61366740e-01
C     3.658280765400000e+00   2.776967670255980e+00   3.414414600000000e+00 -5.34748100e-02   6.88907680e-01  -5.55076540e-01
C     4.899066665699999e+00   3.488831586442603e+00   3.411834000000000e+00 -1.25735322e+00   3.38040710e-01   9.75330000e-02
C     6.216762390100000e+00   1.510541304830158e+00   8.100000000000000e-05 -1.88489770e+00  -1.12634423e+00  -2.51253530e-01
C     7.425379498099999e+00   2.174693926910305e+00  -1.113900000000001e-03  7.88862610e-01   1.45921152e+00  -3.23041400e-01
C     6.103452699800000e+00   2.779053408955824e+00   3.443618700000000e+00  1.22873408e+00  -1.69994420e-01   1.56213040e-01
C     7.364144165299999e+00   3.499288117115991e+00   3.486871500000000e+00 -1.21452828e+00   2.31130100e-02   4.31509850e-01
C     8.641476697900000e+00   1.480248140471100e+00  -1.442243999999988e-01  1.10474227e+00  -4.46521000e-03   9.22965430e-01
C     9.906808821699999e+00   2.183754329370214e+00  -9.127140000000011e-02 -1.01279988e+00  -1.38749020e-01  -7.67820720e-01
C     8.577669827799999e+00   2.812206629485053e+00   3.579155700000000e+00  7.67389730e-01  -1.73153301e+00  -1.14582646e+00
C     9.809517391600000e+00   3.510028740668050e+00   3.484294500000000e+00  2.54761100e-01   3.20517670e-01   2.99985800e-02
C     2.495170614000000e+00   3.627422544406461e+00  -6.134640000000147e-02  3.85635850e-01  -7.89107320e-01  -6.76678300e-02
C     3.734084396100000e+00   4.341975224213027e+00   1.601670000000000e-02  3.74271000e-02  -1.21071840e-01  -4.42110530e-01
C     1.230380326780000e+01   4.902593112734117e+00   3.292697700000000e+00 -8.07526000e-03   9.58292380e-01   3.22173760e-01
C     3.689398235200000e+00   5.653486540291991e+00   3.335200800000000e+00 -2.14473907e+00  -1.84744779e+00   2.21542410e-01
C     4.954671100400000e+00   3.623278733400726e+00   2.264970000000000e-02  6.96618910e-01   6.62566990e-01  -3.88699600e-01
C     6.223087136399999e+00   4.316588148325253e+00  -1.111739999999983e-02 -1.28835845e+00   7.05830210e-01   9.66211930e-01
C     4.873392753999999e+00   4.921056502754392e+00   3.424176600000000e+00  4.91097110e-01  -6.18720990e-01  -5.84568490e-01
C     6.079281846500000e+00   5.622206864052179e+00   3.428296500000000e+00  2.07234507e+00  -4.39058810e-01   8.42296660e-01
C     7.442560646699999e+00   3.608699483077489e+00   4.999559999999999e-02 -7.54778900e-01  -7.37004630e-01  -6.03501770e-01
C     8.657997078599999e+00   4.279875526667541e+00  -2.113800000000055e-03  1.13842369e+00   2.12760673e+00  -3.32270070e-01
C     7.350072515600000e+00   4.917766592796657e+00   3.498824400000000e+00 -6.48287310e-01   6.51853100e-01  -5.42110180e-01
C     8.560097335800000e+00   5.669667111250543e+00   3.457444500000000e+00  1.17834123e+00  -1.98486193e+00   3.51436670e-01
C     9.888638961599998e+00   3.589980520473548e+00  -1.209063000000015e-01  8.71985040e-01   8.36252110e-01   5.94727550e-01
C     1.113119487980000e+01   4.335884774988166e+00  -1.273197000000010e-01 -4.84529940e-01   1.89304840e-01   5.24156990e-01
C     9.830662112300001e+00   4.938533039333493e+00   3.412297800000000e+00 -1.05442289e+00  -3.64198270e-01   2.32354320e-01
C     1.107206884750000e+01   5.609640856229810e+00   3.352609500000000e+00 -3.33651790e-01   4.44352450e-01  -3.75968270e-01
C     3.766237067300000e+00   5.764234517563922e+00  -1.837049999999962e-02 -6.09719000e-01  -1.15881010e-01   3.01210620e-01
C     4.965366340999999e+00   6.494586586901213e+00   5.125140000000000e-02  1.33779887e+00  -2.37697100e-01  -7.96724010e-01
C     1.348982307990000e+01   7.041766976190347e+00   3.394763700000000e+00  6.79580740e-01   1.36785022e+00   1.87170250e-01
C     4.860979852100000e+00   7.762108678151828e+00   3.471770400000000e+00  1.06267060e+00  -7.11717700e-02  -2.19986660e-01
C     6.202372755400000e+00   5.751212270411608e+00   3.353790000000000e-02  1.43350800e-02   2.36929500e-02  -8.62844000e-03
C     7.440594562699999e+00   6.457247628824793e+00   2.446470000000000e-02  3.57693040e-01  -4.42966340e-01   4.84960000e-04
C     6.094013524599999e+00   7.018323549868031e+00   3.502342200000000e+00  8.07114560e-01   2.38096075e+00  -3.57816480e-01
C     7.366958652999999e+00   7.790144213530079e+00   3.509265600000000e+00 -1.23948826e+00  -9.48862100e-01  -3.93634000e-02
C     8.694128062599999e+00   5.734757426436438e+00  -1.555499999998489e-03 -7.18728090e-01   1.15001400e-01   1.93975450e-01
C     9.918588711600000e+00   6.485772107943128e+00  -4.189799999998911e-03 -9.99568400e-02  -1.15218083e+00  -4.13762710e-01
C     8.597225954599999e+00   7.060916304922480e+00   3.497218200000000e+00 -5.01451550e-01   7.78325460e-01  -7.66619550e-01
C     9.855056442500000e+00   7.723951939041738e+00   3.371054100000000e+00 -2.59724938e+00   1.97687196e+00   5.30495610e-01
C     1.115546344570000e+01   5.780463248541581e+00  -5.522459999999896e-02 -1.10329140e-01  -1.15613658e+00  -2.14038090e-01
C     1.240487295130000e+01   6.464953915002783e+00  -5.796149999999756e-02 -1.32083657e+00   3.32868540e-01   4.21091310e-01
C     1.103899673130000e+01   7.039224400429822e+00   3.335825700000000e+00  1.76000708e+00  -6.48611440e-01   3.69761210e-01
C     1.225952471930000e+01   7.753336723465933e+00   3.410641500000000e+00  7.38464030e-01   6.86776650e-01  -5.05115990e-01
