64
Lattice="9.86 0 0 4.93 8.53901048131456 0 0 0 30 " PBC="1 1 1" Properties=species:S:1:pos:R:3:force:R:3 Energy="-516.3498419"
C     4.950669912400000e+00   8.239675638403810e+00  -2.311247999999999e-01  3.04716710e-01   7.06567310e-01   1.46928790e-01
C     1.257741205600000e+00   4.240932003131824e-01  -2.487861000000002e-01  3.31394600e-02   3.14262400e-02   1.19131380e-01
C     9.834026787999999e+00   2.775256964896416e-01   3.580478100000000e+00  6.86509490e-01   1.16124896e+00   3.33414090e-01
C     1.227920325800000e+00   1.014990334606248e+00   3.622280700000000e+00 -1.18477398e+00  -5.66221770e-01  -2.75777700e-02
C     7.414453336299999e+00   8.238207013991355e+00  -2.655251999999990e-01 -4.10360540e-01  -9.58908550e-01   4.08719640e-01
C     3.704443609200000e+00   3.723338175084528e-01  -1.986041999999983e-01  1.10023165e+00   2.13112281e+00  -6.34434350e-01
C     2.453358396600000e+00   2.919918049240192e-01   3.615587100000000e+00 -1.10908460e-01   1.28117404e+00  -1.96760430e-01
C     3.667086731400000e+00   1.066122441701117e+00   3.565274700000000e+00  2.97238420e-01  -3.07494220e+00   2.45706260e-01
C     9.891035286699999e+00   8.238432443868026e+00  -2.169476999999986e-01 -7.59249050e-01  -2.33173160e-01   5.00586800e-01
C     6.181331613999999e+00   4.106092488642144e-01  -2.109104999999971e-01  6.45765000e-01  -4.19745750e-01   2.70923690e-01
C     4.897367196099999e+00   3.176972151224872e-01   3.542210400000000e+00 -1.73362560e-01  -7.54182810e-01   1.61551660e-01
C     6.128596883000000e+00   1.010757547111312e+00   3.584065200000000e+00 -1.82332650e-01   1.63092320e-01  -1.50399860e-01
C     1.235245733920000e+01   8.216954697758206e+00  -1.821027000000015e-01 -4.87269010e-01   3.08454550e-01  -2.42580000e-01
C     8.633412647600000e+00   3.933708652874000e-01  -2.341413000000010e-01  9.84270240e-01   3.99726480e-01  -5.34615000e-02
C     7.361247691699999e+00   3.431053823661463e-01   3.607875300000000e+00 -6.98052700e-02  -1.55823248e+00  -2.87687040e-01
C     8.599769390899999e+00   1.011582671693994e+00   3.586431900000000e+00  4.85179810e-01  -1.79574430e-01   4.27567520e-01
C     1.283486553000000e+00   1.851082593129370e+00  -1.816176000000027e-01 -1.25240193e+00  -4.08933850e-01  -2.89204640e-01
C     2.509425906200000e+00   2.552341485250357e+00  -1.673477999999982e-01 -2.53460610e-01  -8.24981160e-01   1.32232260e-01
C     1.106129137450000e+01   2.443778982320676e+00   3.649043100000000e+00  5.30699400e-02  -3.10445260e-01  -2.80128170e-01
C     2.432647269400000e+00   3.158543600367355e+00   3.601168500000000e+00  1.37939410e-01  -1.31723020e-01   1.74068710e-01
C     3.742020463600000e+00   1.833160234813107e+00  -2.136897000000033e-01 -1.03401402e+00  -1.02166326e+00   5.64847000e-01
C     4.951805291399999e+00   2.537124968574997e+00  -1.707257999999996e-01  5.83599200e-01   6.61719390e-01  -4.95197300e-02
C     3.666128240800000e+00   2.443953946645411e+00   3.592450500000000e+00  1.12933410e-01   1.27394464e+00  -2.12482260e-01
C     4.910954078900000e+00   3.136196412210461e+00   3.579334800000000e+00 -3.35766940e-01   1.08672303e+00  -2.39609300e-02
C     6.184465122000000e+00   1.828850767004061e+00  -1.800354000000013e-01  3.15996420e-01   9.18030400e-02  -4.47139090e-01
C     7.418683029799999e+00   2.542319077869772e+00  -2.261142000000014e-01  4.44983480e-01  -6.49885770e-01  -1.30573120e-01
C     6.136853449800000e+00   2.410430645401979e+00   3.579147000000000e+00 -2.86224810e-01   1.65611589e+00   2.17059640e-01
C     7.362168418500000e+00   3.143554477541078e+00   3.620861400000000e+00  5.12606600e-02  -4.48385300e-02  -1.69350110e-01
C     8.670377294600000e+00   1.817172474711193e+00  -2.869337999999999e-01 -1.08334176e+00   7.15634860e-01   9.55011150e-01
C     9.878398316299998e+00   2.561834559371287e+00  -1.815393000000007e-01  1.04718261e+00  -7.86412420e-01  -5.90978090e-01
C     8.590999068800000e+00   2.423812811846025e+00   3.648965400000000e+00  1.70156820e-01   6.28516420e-01  -3.57258780e-01
C     9.814343467200001e+00   3.142321700598080e+00   3.646359900000000e+00  6.05177530e-01  -1.33411000e-02  -2.43305860e-01
C     2.467942667700000e+00   3.946037190814919e+00  -8.058360000000064e-02  6.96746200e-01   1.43383213e+00  -1.68874270e-01
C     3.704512678500000e+00   4.659873191471898e+00  -6.724709999999945e-02  4.63605980e-01   3.56123250e-01  -6.27075950e-01
C     1.229599641560000e+01   4.573497941032820e+00   3.578210700000000e+00  1.02982297e+00  -3.49728050e-01   7.01523900e-02
C     3.679583098200000e+00   5.308323512570478e+00   3.548173800000000e+00 -8.91111030e-01  -7.76967900e-02   3.06518620e-01
C     4.948594086600000e+00   3.978857646105742e+00  -1.556366999999987e-01  3.23751090e-01  -7.93773530e-01  -8.41195500e-02
C     6.192865053199999e+00   4.679429489443509e+00  -2.572104000000017e-01 -4.72330710e-01   3.43792120e-01   7.53140090e-01
C     4.897760560800000e+00   4.589677487310116e+00   3.581768100000000e+00  7.27492810e-01  -8.22423640e-01  -3.61328280e-01
C     6.150640046900000e+00   5.292622919391007e+00   3.557564100000000e+00 -7.18197880e-01  -7.04024710e-01   3.09878290e-01
C     7.421522167500000e+00   3.954536409506082e+00  -2.266674000000002e-01  3.73723280e-01   7.55511600e-01  -2.79044100e-02
C     8.672739849199999e+00   4.681900508296211e+00  -1.738965000000015e-01 -1.62571062e+00  -2.96022100e-02  -4.20065670e-01
C     7.369532606000000e+00   4.576999106109830e+00   3.588411000000000e+00  3.13821590e-01  -6.13776940e-01  -1.54844310e-01
C     8.603481680900000e+00   5.284473800129524e+00   3.553924200000000e+00  1.69663680e-01  -1.10230410e-01   4.81430180e-01
C     9.887733862899999e+00   3.984837429754782e+00  -1.844301000000002e-01 -4.66353400e-02  -4.48401900e-01   5.33184340e-01
C     1.111056795700000e+01   4.693375913700074e+00  -1.114637999999992e-01  2.46067270e-01  -6.19263870e-01   1.39276290e-01
C     9.842058793300000e+00   4.564983608293108e+00   3.573878100000000e+00 -1.21022743e+00  -5.83938870e-01   3.11221540e-01
C     1.106764540500000e+01   5.231268677460426e+00   3.591293400000000e+00  2.69610960e-01   2.45928122e+00  -4.80001730e-01
C     3.723134767499999e+00   6.076517914651984e+00  -1.426271999999997e-01  1.36881993e+00   9.37952410e-01   3.92619350e-01
C     4.992868395299999e+00   6.844959179526469e+00  -1.724709000000004e-01 -1.98054025e+00  -1.82592294e+00  -4.39715760e-01
C     1.352645401520000e+01   6.745406528114654e+00   3.564377100000000e+00 -3.17601930e-01  -1.07682645e+00   1.36717340e-01
C     4.915195505800000e+00   7.397502579737671e+00   3.591513000000000e+00 -2.56953650e-01   9.45420020e-01  -3.21215040e-01
C     6.200228550499999e+00   6.126507502144629e+00  -2.383340999999994e-01 -5.78260590e-01  -1.72508242e+00   5.58152000e-02
C     7.417588323300000e+00   6.785886988146666e+00  -2.523116999999999e-01 -1.69050700e-01   2.22301262e+00   6.89170300e-02
C     6.144230948300000e+00   6.692477898604898e+00   3.578902800000000e+00  4.23947280e-01   8.53684490e-01   1.22056930e-01
C     7.381328123999999e+00   7.420853699356698e+00   3.614468100000000e+00 -4.27717350e-01  -3.57925460e-01  -1.44478750e-01
C     8.618878761100000e+00   6.103193441831086e+00  -1.815327000000018e-01  2.33531479e+00  -3.01001730e-01   2.05683800e-02
C     9.873705350700000e+00   6.830469844983584e+00  -1.426052999999996e-01  1.88622490e-01  -9.98542210e-01  -2.63731530e-01
C     8.603105719100000e+00   6.708073547345570e+00   3.606415800000000e+00  7.82364600e-02  -4.09729480e-01  -6.65058620e-01
C     9.830287382999998e+00   7.402218846005985e+00   3.537515700000000e+00  6.54146950e-01   7.92366290e-01   2.92378790e-01
C     1.111490946290000e+01   6.106730129191692e+00  -9.624780000000044e-02 -4.98125000e-03   1.72839750e-01  -2.64125890e-01
C     1.237765318880000e+01   6.789448182467351e+00  -1.397648999999994e-01 -1.32690630e+00   6.44052430e-01   1.47856480e-01
C     1.108053725640000e+01   6.677821626407131e+00   3.539296500000000e+00 -8.94318420e-01   8.81016560e-01   4.06126630e-01
C     1.227775166880000e+01   7.460296584225285e+00   3.591931200000000e+00  7.71352820e-01  -1.31519119e+00  -4.00371690e-01
