64
Lattice="9.86 0 0 4.93 8.53901048131456 0 0 0 30 " PBC="1 1 1" Properties=species:S:1:pos:R:3:force:R:3 Energy="-515.00867258"
C     4.983920100200001e+00   7.527492960955969e+00  -6.345389999999895e-02  8.49444460e-01   1.03624658e+00  -9.44663030e-01
C     6.244680881500000e+00   8.256382127017824e+00  -1.672374000000012e-01 -1.07726503e+00  -3.95432190e-01   4.76333610e-01
C     9.775155636699999e+00   9.775063841318776e-01   3.619847400000000e+00  5.89230960e-01   1.62628972e+00   1.92390770e-01
C     1.160340970400000e+00   1.717555866110885e+00   3.669221400000000e+00  8.80852920e-01  -1.67032165e+00  -1.73439110e-01
C     7.481203810799999e+00   7.565929950390011e+00  -1.902642000000014e-01 -7.20752030e-01  -1.01895126e+00   9.59628000e-03
C     8.684449437300000e+00   8.276244036174514e+00  -2.491565999999992e-01  4.57888690e-01   4.12570740e-01   5.40514160e-01
C     2.420770307800000e+00   9.451989525906929e-01   3.748731000000000e+00 -7.02812340e-01   2.71592645e+00  -3.99548920e-01
C     3.657568577600000e+00   1.687360046471299e+00   3.629196000000000e+00 -4.59367320e-01  -7.92796360e-01   5.39897100e-01
C     9.922035373200000e+00   7.547963530779672e+00  -1.908828000000007e-01 -1.08477957e+00  -2.26906840e-01   1.67632580e-01
C     1.111328202060000e+01   8.257585871325190e+00  -1.350423000000021e-01  1.82122728e+00   1.24015990e+00  -9.06325670e-01
C     4.913178938599999e+00   1.005131363886250e+00   3.681695100000000e+00 -1.68796759e+00  -1.01090953e+00  -5.28810080e-01
C     6.145732626300000e+00   1.677839476736623e+00   3.645448800000000e+00 -9.05726760e-01   3.25154980e-01   5.67462430e-01
C     1.238197029120000e+01   7.601172154443067e+00  -2.631890999999982e-01 -6.76846620e-01  -9.51209440e-01   9.17381550e-01
C     1.362740784370000e+01   8.267271756302760e+00  -1.381481999999998e-01 -4.05363340e-01   4.68928000e-03  -1.97465290e-01
C     7.343251712700000e+00   9.788690394242759e-01   3.688711800000000e+00  7.36531830e-01  -1.27704453e+00  -1.05807083e+00
C     8.525592364400000e+00   1.700432588395341e+00   3.599051400000000e+00  2.49197850e+00   7.51809350e-01   2.53289470e-01
C     1.295156405300000e+00   1.128450984727466e+00  -2.351694000000002e-01 -1.72458549e+00   9.47296690e-01  -1.09460379e+00
C     2.481290987800000e+00   1.859261428147323e+00  -3.932147999999991e-01  1.38336626e+00   6.55715080e-01   1.12175888e+00
C     1.106265141360000e+01   3.127373650412211e+00   3.549074400000000e+00 -1.24426400e-02  -4.86503510e-01  -2.13236310e-01
C     2.452507774400000e+00   3.824579074258343e+00   3.469844100000000e+00 -1.97479543e+00   3.61475960e-01   1.25608300e-01
C     3.715172127300000e+00   1.180380123060538e+00  -2.675154000000006e-01  4.89597760e-01  -1.68508062e+00  -2.77252560e-01
C     4.950613809000000e+00   1.847395277623896e+00  -1.951656000000028e-01  5.38195560e-01   1.39329359e+00  -2.31732270e-01
C     3.637886933000000e+00   3.091408021391290e+00   3.551748300000000e+00  1.44225855e+00   6.96490230e-01   4.77963160e-01
C     4.893294671000000e+00   3.793295043123186e+00   3.704045400000000e+00 -9.55796700e-02   1.81581260e-01  -1.35130904e+00
C     6.192594396200001e+00   1.153280292450686e+00  -1.425270000000012e-01 -5.36256890e-01  -3.55381540e-01  -1.37206540e-01
C     7.412066772600000e+00   1.880773928029797e+00  -2.039127000000001e-01  6.83338930e-01  -1.73831793e+00   2.64834940e-01
C     6.141995784899999e+00   3.086539163005698e+00   3.680230800000000e+00 -5.45005170e-01   1.04773180e+00   6.23078560e-01
C     7.340812200799999e+00   3.843129220625094e+00   3.727537200000000e+00  9.26728480e-01  -1.69804530e-01  -1.48000124e+00
C     8.669398492399999e+00   1.138001440998822e+00  -1.912223999999974e-01  1.11261450e-01   1.59316873e+00  -2.01268840e-01
C     9.893788790300000e+00   1.872380678458690e+00  -3.066135000000010e-01  5.72882610e-01  -1.36532428e+00   9.05469540e-01
C     8.600935828899999e+00   3.152724179335130e+00   3.580177200000000e+00 -1.89400498e+00  -1.62014730e+00   6.25221480e-01
C     9.823807243099999e+00   3.814196064465186e+00   3.523689300000000e+00  4.32592150e-01   1.62571613e+00  -3.73542480e-01
C     2.531263390499999e+00   3.293236158486674e+00  -3.780171000000010e-01 -5.52157080e-01  -3.88191610e-01  -1.17392830e-01
C     3.747029885900000e+00   4.026277418394431e+00  -2.880716999999997e-01 -4.46774400e-01  -1.22786603e+00  -7.20885670e-01
C     1.225757761580000e+01   5.261099369011887e+00   3.410806500000000e+00 -3.16165080e-01  -1.34483728e+00   3.24444490e-01
C     3.618533774299999e+00   5.903170878501697e+00   3.480576000000000e+00  2.46169427e+00   2.14719005e+00   4.90544790e-01
C     4.968990186799999e+00   3.278494154623688e+00  -2.493200999999985e-01  5.91784640e-01   1.28744815e+00   5.83084520e-01
C     6.217906741700000e+00   4.025725969097633e+00  -1.793331000000009e-01 -8.91826930e-01  -9.87317940e-01  -5.44104990e-01
C     4.880595878399999e+00   5.217107240919974e+00   3.638445300000000e+00  2.92868830e-01   4.15399080e-01   6.73741400e-01
C     6.128059414399999e+00   5.982533210413760e+00   3.824451900000000e+00 -1.95436335e+00  -5.08079800e-01  -1.43033217e+00
C     7.411481088600000e+00   3.274516854322314e+00  -2.060028000000003e-01  2.33967554e+00   1.73854245e+00   4.71801440e-01
C     8.721028952699999e+00   4.001861825728967e+00  -1.550253000000019e-01 -2.47632046e+00  -1.94751430e-01  -4.51970320e-01
C     7.337888414999999e+00   5.268104773209679e+00   3.653957400000000e+00  3.32060300e-02  -3.32730280e-01   1.48148826e+00
C     8.574244168000000e+00   5.959262015932826e+00   3.621884100000000e+00  1.30959420e-01   4.91549810e-01  -1.54399630e-01
C     9.921810860999999e+00   3.291933190877531e+00  -3.083376000000015e-01 -1.27700490e-01  -5.19096190e-01   2.18589730e-01
C     1.116064354460000e+01   3.984608669664023e+00  -3.698841000000002e-01 -3.17809030e-01   8.24587300e-02   2.83014650e-01
C     9.812499055600000e+00   5.258677022518921e+00   3.470067000000000e+00 -7.90095960e-01  -3.40238350e-01   5.92573520e-01
C     1.101737833620000e+01   5.977068756047188e+00   3.460257600000000e+00  1.08587635e+00   5.34591810e-01  -1.87927310e-01
C     3.697866052500000e+00   5.437945947827193e+00  -3.238061999999999e-01  2.49932034e+00   5.90891140e-01   7.95813450e-01
C     4.992048092599999e+00   6.118045257368845e+00  -1.503453000000015e-01 -1.35045236e+00   5.52760010e-01  -5.86367910e-01
C     1.354500314020000e+01   7.352511728980017e+00   3.530082300000000e+00 -5.67822520e-01  -8.91586000e-03   1.16754110e-01
C     4.897289006300000e+00   8.115279760681695e+00   3.641186400000000e+00 -1.43998241e+00  -1.01524340e+00   2.74294930e-01
C     6.237816448100000e+00   5.456726305916486e+00  -1.932579000000025e-01 -5.36568240e-01  -1.60959136e+00   6.33708950e-01
C     7.476736096900000e+00   6.120025880849680e+00  -1.423307999999999e-01 -9.73407370e-01   1.88741339e+00   1.55297500e-01
C     6.083876458599999e+00   7.415305391907212e+00   3.828891600000000e+00  1.27209588e+00  -1.18418685e+00  -1.65042790e-01
C     7.323339146900000e+00   8.100781716348120e+00   3.870720300000000e+00  1.95396760e-01  -5.64920800e-01  -6.89007770e-01
C     8.681748388899999e+00   5.440163870409267e+00  -8.222250000000031e-02  6.08326180e-01  -2.07185785e+00  -7.13532240e-01
C     9.903464506899999e+00   6.113355035082495e+00  -1.695105000000012e-01  6.37899680e-01   6.63719190e-01  -2.17153450e-01
C     8.541239839299999e+00   7.387120253065353e+00   3.738645900000000e+00  1.35153965e+00  -1.27971560e-01  -2.96019420e-01
C     9.774716570900001e+00   8.117374038392018e+00   3.633431400000000e+00  1.76015611e+00  -3.55418450e-01   4.44431040e-01
C     1.110984778260000e+01   5.378712283759215e+00  -3.129393000000000e-01  1.65671874e+00   2.77635922e+00   7.71918500e-02
C     1.236873057900000e+01   6.192647176328412e+00  -3.543783000000005e-01 -1.31875529e+00  -2.14971073e+00   3.52277020e-01
C     1.106385206580000e+01   7.414060916519857e+00   3.548869800000000e+00 -1.35892835e+00  -9.17812110e-01  -9.17123100e-02
C     1.233097964630000e+01   8.072192255360033e+00   3.574976100000000e+00 -1.45848971e+00   8.64539160e-01   1.02259950e-01
