64
Lattice="9.86 0 0 4.93 8.53901048131456 0 0 0 30 " PBC="1 1 1" Properties=species:S:1:pos:R:3:force:R:3 Energy="-514.44664424"
C     4.965897252700000e+00   6.818674055906513e+00  -1.123152000000012e-01  2.08515445e+00   1.85233063e+00   7.31253530e-01
C     6.226957679400000e+00   7.537807060934550e+00  -3.517349999999908e-02 -4.06353570e-01   1.28888106e+00   1.97766730e-01
C     9.798939830100000e+00   1.748953551475530e+00   3.251952900000000e+00  3.23763400e-02  -1.67818110e+00  -5.71589000e-03
C     1.104356472140000e+01   2.406169679172459e+00   3.241842300000000e+00  5.61385530e-01   9.51403940e-01   1.27024125e+00
C     7.497930018999999e+00   6.870704381513772e+00  -6.693900000000141e-02 -2.91995368e+00  -1.82350760e+00   1.96219310e-01
C     8.683498193799998e+00   7.545411391327409e+00   2.730150000000000e-02  2.29765223e+00   5.66463520e-01  -8.47433980e-01
C     2.425172797800000e+00   1.701402449205659e+00   3.405530100000000e+00 -1.76197666e+00   6.11230550e-01  -1.10585675e+00
C     3.628552914700000e+00   2.392243833931151e+00   3.474804300000000e+00  7.56198630e-01   1.39355988e+00   4.98103270e-01
C     9.929204973599999e+00   6.853031191523317e+00  -6.896670000000071e-02  8.22614720e-01  -2.33371838e+00   1.07034406e+00
C     1.117783672240000e+01   7.555431066224641e+00  -8.101199999998698e-03 -9.15227930e-01  -1.56193690e-01  -2.99120810e-01
C     4.832414150300000e+00   1.638897490222793e+00   3.511162500000000e+00  1.57085379e+00   1.64037576e+00  -1.03187264e+00
C     6.079364424000000e+00   2.371820997176030e+00   3.435318300000000e+00  3.01018840e-01   1.04939052e+00  -3.59056100e-01
C     1.241403624370000e+01   6.843688916327463e+00   2.868360000000000e-02 -6.89988210e-01   2.13970161e+00   1.55356180e-01
C     1.363195675470000e+01   7.595132426940459e+00   5.352000000000000e-03 -4.30822700e-02  -2.31930151e+00  -2.08848550e-01
C     7.372572936999999e+00   1.666971792708622e+00   3.375074700000000e+00 -3.18610115e+00  -2.13017880e-01   9.06151100e-02
C     8.534035876799999e+00   2.403066773544237e+00   3.251504100000000e+00  1.76875259e+00   7.76305650e-01   7.77888910e-01
C     1.283997399600000e+00   4.538668512746368e-01   1.315890000000000e-01 -5.88527910e-01  -9.26816130e-01  -1.27794250e+00
C     2.523990013600000e+00   1.140319782344142e+00   4.435620000000000e-02  1.64306100e-01   1.11667226e+00   7.24406600e-01
C     1.105637897460000e+01   3.809851501323067e+00   3.388263600000000e+00 -6.75184080e-01   1.18618803e+00   3.46253800e-01
C     1.228642117240000e+01   4.573529876932016e+00   3.533536200000000e+00 -1.75619921e+00  -1.80014110e-01  -3.03223260e-01
C     3.760074961699999e+00   4.156753583918936e-01   1.979910000000000e-02 -2.13171020e-01   1.38386307e+00  -3.72689110e-01
C     4.985573671500000e+00   1.149074744399182e+00  -8.301990000000004e-02  6.55156920e-01  -1.00679243e+00   4.85695800e-02
C     3.633977640200000e+00   3.854106801717973e+00   3.512437200000000e+00  5.08427430e-01  -6.33556910e-01  -6.12293830e-01
C     4.860054047400000e+00   4.592469402176656e+00   3.355689300000000e+00 -9.84149710e-01  -2.70075001e+00   8.04068690e-01
C     6.243079420300000e+00   4.403503661957400e-01  -5.510549999999981e-02 -1.15728528e+00  -3.41866810e-01   2.63646330e-01
C     7.443289990899999e+00   1.148697490916175e+00   2.733960000000000e-02  3.37798470e-01   7.97509430e-01  -4.13027630e-01
C     6.044590718299999e+00   3.868515101051401e+00   3.323890800000000e+00  2.65930172e+00  -2.94325335e+00   5.12895350e-01
C     7.326900825399999e+00   4.536945681991923e+00   3.341529300000000e+00 -1.48071423e+00   7.15171820e-01  -2.79239060e-01
C     8.690284388100000e+00   4.462697790406856e-01   7.573980000000001e-02 -1.15992043e+00   8.31433330e-01  -3.14553700e-01
C     9.869423892200000e+00   1.182297387083613e+00   1.068165000000000e-01  2.96202338e+00  -1.97825495e+00   1.86334620e-01
C     8.557837078699999e+00   3.830789240410132e+00   3.343815300000000e+00 -1.06211927e+00  -7.38288480e-01  -1.91624680e-01
C     9.776414561499999e+00   4.496535241845847e+00   3.431550600000000e+00  2.04432268e+00   1.44859466e+00  -5.02687840e-01
C     2.550108857800000e+00   2.612125830104191e+00   9.874350000000000e-02  7.53667590e-01  -2.07302567e+00  -5.64905300e-02
C     3.801628797800000e+00   3.291054014358510e+00   3.775170000000000e-02 -7.76348320e-01   7.54455650e-01  -8.02752220e-01
C     1.222662451220000e+01   6.025583144089309e+00   3.574777500000000e+00  4.64043200e-01  -1.95321937e+00  -4.67807080e-01
C     1.349461543430000e+01   6.667657727622892e+00   3.548582700000000e+00 -3.53836540e-01   9.87563910e-01  -3.45412790e-01
C     5.025192038899999e+00   2.551187437983985e+00  -1.453224000000013e-01 -1.39396171e+00   1.02948781e+00   1.26063539e+00
C     6.239455574499999e+00   3.279452316989649e+00  -7.670880000000224e-02 -1.45108865e+00   6.12637140e-01  -6.56738350e-01
C     4.858779247999999e+00   5.954074396286016e+00   3.389773200000000e+00 -7.52615910e-01   2.40080814e+00   2.46380390e-01
C     6.057967681699999e+00   6.692802551783348e+00   3.311182500000000e+00  1.38881363e+00  -2.81803900e-01  -2.50318270e-01
C     7.420508115799999e+00   2.592516846437919e+00  -3.439470000000000e-02  2.80857420e+00  -1.99257305e+00   6.66462460e-01
C     8.693247465999999e+00   3.248770029923018e+00   5.411550000000000e-02 -1.10275265e+00   1.33372734e+00  -4.98396830e-01
C     7.290360257000000e+00   5.973027071606795e+00   3.317957700000000e+00  1.12956183e+00  -5.89788100e-01   2.61060560e-01
C     8.562566427699998e+00   6.646405496779849e+00   3.374275800000000e+00 -1.28638816e+00   7.98135750e-01  -3.08404230e-01
C     9.914240007899998e+00   2.553992844487084e+00   1.095930000000000e-01  9.32379120e-01   2.14514537e+00   1.55071650e-01
C     1.119636031000000e+01   3.306984904650627e+00   1.617975000000000e-01 -1.42760327e+00  -2.71657334e+00  -3.03620840e-01
C     9.796405563600000e+00   5.950205541417738e+00   3.430001700000000e+00 -1.82155842e+00  -1.16800471e+00   8.69314500e-02
C     1.095565232050000e+01   6.699054473696385e+00   3.464061000000000e+00  3.26005898e+00  -7.20297300e-01   6.89496520e-01
C     3.765482284300000e+00   4.749848574119449e+00   5.858100000000000e-03  4.24479410e-01  -1.63173511e+00   3.88072630e-01
C     5.016223037800000e+00   5.409521545911684e+00  -1.122042000000008e-01 -2.15080052e+00   6.34982840e-01   1.15134810e-01
C     1.351039025110000e+01   8.095268760402023e+00   3.510362100000000e+00  1.56642909e+00   2.48188470e-01  -6.20908170e-01
C     9.839103356899999e+00   3.270873941671336e-01   3.348422700000000e+00 -2.02557311e+00  -1.56285183e+00  -1.44239490e-01
C     6.197554272000000e+00   4.694615265681141e+00  -1.066992000000013e-01  2.79314069e+00   9.10966560e-01  -1.30967070e-01
C     7.461834678900000e+00   5.441793625949480e+00  -1.031253000000021e-01 -1.50070000e-02  -1.39966451e+00   2.09196140e-01
C     6.104521277300000e+00   8.107219788689623e+00   3.237551700000000e+00 -4.28848170e-01   1.41385494e+00   9.43484300e-01
C     2.386630008500000e+00   3.269039762220232e-01   3.279988500000000e+00  1.61993436e+00  -3.62770786e+00   4.70147120e-01
C     8.687128547200000e+00   4.679269126826694e+00  -1.784099999999711e-02  3.46112620e-01   1.85840400e-01  -4.83961200e-02
C     9.959772847000000e+00   5.328232044724389e+00   5.665800000000000e-03 -1.68877634e+00   3.77729882e+00  -7.65467000e-03
C     8.556731822000000e+00   8.076095522440545e+00   3.352436700000000e+00 -1.99576630e-01   5.92495320e-01  -2.77494290e-01
C     4.871278572799999e+00   2.348212511781136e-01   3.375858600000000e+00 -8.64951380e-01   4.81797490e-01   1.01355137e+00
C     1.117902391570000e+01   4.667821814767311e+00   1.451832000000000e-01  7.05976380e-01   2.91684397e+00  -3.79925210e-01
C     1.240461072460000e+01   5.476758909892670e+00   1.250076000000000e-01  2.21848500e-02  -3.23268508e+00  -5.90874020e-01
C     1.103660587850000e+01   8.097929174507172e+00   3.467309100000000e+00 -8.42880310e-01  -2.05673500e-01  -5.27080230e-01
C     7.355171663900000e+00   2.162050982603512e-01   3.454779900000000e+00 -2.22617440e-01   2.09729759e+00   2.31348320e-01
