64
Lattice="9.86 0 0 4.93 8.53901048131456 0 0 0 30 " PBC="1 1 1" Properties=species:S:1:pos:R:3:force:R:3 Energy="-514.17789938"
C     4.978014502500000e+00   8.409990215762335e+00  -3.893937000000030e-01 -5.32060160e-01   1.18757772e+00   7.10045000e-03
C     1.286033982600000e+00   6.117772350593904e-01  -4.227677999999990e-01 -1.60501534e+00  -3.36703160e-01   9.76494290e-01
C     9.864062960900000e+00   1.205184838433576e-01   3.876962100000000e+00 -2.06208266e+00  -9.13613380e-01  -2.39749670e-01
C     1.205013228700000e+00   7.857634161441064e-01   3.846187800000000e+00  9.14354600e-02   2.91825067e+00  -2.33007260e-01
C     7.414689384699999e+00   8.431902853675902e+00  -4.014392999999998e-01  1.11724236e+00  -3.42318310e-01   1.85538350e-01
C     3.739389026800000e+00   5.779518236251759e-01  -3.851139000000003e-01 -9.28175150e-01   1.05332390e-01  -4.73270750e-01
C     2.410080539500000e+00   1.335990524372504e-01   3.835054500000000e+00  2.23124685e+00  -1.20291987e+00  -4.52862700e-02
C     3.653010201000000e+00   8.511361164065760e-01   3.805839000000000e+00  3.17159420e-01  -3.24734510e-01   3.64321870e-01
C     9.871921183700000e+00   8.395863106044013e+00  -4.129316999999979e-01  1.51552152e+00   1.93321145e+00   1.54158960e-01
C     6.220730990799999e+00   6.211199372057680e-01  -4.213316999999996e-01 -2.03163997e+00  -2.45977615e+00   5.75115850e-01
C     4.870729765199999e+00   8.650239630512480e-02   3.853565400000000e+00  2.32225920e-01   9.27516030e-01  -3.10387410e-01
C     6.084386417799999e+00   8.103563640572400e-01   3.853124100000000e+00  2.30528981e+00   3.69008790e-01  -4.13268430e-01
C     1.234532584770000e+01   8.396992134009679e+00  -3.568131000000001e-01  5.37703090e-01  -4.85043380e-01  -9.25521510e-01
C     8.646203434000000e+00   5.595138798561312e-01  -3.859046999999975e-01  5.63251530e-01   1.16528320e+00  -2.03014800e-01
C     7.369958163600000e+00   1.157254518708288e-01   3.803000700000000e+00 -2.42179660e-01   1.64931295e+00  -3.87171370e-01
C     8.652417748299998e+00   8.509579072578584e-01   3.755651100000000e+00 -2.72107525e+00  -8.48175140e-01   9.14592260e-01
C     1.247911081400000e+00   2.031810066817731e+00  -3.223647000000014e-01  2.08649736e+00  -2.46319740e-01  -2.31432800e+00
C     2.525787984600000e+00   2.746711052861776e+00  -5.177979000000015e-01 -1.98942892e+00  -2.25724861e+00   1.57292176e+00
C     1.104624545820000e+01   2.241130075537954e+00   3.763520400000000e+00  6.30797950e-01  -2.63738310e-01  -2.36007800e-02
C     2.400059722900000e+00   2.988824533599705e+00   3.659174100000000e+00  2.04581072e+00  -1.45319952e+00   9.04990470e-01
C     3.721940721499999e+00   1.984793335823698e+00  -4.559400000000018e-01  1.06936700e+00   1.90926962e+00   1.21269150e-01
C     4.948959202399999e+00   2.750844787835144e+00  -4.255469999999981e-01 -1.14527480e-01  -7.20466400e-01  -6.20458800e-02
C     3.717096404899999e+00   2.294092519529210e+00   3.808641600000000e+00 -3.54285107e+00  -1.97481525e+00  -4.13762650e-01
C     4.921555255099999e+00   2.937247373278618e+00   3.935197200000000e+00  2.46738210e-01   1.80238644e+00  -1.20808599e+00
C     6.166122366799999e+00   2.012005027470838e+00  -3.777264000000002e-01  1.29673383e+00   1.41884873e+00  -1.54811030e-01
C     7.430749599199999e+00   2.722316124601674e+00  -3.521457000000012e-01 -1.02093184e+00   5.01333070e-01  -5.77321510e-01
C     6.139524178699999e+00   2.230891375021909e+00   3.829787400000000e+00  3.89386510e-01   9.64176740e-01   9.09311900e-01
C     7.389439650200000e+00   3.010418410252053e+00   3.829019400000000e+00 -1.73587047e+00  -2.37645067e+00  -5.08486100e-01
C     8.635507453900001e+00   2.015371873912998e+00  -4.572677999999968e-01  1.51906091e+00  -7.48399980e-01   9.49237170e-01
C     9.917378347300000e+00   2.725678872318802e+00  -4.572278999999995e-01 -1.91963834e+00   8.16029150e-01   5.14740090e-01
C     8.571724198500000e+00   2.270262361422255e+00   3.794659800000000e+00  1.60177180e+00  -6.71434340e-01   7.31862300e-02
C     9.818111318300000e+00   2.949289085857515e+00   3.821288400000000e+00  7.73416500e-02  -1.55429830e-01  -8.75749390e-01
C     2.483579691000000e+00   4.120661406762701e+00  -4.865393999999981e-01  7.27421220e-01   2.79018062e+00  -3.96798090e-01
C     3.731373832800000e+00   4.866463876272398e+00  -4.035908999999975e-01 -6.44991040e-01  -4.31132990e-01  -1.37162815e+00
C     1.230018035870000e+01   4.390062832511356e+00   3.643672500000000e+00  4.30456900e-01   6.15872250e-01   5.13358440e-01
C     3.705334854600000e+00   5.115901693249548e+00   3.720915600000000e+00 -2.13223292e+00  -1.07967930e-01   3.32837760e-01
C     4.958761866500000e+00   4.192861899804979e+00  -4.429554000000024e-01  2.60102700e-01  -1.67329556e+00   3.70215230e-01
C     6.194050471699999e+00   4.895744570158842e+00  -4.346226000000009e-01  6.90860210e-01  -1.34854544e+00   1.04652337e+00
C     4.887861416600000e+00   4.384075876093513e+00   3.874249200000000e+00  5.81729410e-01  -6.24769870e-01  -4.50609100e-02
C     6.100677898599999e+00   5.067316260640234e+00   3.902746500000000e+00  1.88172217e+00   1.93057918e+00  -6.46711190e-01
C     7.438530963300000e+00   4.157127848748274e+00  -3.471519000000001e-01 -1.01012664e+00  -3.46549340e-01  -2.82070170e-01
C     8.656867960700000e+00   4.858946216835911e+00  -3.423260999999975e-01  7.68960220e-01  -8.72993360e-01  -7.63778920e-01
C     7.377916711899999e+00   4.408141625499613e+00   3.805046700000000e+00 -1.49243605e+00  -3.68486200e-02   1.02099743e+00
C     8.579377086799999e+00   5.113449631000110e+00   3.855802200000000e+00  1.64967627e+00  -3.02676710e-01  -5.51988890e-01
C     9.927439244799999e+00   4.179220062052235e+00  -4.761123000000005e-01 -2.31765091e+00  -1.65984332e+00   2.80172060e-01
C     1.110106641730000e+01   4.878464686991095e+00  -5.611728000000014e-01  2.04648754e+00   2.45424170e-01   1.02202154e+00
C     9.813658000000000e+00   4.343404739957483e+00   3.755033700000000e+00  7.98814660e-01   2.45979591e+00   8.88768010e-01
C     1.108281092310000e+01   5.078363263888314e+00   3.761642400000000e+00 -1.55782232e+00   4.84538680e-01  -3.55013810e-01
C     3.746554190199999e+00   6.268813783568335e+00  -5.191475999999966e-01 -8.34814260e-01   4.10974600e-01   1.43968875e+00
C     4.952143637300000e+00   7.014259407830075e+00  -3.617066999999992e-01  6.70756890e-01  -1.32005966e+00  -6.57178920e-01
C     1.351097549140000e+01   6.550437009626910e+00   3.779093100000000e+00 -2.68659120e-01  -8.13731230e-01   4.34977500e-02
C     4.870033353400000e+00   7.225969058633125e+00   3.926574300000000e+00  1.82835274e+00   5.48349210e-01  -9.52327510e-01
C     6.195853569900001e+00   6.287087351385641e+00  -3.246897000000004e-01 -4.03640740e-01   1.29626423e+00  -6.98411670e-01
C     7.416225523400000e+00   7.015980103831899e+00  -3.628257000000019e-01  4.65931360e-01  -1.28533235e+00   1.69679470e-01
C     6.142622387899999e+00   6.513385986983875e+00   3.869724300000001e+00 -8.79440710e-01  -3.09882500e-01   6.82342330e-01
C     7.392973129100000e+00   7.232825969438669e+00   3.870578700000000e+00 -1.20371502e+00   4.10341940e-01   3.24835100e-02
C     8.646766538600000e+00   6.240063959963433e+00  -3.809304000000004e-01  1.20965540e-01   3.23871482e+00   2.17746910e-01
C     9.877449636399998e+00   7.012706759554495e+00  -4.096250999999995e-01  1.17362130e-01  -1.71751551e+00  -9.51826700e-02
C     8.621813442200001e+00   6.539511858058379e+00   3.896614200000000e+00 -6.28590330e-01  -1.26837291e+00  -6.24072250e-01
C     9.858548164300000e+00   7.200142052925422e+00   3.822689100000000e+00 -1.78502757e+00   1.43596512e+00   8.02231420e-01
C     1.113427682000000e+01   6.325031896085303e+00  -4.651556999999968e-01 -2.31475132e+00  -2.81974510e+00  -4.54126110e-01
C     1.234343834790000e+01   6.922207679394207e+00  -4.791107999999973e-01  1.91456135e+00   4.08284209e+00   4.40724090e-01
C     1.105449295380000e+01   6.520019688055473e+00   3.837403500000000e+00  9.02843860e-01  -1.09001617e+00  -9.27384740e-01
C     1.224626459690000e+01   7.272981520121917e+00   3.746917500000000e+00  2.10243646e+00  -1.78259375e+00   6.48200800e-01
