64
Lattice="9.86 0 0 4.93 8.53901048131456 0 0 0 30 " PBC="1 1 1" Properties=species:S:1:pos:R:3:force:R:3 Energy="-515.07725042"
C     5.051850866000000e+00   6.784465669852271e+00  -4.969589999999968e-02 -1.37591991e+00  -3.86476700e-02  -1.24831660e-01
C     6.270296274100000e+00   7.488304453209579e+00  -1.234380000000002e-01 -3.38614710e-01   1.07865070e-01  -9.85557520e-01
C     9.771878616400000e+00   1.776903867529190e+00   3.653019900000000e+00 -2.05984130e-01  -5.05612300e-02  -2.50891860e-01
C     1.100660840610000e+01   2.460376427770862e+00   3.736587300000000e+00 -3.97432650e-01   4.43206090e-01  -5.14526570e-01
C     7.480655249700000e+00   6.784484199505012e+00  -3.035001000000008e-01  1.17094798e+00   4.04469900e-02   7.47563720e-01
C     8.746998516500000e+00   7.497084605345536e+00  -2.768240999999989e-01 -2.18522344e+00   2.32195160e-01   8.54901290e-01
C     2.355406198600000e+00   1.756110693889552e+00   3.717781800000000e+00  1.78169695e+00  -1.32508200e-01  -1.66608400e-02
C     3.578848161700000e+00   2.509203685156969e+00   3.598336200000000e+00  1.30327140e+00  -1.89181123e+00  -2.47983700e-01
C     9.924408231499999e+00   6.774260954597937e+00  -5.028060000000067e-02  9.31543250e-01   1.51155110e+00  -6.12604520e-01
C     1.116458986170000e+01   7.498334545699597e+00   2.886870000000000e-02 -1.77036030e-01  -2.71394620e-01  -1.53593510e-01
C     4.831931404699999e+00   1.789461250950974e+00   3.450344100000000e+00 -3.14137540e-01  -6.47123770e-01   1.72517367e+00
C     6.090328103099999e+00   2.466107811605037e+00   3.476546100000000e+00  3.85890210e-01  -1.30201985e+00  -4.43355440e-01
C     1.240525823080000e+01   6.792469113594965e+00   4.515300000000000e-03  2.25733620e-01  -8.14941480e-01   2.18802750e-01
C     1.365785508000000e+01   7.476421310055298e+00   5.272499999999999e-03 -4.76182200e-01   7.16196160e-01  -2.71515510e-01
C     7.315889522499999e+00   1.714897757538566e+00   3.448578000000000e+00  7.72897620e-01   1.93839858e+00   4.18157400e-01
C     8.583479389099999e+00   2.511317261030978e+00   3.499864800000000e+00 -2.37909303e+00  -2.20103733e+00  -1.99325020e-01
C     1.298839263200000e+00   3.629521774742864e-01  -1.977971999999966e-01  8.94698220e-01   5.41115120e-01   2.88627260e-01
C     2.549602300300000e+00   1.080575656229670e+00  -2.380475999999980e-01 -7.99101120e-01  -6.12850820e-01   7.31391500e-02
C     1.100863961540000e+01   3.891129901796738e+00   3.616980600000000e+00 -2.15637500e-02  -9.01070500e-02   2.67934850e-01
C     1.222363377700000e+01   4.604456294308270e+00   3.626301900000000e+00  1.81779123e+00   6.66756600e-01  -5.61709530e-01
C     3.772707051400000e+00   3.876924233182000e-01  -2.177609999999994e-01  3.47752130e-01  -9.74701070e-01  -1.39627390e-01
C     4.987722559900000e+00   1.092654428114049e+00  -1.415411999999989e-01 -4.13374030e-01   1.38432772e+00  -1.54781800e-02
C     3.669700518800000e+00   3.902443066001480e+00   3.611840700000000e+00 -3.26586630e+00  -4.51014000e-03   2.13347160e-01
C     4.888525734100000e+00   4.550316149991612e+00   3.593757600000000e+00  6.22270940e-01   2.21409737e+00  -2.69855580e-01
C     6.177573622899999e+00   3.765921366447240e-01  -9.532499999998834e-03  2.55292402e+00   7.24726000e-03  -9.61785060e-01
C     7.461006340300000e+00   1.061341876683889e+00  -1.598415000000024e-01 -1.02301561e+00  -9.27379570e-01   6.32200690e-01
C     6.138550996699999e+00   3.857936974868777e+00   3.510127200000000e+00 -1.09218328e+00   1.59447048e+00  -5.90418580e-01
C     7.329027233000000e+00   4.623686316689440e+00   3.348180600000000e+00 -4.81530510e-01  -6.38175010e-01   7.81281830e-01
C     8.677095997199999e+00   3.614185711920784e-01  -8.839530000000195e-02  1.88679250e+00   1.30486090e-01  -1.11705950e-01
C     9.952949234000000e+00   1.088998279996827e+00  -1.694795999999990e-01 -1.14403561e+00  -3.03983880e-01   2.99925420e-01
C     8.548145635399999e+00   3.906542644932928e+00   3.394046100000000e+00  6.80418490e-01   6.29956350e-01   3.54808260e-01
C     9.783098655500000e+00   4.612221755828887e+00   3.490898400000000e+00 -6.57895000e-02   1.35050770e-01  -4.27177750e-01
C     2.543275729900000e+00   2.469533662609614e+00  -1.833866999999998e-01 -1.67685670e-01   2.47121868e+00   2.60840350e-01
C     3.768996930600000e+00   3.255185388496642e+00  -1.542671999999996e-01 -1.83998230e-01  -2.03158921e+00  -3.26972900e-02
C     1.224215751250000e+01   6.038805716427484e+00   3.502815600000000e+00  8.11087000e-02  -1.21637286e+00   6.43377570e-01
C     1.350426378940000e+01   6.705732236062059e+00   3.553235100000000e+00 -1.61469884e+00   9.27788420e-01  -3.65500660e-01
C     4.988531523600000e+00   2.541401134243171e+00  -2.063297999999989e-01  1.92369600e+00  -4.01065020e-01   2.55406900e-02
C     6.290554186400000e+00   3.234833169358191e+00  -2.801064000000011e-01 -2.07905944e+00  -9.76474810e-01   6.40275560e-01
C     4.835257922199999e+00   6.013046168902573e+00   3.596248200000000e+00  1.75498595e+00  -1.40712161e+00  -1.25306280e-01
C     6.052377554700000e+00   6.747326866181502e+00   3.574617000000000e+00  3.52939120e-01   4.47334060e-01  -1.70186110e-01
C     7.502666713700000e+00   2.444719298154734e+00  -2.826309000000009e-01 -6.07585260e-01   2.83722745e+00   3.58645560e-01
C     8.712328439399998e+00   3.204403722391872e+00  -2.100368999999986e-01  5.00101360e-01   1.13671360e-01  -2.88444300e-02
C     7.284217772800000e+00   6.042726403089376e+00   3.408620700000000e+00  1.23078600e-01   6.30219400e-02   3.10438820e-01
C     8.508597323300000e+00   6.746367764524388e+00   3.419637000000000e+00  1.70134622e+00   1.17862170e-01   3.46045360e-01
C     9.983836571400001e+00   2.528335935868142e+00  -1.543190999999986e-01 -3.22840584e+00  -1.70102309e+00  -2.63347980e-01
C     1.115334660230000e+01   3.201043707158097e+00  -1.282395000000029e-01  3.21655891e+00   2.10398873e+00   1.25877360e-01
C     9.768906319399999e+00   6.035028655921866e+00   3.430961700000000e+00  1.17893180e-01  -5.65975700e-02   5.97660400e-02
C     1.102191847180000e+01   6.745172046886874e+00   3.473103300000000e+00 -1.24600045e+00  -7.52021600e-02   2.78944730e-01
C     3.772645278499999e+00   4.643258838780962e+00  -5.251499999999965e-02  4.29114770e-01   1.04221487e+00  -8.30128510e-01
C     4.996414840100000e+00   5.380198840093677e+00  -1.417530000000014e-01  8.88809090e-01  -1.18715503e+00   6.90859370e-01
C     1.349288041940000e+01   8.126520599467669e+00   3.489085500000000e+00 -1.40883109e+00   9.17710920e-01   5.88248230e-01
C     9.734147748800000e+00   3.569596706996320e-01   3.599286900000000e+00  2.03616469e+00  -6.94451760e-01   3.41326850e-01
C     6.243207846800000e+00   4.664226805965127e+00  -2.089101000000007e-01 -1.30107810e-01  -7.39660050e-01  -6.13895590e-01
C     7.470787904000000e+00   5.356794522439360e+00  -2.709584999999990e-01 -4.06870200e-02   6.60817750e-01   3.05352660e-01
C     6.075541159700000e+00   8.188730621028558e+00   3.667450800000000e+00  2.22963100e-02  -8.71271420e-01  -2.68390030e-01
C     2.434059813000000e+00   3.109258652019520e-01   3.718664100000000e+00 -2.56432908e+00   1.48059020e+00  -6.87774890e-01
C     8.681689031700000e+00   4.637020408504484e+00  -1.850624999999972e-01  1.24431167e+00   1.66135490e-01  -1.89139260e-01
C     9.917391165300000e+00   5.403191492052755e+00  -7.071900000000042e-02  9.00099690e-01  -3.48776857e+00  -2.00779140e-01
C     8.575779567200000e+00   8.168695455349228e+00   3.565589400000000e+00 -9.67377730e-01  -7.29215160e-01   2.88066950e-01
C     4.849531258200000e+00   3.544515925414464e-01   3.597922800000000e+00  3.00931170e-01   3.26717330e-01  -1.18210858e+00
C     1.120480047000000e+01   4.669359434384445e+00  -5.779139999999927e-02 -2.99291124e+00  -1.42140611e+00  -1.35955450e-01
C     1.240752376300000e+01   5.335819809436917e+00  -4.647419999999869e-02  3.28731980e-01   2.10960678e+00   4.68198460e-01
C     1.099288491300000e+01   8.162262677194226e+00   3.545511300000000e+00  1.96343960e-01   5.23774200e-02  -3.20972730e-01
C     7.286381106099999e+00   3.097472255853976e-01   3.505037100000000e+00  1.84438830e+00  -1.84320120e-01  -3.33947530e-01
