64
Lattice="9.86 0 0 4.93 8.53901048131456 0 0 0 30 " PBC="1 1 1" Properties=species:S:1:pos:R:3:force:R:3 Energy="-514.98585478"
C     5.027142544100000e+00   7.524230119661455e+00  -8.721630000000147e-02 -2.66961287e+00   3.69463380e-01  -4.37639310e-01
C     6.219937112899999e+00   8.232019305437127e+00  -1.575623999999998e-01  8.58865090e-01   9.36919620e-01  -2.54774330e-01
C     9.824211700299999e+00   1.037906391641319e+00   3.648559200000000e+00 -6.12146660e-01  -1.87099886e+00   4.37329910e-01
C     1.187896712400000e+00   1.706851191792947e+00   3.710183100000000e+00 -1.67205230e-01   1.34555968e+00  -6.56889850e-01
C     7.461846757400000e+00   7.518816130846821e+00  -1.425108000000002e-01  1.32558360e-01   1.24554609e+00   1.00360160e-01
C     8.695634917100000e+00   8.233499969854359e+00  -1.988126999999977e-01 -8.90678900e-01   1.73823660e-01  -2.54311590e-01
C     2.398217234000000e+00   1.041118511213581e+00   3.760355400000000e+00  1.51503626e+00  -2.60363496e+00   5.63381640e-01
C     3.644811906800000e+00   1.709850775394361e+00   3.650067000000000e+00 -2.09142870e-01   1.04604929e+00  -5.66935900e-02
C     9.905329131500000e+00   7.527777395395057e+00  -2.008665000000001e-01  6.37685720e-01  -8.56088900e-02   6.12204810e-01
C     1.115195323640000e+01   8.262318532493625e+00  -1.637978999999987e-01 -1.24783905e+00  -1.47506339e+00  -2.85518360e-01
C     4.856004841200000e+00   9.790812338347040e-01   3.650737500000000e+00  8.77435250e-01   9.93550880e-01   3.41661340e-01
C     6.089103984099999e+00   1.704957666219007e+00   3.705672600000000e+00  1.53726509e+00  -7.18095020e-01  -3.64234540e-01
C     1.234477097620000e+01   7.508331592219058e+00  -2.171646000000003e-01  1.95643918e+00   1.03970944e+00  -2.11087100e-01
C     1.362237559550000e+01   8.239151940891071e+00  -1.790906999999997e-01 -5.21078680e-01   1.56958880e-01  -2.20690400e-02
C     7.367439870300000e+00   9.908999928499672e-01   3.673890600000000e+00 -7.30351830e-01   9.12943860e-01  -5.26714440e-01
C     8.607079693499999e+00   1.739240939395159e+00   3.613063500000000e+00 -1.97653197e+00  -4.96228110e-01   8.33063500e-01
C     1.261903653900000e+00   1.136204235463097e+00  -3.284829000000009e-01  1.48117597e+00  -1.05163855e+00   2.75655720e-01
C     2.508109103200000e+00   1.836407108158022e+00  -4.122833999999997e-01 -3.85655400e-02  -3.47386570e-01   2.50070960e-01
C     1.105253273650000e+01   3.119509990271074e+00   3.532576500000000e+00 -8.16387210e-01   9.75133840e-01  -3.99762060e-01
C     2.395490845400000e+00   3.860695331424131e+00   3.380318700000000e+00  1.83966677e+00  -1.04314537e+00   8.99470250e-01
C     3.732474307400000e+00   1.106719971566810e+00  -3.124673999999992e-01  3.01746950e-01   1.19847561e+00   5.65143390e-01
C     4.944574115300000e+00   1.861420346166982e+00  -1.873440000000031e-01  4.81835990e-01  -9.37942200e-01  -1.65191980e-01
C     3.689011575299999e+00   3.150892561587171e+00   3.539351400000000e+00 -1.64575825e+00  -8.15139940e-01  -5.28106200e-02
C     4.927081587900000e+00   3.812657847117319e+00   3.659842200000000e+00 -1.71822578e+00   1.84870551e+00  -4.71610390e-01
C     6.181325205000000e+00   1.125955458914686e+00  -1.130622000000017e-01  2.20916450e-01   8.50139070e-01  -3.88044130e-01
C     7.411725074300000e+00   1.821449579670521e+00  -1.571280000000002e-01  1.18236592e+00   1.71477856e+00  -2.05994040e-01
C     6.133040390600000e+00   3.120059304815253e+00   3.723816900000000e+00 -1.73701670e-01   7.30628100e-02   1.21165740e-01
C     7.341821667599999e+00   3.874609136660662e+00   3.726054000000000e+00 -5.30645840e-01  -1.50812030e-01   2.17303870e-01
C     8.663870877799999e+00   1.155229236202642e+00  -2.537924999999994e-01  3.79414110e-01  -1.73644584e+00   9.29771780e-01
C     9.932986530099999e+00   1.855449870039366e+00  -2.960951999999999e-01 -1.94843983e+00  -1.29289900e-02  -6.58425510e-01
C     8.524396395700000e+00   3.151292699618263e+00   3.690226500000000e+00  3.17913521e+00   7.70070600e-02  -1.09234727e+00
C     9.804594638699999e+00   3.841250723709599e+00   3.511159200000000e+00 -6.56923390e-01  -6.73980600e-02   3.25702150e-01
C     2.529586056599999e+00   3.263240578642844e+00  -4.554362999999988e-01 -4.72969310e-01   1.38726700e-02   2.11290400e-01
C     3.736827596000000e+00   3.984733680777450e+00  -3.133319999999991e-01  1.12361512e+00   4.49292320e-01  -5.38966170e-01
C     1.226885272300000e+01   5.265838178267868e+00   3.318532200000000e+00  5.27309750e-01   1.44975484e+00   2.24172630e-01
C     3.685644237400000e+00   6.002116918609011e+00   3.411150300000000e+00 -1.58742965e+00  -1.96026384e+00   7.64484040e-01
C     4.969942662799999e+00   3.281434306712161e+00  -2.027445000000014e-01  3.36976300e-01  -1.81129850e-01  -2.40925740e-01
C     6.229289027099999e+00   3.984983446833990e+00  -1.879412999999985e-01 -3.75701330e-01   4.07883390e-01   8.38515930e-01
C     4.876834485600000e+00   5.265746981635941e+00   3.664052400000000e+00 -1.76073730e-01  -4.17708290e-01  -7.21327600e-01
C     6.059363216800000e+00   5.991281768210939e+00   3.804520500000000e+00  2.66109253e+00   4.04759500e-02   4.01494410e-01
C     7.475176540700000e+00   3.290406330413602e+00  -1.431909000000005e-01 -3.04853702e+00  -2.65994283e+00  -1.44129360e-01
C     8.659580298800000e+00   3.955760988999019e+00  -1.494438000000002e-01  2.85960981e+00   3.31923180e-01  -7.91069550e-01
C     7.347004675199999e+00   5.299365065895700e+00   3.771840900000000e+00 -1.22485450e+00  -2.13767980e-01  -2.30696390e-01
C     8.569263586199998e+00   6.004980219603165e+00   3.646395000000000e+00  2.92958480e-01  -1.14789393e+00   3.32271910e-01
C     9.914181143699999e+00   3.267026861279782e+00  -3.888530999999986e-01  4.10551030e-01   3.72220850e-01   1.02376179e+00
C     1.116438526670000e+01   3.982021093318268e+00  -4.640400000000007e-01 -1.44484356e+00   1.18839140e-01   5.77938790e-01
C     9.786550493600000e+00   5.261945926510874e+00   3.426947100000000e+00  7.97694400e-01   7.06973150e-01   6.21460180e-01
C     1.103841829440000e+01   5.999720530707904e+00   3.373868100000000e+00 -6.00828390e-01  -6.64703940e-01  -8.51294800e-02
C     3.771767886400000e+00   5.420503908850430e+00  -3.411669000000010e-01 -2.18614256e+00  -1.15249706e+00   6.43096140e-01
C     4.960418346499999e+00   6.103350901184337e+00  -9.231510000000043e-02  1.85944189e+00   4.47099310e-01  -7.93788670e-01
C     1.352143128190000e+01   7.397508642435112e+00   3.515303100000000e+00 -4.10319910e-01   1.07745698e+00   8.56855500e-02
C     4.866524179400000e+00   8.120921741076144e+00   3.689609400000000e+00  1.19386233e+00   8.16970480e-01   2.77813200e-01
C     6.219487694100000e+00   5.412968317491935e+00  -1.097090999999999e-01  4.28295500e-02  -3.54684420e-01   1.63752120e-01
C     7.475265773699999e+00   6.130988774844534e+00  -7.270619999999894e-02 -8.54106530e-01  -2.16273804e+00   1.13252140e-01
C     6.110655774900000e+00   7.409402459352493e+00   3.895967400000000e+00 -5.69939320e-01   6.05223590e-01  -8.14999330e-01
C     7.367720732400000e+00   8.119172610169420e+00   3.942811200000000e+00 -7.38672150e-01   6.96053370e-01  -1.03464696e+00
C     8.690720298700001e+00   5.349190448216816e+00  -7.624019999999732e-02 -6.27452120e-01   2.37819242e+00  -3.87644480e-01
C     9.893982785799999e+00   6.098435249021316e+00  -1.606923000000009e-01  6.86630440e-01   9.68784000e-03  -5.04540440e-01
C     8.601705599099999e+00   7.399997422429612e+00   3.803116500000000e+00 -9.30560540e-01   7.40556570e-01  -6.42619830e-01
C     9.813214152099999e+00   8.109735722737449e+00   3.618131400000000e+00 -8.65835360e-01   3.08459870e-01   4.92691010e-01
C     1.113267171060000e+01   5.419111025460933e+00  -3.407213999999996e-01 -4.32505490e-01  -1.79394784e+00  -2.78626140e-01
C     1.234392883360000e+01   6.084939172177465e+00  -3.860397000000013e-01  1.77967813e+00   1.78419490e+00   9.23038800e-01
C     1.101254111880000e+01   7.425782416205753e+00   3.486950400000000e+00  2.14782922e+00  -7.07244680e-01  -6.78409600e-02
C     1.227836895410000e+01   8.130563223199216e+00   3.547180200000000e+00 -2.04097190e-01  -8.59908350e-01  -3.18007460e-01
