64
Lattice="9.86 0 0 4.93 8.53901048131456 0 0 0 30 " PBC="1 1 1" Properties=species:S:1:pos:R:3:force:R:3 Energy="-507.74545824"
C     5.096848405699999e+00   8.392128655200690e+00   3.143610000000000e-02 -7.00143772e+00  -4.41404794e+00  -4.16839270e-01
C     1.302637236600000e+00   5.326621075007232e-01   1.383876000000000e-01  2.36037323e+00   1.04087110e-01  -5.87684830e-01
C     1.239915213000000e+00   9.380753684878577e-01   3.400744800000000e+00 -2.25003159e+00   4.08731725e+00   1.41765600e-01
C     2.418965089700000e+00   1.664439719930988e+00   3.293368800000000e+00  2.23031547e+00  -2.35638931e+00   1.01314913e+00
C     7.436063301099999e+00   8.288568219220089e+00   9.726600000000001e-02  2.19436693e+00   8.94928020e-01  -1.06033420e-01
C     3.787814543400000e+00   4.078414140072272e-01  -9.881070000000136e-02 -3.10895669e+00   2.24428260e+00   6.49326600e-01
C     3.669328599600000e+00   1.024407838484430e+00   3.640526400000000e+00 -3.19777400e-02  -2.47370578e+00  -1.62655280e-01
C     4.880765568999999e+00   1.706257389004168e+00   3.618456300000000e+00  5.52138020e-01   8.95490150e-01   7.51292890e-01
C     9.900359888699999e+00   8.239455929664159e+00  -1.105973999999996e-01  5.18444400e-01   1.12571016e+00  -2.25514000e-03
C     6.187505009299999e+00   4.101801635875944e-01   3.630600000000000e-03  6.46203790e-01   5.42303050e-01  -9.77766740e-01
C     6.075964696000000e+00   8.817378806043807e-01   3.784179000000000e+00  6.81021790e-01   5.38385297e+00  -4.10807700e-01
C     7.296281926500000e+00   1.667907412086916e+00   3.718109100000000e+00  2.10275420e+00  -2.59092988e+00  -6.22334700e-01
C     1.233000759820000e+01   8.197480118116889e+00  -1.536764999999995e-01  2.54534697e+00   2.29979991e+00   6.36732170e-01
C     8.681281468600000e+00   4.601539539108512e-01   4.260900000000000e-03 -1.46952540e-01  -4.29094330e-01  -2.33323860e-01
C     8.569644231500000e+00   9.461262037387159e-01   3.578981100000000e+00  5.34873760e-01   2.39049763e+00   5.16121450e-01
C     9.865282149900001e+00   1.714506670858582e+00   3.369431400000000e+00 -3.72977497e+00  -2.01030028e+00   6.37571730e-01
C     1.293323234100000e+00   1.945110333980414e+00  -7.386120000000318e-02 -1.03899092e+00  -1.14266713e+00  -3.17832300e-02
C     2.490232726000000e+00   2.545657830967451e+00  -3.355557000000005e-01  1.80637409e+00   2.02395426e+00  -1.31397273e+00
C     2.387360585200000e+00   2.996502043312377e+00   3.075610500000000e+00  1.85046704e+00   4.82009426e+00   2.34821860e-01
C     3.662624292600000e+00   3.808568258828133e+00   3.146703600000000e+00  5.59195910e-01   1.41468140e+00   7.68249640e-01
C     3.753801536700000e+00   1.857124711554913e+00  -2.815148999999977e-01 -9.38018260e-01  -1.04411254e+00   1.57972890e-01
C     4.940226791999999e+00   2.590331030535248e+00  -3.356744999999997e-01  1.21731750e+00   4.36781790e-01   1.67132917e+00
C     4.886241073499999e+00   3.240833788192801e+00   3.533217900000000e+00  5.41699040e-01  -5.26531715e+00  -2.91251500e-01
C     6.171656636900000e+00   3.833161035961057e+00   3.765691200000000e+00 -2.31814313e+00  -8.07719140e-01  -1.09308224e+00
C     6.149209952500000e+00   1.876002243583468e+00   5.443949999999999e-02 -1.07695660e-01  -4.26974400e-01  -1.44604506e+00
C     7.364423301900000e+00   2.594034313990319e+00   9.849960000000001e-02  1.93369838e+00  -1.42420348e+00   4.38467700e-02
C     7.375931795300000e+00   3.047498807091138e+00   3.697401300000000e+00 -2.04497334e+00   2.11219955e+00   2.40830500e-02
C     8.527561505000000e+00   3.825565500748992e+00   3.511315500000000e+00  1.20142629e+00  -4.52502010e-01   6.55267010e-01
C     8.600358525899999e+00   1.867578509744948e+00   5.128590000000000e-02  2.46953043e+00   1.35761522e+00  -2.19556420e-01
C     9.970472080899999e+00   2.687758493018799e+00  -1.463228999999977e-01 -3.65454199e+00  -3.11679097e+00   6.46080920e-01
C     9.736223525300000e+00   3.144033516029006e+00   3.328671300000000e+00  2.90307753e+00  -2.59793348e+00  -3.47212560e-01
C     1.103886766390000e+01   3.737037394987697e+00   3.196077000000000e+00 -2.03698294e+00   1.96453214e+00  -1.61190190e-01
C     2.433418617200000e+00   3.926800764175889e+00  -7.262610000000009e-01  2.38902539e+00   3.00097393e+00   1.11754512e+00
C     3.731151539099999e+00   4.760280000102026e+00  -5.833712999999996e-01 -8.35813200e-02  -5.53632224e+00  -1.22306540e-01
C     3.776650903500000e+00   5.300137931734246e+00   3.168437700000000e+00 -5.49943205e+00  -1.99233475e+00   8.06597560e-01
C     4.893534416900000e+00   5.983269870847869e+00   3.599596200000000e+00  1.53270781e+00   3.09115750e-01  -1.32995120e-01
C     4.937795956900001e+00   4.040663260130297e+00  -3.665939999999992e-01  3.36516530e+00  -6.19131180e-01   6.10426260e-01
C     6.305241050799999e+00   4.746513151235856e+00  -6.287370000000081e-02 -4.30990003e+00   3.00818170e-01  -2.47430140e-01
C     6.128475013399999e+00   5.211017218645638e+00   3.777557100000000e+00 -3.71442570e-01   1.80506596e+00  -3.13550880e-01
C     7.346738060800000e+00   5.876936049653469e+00   3.845354700000000e+00 -8.91258970e-01   5.27281752e+00   1.03890820e+00
C     7.511039579200000e+00   3.988215547690774e+00   1.125804000000000e-01 -3.23439367e+00   8.09922810e-01  -6.10922430e-01
C     8.701003391299999e+00   4.685757323159713e+00  -1.072110000000137e-02  3.43397810e-01   2.19875296e+00  -1.10289226e+00
C     8.544457748899999e+00   5.241211074312814e+00   3.707239500000000e+00  1.20732558e+00  -7.64861240e-01  -2.57480600e-02
C     9.790754008800000e+00   5.937663101264294e+00   3.720327300000000e+00  1.41960948e+00  -1.57782991e+00  -1.21213748e+00
C     9.900402927600000e+00   4.057196577611777e+00  -3.893151000000010e-01  6.51686840e-01  -2.31545340e-01   5.87181280e-01
C     1.110918765560000e+01   4.743893041260173e+00  -7.389752999999999e-01 -3.69171730e-01  -8.56755640e-01   1.18689910e+00
C     1.095372459190000e+01   5.156078164508472e+00   3.338346300000000e+00  3.58018726e+00   2.09551660e+00   4.91185000e-03
C     1.226743653120000e+01   5.943441791216530e+00   3.245228100000000e+00  2.48927000e-02  -4.55390740e-01   8.21611320e-01
C     3.805324128600000e+00   6.066326691034210e+00  -3.643419000000030e-01 -2.32499138e+00   6.17500132e+00  -6.11034170e-01
C     4.985514856599999e+00   6.857905771045929e+00  -1.001048999999981e-01 -3.77984170e-01   2.40444489e+00   1.83707680e-01
C     4.841280952500000e+00   7.434174299535183e+00   3.701591100000000e+00  3.09186214e+00  -1.11003740e+00   5.35564990e-01
C     6.131872276399999e+00   8.200491827113185e+00   3.779672400000000e+00 -2.91868500e-01  -5.95263918e+00   2.92818240e-01
C     6.176726500999999e+00   6.229517257339376e+00   1.789470000000000e-02  3.39230781e+00  -4.22281911e+00   4.83611850e-01
C     7.454910493900000e+00   6.874397759716688e+00   1.655082000000000e-01 -1.70697879e+00   5.64538390e-01  -7.65664840e-01
C     7.362202386200000e+00   7.418381143482109e+00   3.965692200000000e+00  1.00101683e+00  -1.51315463e+00  -1.09624802e+00
C     8.680686368300000e+00   8.063611916069309e+00   3.933368100000000e+00 -3.07754395e+00   1.89209576e+00  -1.10066945e+00
C     8.627735407500001e+00   6.123144327476977e+00  -3.783209999999926e-02  1.86591356e+00   4.31295770e-01  -2.02462730e-01
C     9.848985640500000e+00   6.877140319102653e+00  -2.763510000000018e-01  1.34377877e+00  -3.29869683e+00  -2.77015890e-01
C     9.919998839500000e+00   7.348931407275859e+00   3.851967900000000e+00 -4.55499557e+00  -1.19217739e+00   1.61822740e-01
C     1.105976371540000e+01   8.062503296338692e+00   3.755380200000000e+00  1.58145803e+00  -1.33121742e+00  -3.38074390e-01
C     1.110555799240000e+01   6.174348759990611e+00  -6.174293999999989e-01  4.73868190e-01  -2.22114480e-01   7.40655630e-01
C     1.239817761690000e+01   6.822614809243033e+00  -4.889765999999973e-01 -1.06915375e+00   1.02464790e-01   9.92209420e-01
C     1.225199631350000e+01   7.326876851008114e+00   3.555496500000000e+00  1.40912558e+00   4.39501790e-01   3.14273040e-01
C     1.349107416600000e+01   8.085514221780196e+00   3.720230700000000e+00 -9.01750420e-01  -4.91095090e-01  -1.79081370e+00
