64
Lattice="9.86 0 0 4.93 8.53901048131456 0 0 0 30 " PBC="1 1 1" Properties=species:S:1:pos:R:3:force:R:3 Energy="-511.10640965"
C     5.039130874400000e+00   8.426072502710262e+00  -4.131113999999982e-01 -1.37959536e+00  -1.57864606e+00   2.91005800e-01
C     1.311542887200000e+00   5.581525908054096e-01  -4.040406000000019e-01  1.85824648e+00   2.94684537e+00  -8.88611400e-01
C     1.112421173200000e+00   8.466292266752320e-01   3.687258000000000e+00  8.67094860e-01  -1.40251707e+00  -2.27675360e-01
C     2.378145971500000e+00   1.483575109734317e+00   3.856752900000000e+00 -9.45648440e-01   4.29861190e-01  -8.21531650e-01
C     7.534122282899999e+00   8.465263401379584e+00  -5.926448999999998e-01 -2.16738628e+00  -2.37918009e+00   1.49337815e+00
C     3.833526686600000e+00   5.780428494768928e-01  -3.622298999999991e-01  5.22000000e-03   1.00170576e+00  -5.80942500e-01
C     3.574101508400000e+00   7.642771310238065e-01   3.571581300000000e+00  8.22040850e-01   3.17189999e+00   1.48778348e+00
C     4.762859196000000e+00   1.623008868032552e+00   3.655698000000000e+00  8.83282770e-01  -2.79840035e+00  -1.35349111e+00
C     9.975546727099999e+00   8.435268248486279e+00  -3.906035999999986e-01  2.36832035e+00  -2.28261239e+00   4.23232000e-03
C     6.379256471900000e+00   5.517718152242297e-01  -4.801004999999989e-01 -4.66976596e+00   1.19633037e+00   6.56196470e-01
C     5.988605441100000e+00   8.972374654771528e-01   3.442775100000000e+00  9.78797040e-01  -1.87028182e+00   1.60688107e+00
C     7.248330133600000e+00   1.521908179410819e+00   3.498238200000000e+00  1.88277909e+00   7.46298630e-01  -2.46992900e-02
C     1.246988002990000e+01   8.349611043438465e+00  -3.887709000000008e-01  4.50657450e-01   2.15980916e+00   6.15037010e-01
C     8.726039804699999e+00   6.310829984635176e-01  -3.521478000000009e-01  1.85658984e+00  -2.33172600e+00  -6.85630780e-01
C     8.570463203099999e+00   8.213476929569913e-01   3.537999900000000e+00 -3.95306414e+00   4.67792200e-01   4.86667330e-01
C     9.745092053000000e+00   1.562664705651649e+00   3.726678300000000e+00  3.78112040e-01  -9.51521240e-01  -3.43640190e-01
C     1.296303714900000e+00   2.044615252323644e+00  -2.945114999999987e-01  2.19828915e+00  -1.38112856e+00   2.07547175e+00
C     2.583038694200000e+00   2.685566785198898e+00   5.177670000000000e-02 -9.24701910e-01   4.63144460e-01  -1.85164281e+00
C     2.390995917900000e+00   2.903549022320346e+00   4.068307800000000e+00 -1.52459420e-01   2.06757664e+00  -5.92736770e-01
C     3.617325875000000e+00   3.741934432107872e+00   4.052909400000000e+00 -1.12845618e+00  -1.28287905e+00  -6.75002210e-01
C     3.859974706900000e+00   1.988424806200633e+00  -1.220013000000009e-01 -3.61430833e+00   1.49728640e-01   2.96084010e-01
C     4.985984734900000e+00   2.749948960245687e+00  -1.227315000000004e-01  5.14541773e+00  -3.03860940e+00  -1.79136482e+00
C     4.819165021800000e+00   3.022160745123520e+00   3.752116200000000e+00  9.31216700e-02   1.03601012e+00  -2.38728990e-01
C     6.070262017099999e+00   3.713066343207822e+00   3.483875700000000e+00 -8.85592440e-01  -7.66501180e-01   1.51312199e+00
C     6.319079215700000e+00   1.995808147002269e+00  -4.777466999999973e-01 -2.35545997e+00  -5.71220060e-01   1.37435744e+00
C     7.519640161400000e+00   2.671222613834174e+00  -4.622075999999993e-01  2.82340910e-01   2.50327483e+00   2.78221590e-01
C     7.265728448699999e+00   2.936326526388455e+00   3.542712300000000e+00  1.20149136e+00   1.89487768e+00  -5.70746350e-01
C     8.531119140900000e+00   3.695292222113492e+00   3.641683800000000e+00 -1.80733649e+00  -3.18076400e-02   2.44615500e-01
C     8.758254791100001e+00   2.039104345740061e+00  -3.794505000000008e-01 -3.85962920e-01  -1.09056127e+00  -6.24722500e-02
C     9.959317660100000e+00   2.776913789099850e+00  -2.122506000000008e-01  5.21071660e-01  -9.68428550e-01  -5.50565340e-01
C     9.733718789499999e+00   2.972432195181249e+00   3.840161700000000e+00  7.95277410e-01   6.26007570e-01  -6.53720460e-01
C     1.099915010490000e+01   3.642360603950068e+00   3.949641000000001e+00  6.52991800e-02   4.58427330e-01   9.15719680e-01
C     2.580674562000000e+00   4.132792437391218e+00   1.377762000000000e-01  7.17511060e-01   5.16290670e-01   8.33041940e-01
C     3.867385384300000e+00   4.842481467608585e+00   6.015780000000000e-02 -2.27709133e+00   9.67670170e-01   3.80094700e-01
C     3.562802244200000e+00   5.175792263393753e+00   4.006441800000000e+00  1.95199375e+00  -1.83360280e+00  -9.71990750e-01
C     4.870916168499999e+00   5.824975231591516e+00   3.639307500000000e+00 -4.67342447e+00   1.73016025e+00   3.49007200e-01
C     5.076219510900000e+00   4.116442367074638e+00  -9.713129999999737e-02  5.46882200e-02   2.01654325e+00  -2.43979400e-02
C     6.325466523699999e+00   4.814105311102288e+00  -3.200378999999991e-01 -9.48887110e-01   5.89981370e-01   1.80478300e-01
C     6.063478041300000e+00   5.157577273188340e+00   3.482032500000000e+00 -2.03823047e+00  -3.50339842e+00   1.43168430e-01
C     7.206266880599999e+00   5.843675579152611e+00   3.393613200000000e+00  4.88674109e+00   5.82325000e-03   3.88296480e-01
C     7.558891194499999e+00   4.102085557974404e+00  -4.248300000000000e-01 -1.34256515e+00   5.62384790e-01   1.92672130e-01
C     8.779690036700000e+00   4.833497574682577e+00  -3.505158000000002e-01 -2.19355074e+00   1.03313461e+00  -1.77705010e-01
C     8.472846294400000e+00   5.146886346677276e+00   3.599274000000000e+00  4.03675840e-01  -1.69792902e+00  -9.36952300e-01
C     9.736390060700000e+00   5.785415533059563e+00   3.636991500000000e+00  6.72506730e-01   1.38435620e+00   9.12688710e-01
C     9.962358188300000e+00   4.185081665796231e+00  -1.102799999999995e-01  2.56568981e+00  -5.60220800e-02   1.14497673e+00
C     1.119628399360000e+01   4.916241525524930e+00   2.305833000000000e-01 -1.82011250e-01  -2.50345279e+00  -2.12851061e+00
C     1.097346248780000e+01   5.108864694712978e+00   3.941375100000000e+00 -1.86729087e+00  -2.44569464e+00  -6.66962380e-01
C     1.214977084080000e+01   5.803122110580995e+00   3.987292800000000e+00  3.04046516e+00   3.07395163e+00  -1.18694340e+00
C     3.788551233300000e+00   6.310829045344023e+00  -1.416449999999969e-02  5.96323110e-01  -2.51928147e+00  -8.64965750e-01
C     4.998336800600000e+00   6.943280334846857e+00  -3.768837000000005e-01 -6.34757940e-01   2.69754433e+00   1.27280423e+00
C     4.776842253600000e+00   7.258528988714203e+00   3.463447200000000e+00  2.18562247e+00  -1.66292367e+00   1.06914189e+00
C     6.059828510200000e+00   7.928289008196357e+00   3.437830500000000e+00 -2.09615477e+00   2.61963736e+00   3.67853330e-01
C     6.210382181300000e+00   6.269878000444459e+00  -3.833379000000008e-01  2.26446925e+00  -1.18315279e+00  -1.21646292e+00
C     7.430188762399999e+00   6.996901734276854e+00  -6.077774999999974e-01  2.67931234e+00  -3.24940900e-02   8.60333920e-01
C     7.256298098199999e+00   7.223624929476155e+00   3.386107200000000e+00  1.92534200e+00   1.47635680e+00  -2.22203400e-02
C     8.561905955600000e+00   7.927106013684457e+00   3.434234100000000e+00 -1.08932142e+00  -1.34683527e+00   2.49202680e-01
C     8.716409986399999e+00   6.239960125595997e+00  -4.641891000000022e-01  6.47997200e-02   1.95805356e+00   7.00222780e-01
C     9.975367965299998e+00   6.964766107626526e+00  -2.592986999999987e-01 -2.04413383e+00   1.75046130e+00  -6.99191360e-01
C     9.816200450300000e+00   7.226324366859198e+00   3.557875800000000e+00 -1.93938783e+00  -4.12233510e-01  -1.74943740e-01
C     1.100643989870000e+01   7.971008396776225e+00   3.633105600000000e+00 -7.63687670e-01   7.69848970e-01  -1.31458716e+00
C     1.118082454890000e+01   6.316713960586630e+00   6.020610000000000e-02  2.40173700e-02  -7.61858450e-01  -3.81038760e-01
C     1.240598954700000e+01   6.986009884849195e+00  -6.534600000000168e-02  1.44652238e+00   1.76704250e-01  -6.05604200e-02
C     1.223153863760000e+01   7.250075709899422e+00   3.681182400000000e+00 -2.95092146e+00  -1.20539688e+00   1.21082612e+00
C     1.340386922010000e+01   7.936708387139532e+00   3.599340600000000e+00  3.19403008e+00   1.23854676e+00  -8.49709470e-01
