64
Lattice="9.86 0 0 4.93 8.53901048131456 0 0 0 30 " PBC="1 1 1" Properties=species:S:1:pos:R:3:force:R:3 Energy="-505.17651783"
C     4.950173510699999e+00   8.224632890591717e+00  -1.622769000000019e-01  4.40640402e+00   1.95972142e+00  -1.07148776e+00
C     1.367770178100000e+00   4.923652361940312e-01  -2.923667999999999e-01 -2.67658389e+00  -1.69008587e+00   2.76497979e+00
C     1.147297718700000e+00   1.113302438575527e+00   3.326940300000000e+00  5.99957890e-01  -4.65657416e+00  -1.10173401e+00
C     2.424763903600000e+00   1.714981183670955e+00   3.623584800000000e+00 -2.21360086e+00   1.65374125e+00   9.04386100e-02
C     7.499571856899999e+00   8.290520749356446e+00  -2.600841000000003e-01 -7.10263740e-01  -5.64613590e-01  -1.32595769e+00
C     3.756216891600000e+00   4.767908495894544e-01  -1.531362000000023e-01  1.32685960e+00  -1.98955176e+00  -9.49149800e-02
C     3.632569681500000e+00   1.026509886694292e+00   3.385461300000000e+00 -6.33966040e-01  -2.70168358e+00  -6.42009240e-01
C     4.854071393800000e+00   1.664788196948677e+00   3.282032700000000e+00  1.73502974e+00   2.15467870e-01   3.58741180e-01
C     9.940409778999999e+00   8.146105673904598e+00  -2.369130000000013e-01 -3.98964970e-01   5.65732766e+00   1.61587140e+00
C     6.159140747299999e+00   3.879360412871944e-01  -9.336629999999957e-02  4.01128161e+00   1.71876862e+00  -9.08738430e-01
C     6.142525020399999e+00   1.033546458280336e+00   3.064643700000000e+00 -2.63402588e+00  -4.14646062e+00   5.63522900e-01
C     7.351042986100000e+00   1.684721748403293e+00   3.144039000000000e+00 -1.32881594e+00   2.01660766e+00  -1.30929030e-01
C     1.244124096970000e+01   8.270544759019742e+00  -7.763070000000027e-02 -3.21895157e+00  -7.63863280e-01   1.70659530e-01
C     8.723025257600000e+00   4.057683130428928e-01  -2.956293000000016e-01 -1.81577807e+00   1.65362069e+00   1.09357038e+00
C     8.533656217499999e+00   9.799137019663992e-01   3.342841500000000e+00  5.95968090e-01  -7.57711280e-01  -2.15394884e+00
C     9.723066784999999e+00   1.698470153006827e+00   3.272376300000000e+00  3.28263772e+00   1.89163265e+00   3.15511656e+00
C     1.292601876500000e+00   1.812238549065745e+00   2.620854000000000e-01 -1.14865900e-02   1.11947264e+00  -3.01684222e+00
C     2.507821141900000e+00   2.615155044071971e+00   2.959740000000000e-01  6.01835170e-01  -9.21821920e-01   1.85734219e+00
C     2.379962824400000e+00   3.126101167070481e+00   4.018153200000000e+00  4.64364530e-01  -1.03326208e+00  -9.49842570e-01
C     3.672716249100000e+00   3.813674843265487e+00   3.921166500000000e+00 -2.02229083e+00  -2.38797010e-01  -1.25151500e-01
C     3.740298611800000e+00   1.897474012385952e+00   1.105467000000000e-01 -5.68389810e-01  -1.47940183e+00  -3.13154620e-01
C     4.951826539699999e+00   2.568984955967029e+00   1.085139000000000e-01  3.00760561e+00   1.03480282e+00  -3.24308990e-01
C     4.855568339000000e+00   3.023241783850288e+00   3.514408500000000e+00 -2.48057100e-02   4.16317502e+00   5.32703860e-01
C     6.052982317800000e+00   3.771106765951325e+00   3.304144500000000e+00  1.72000740e+00   2.88902617e+00  -1.78776960e+00
C     6.222676615300000e+00   1.861142486765963e+00  -7.503150000000147e-02 -1.03376257e+00  -6.47866730e-01  -1.02434785e+00
C     7.469252159700000e+00   2.613315228873950e+00  -2.778132000000006e-01 -1.67965452e+00  -1.35588360e+00   7.18806740e-01
C     7.301010092299999e+00   3.127156674155914e+00   3.038696400000000e+00  1.39701870e+00  -4.60261040e-01   2.79862954e+00
C     8.578945563900000e+00   3.840391528475102e+00   3.371500800000000e+00 -2.12446564e+00  -1.19984000e-03  -1.78603767e+00
C     8.733042031600000e+00   1.881055715375637e+00  -3.122834999999995e-01 -2.43241621e+00  -1.34831691e+00   9.19658760e-01
C     9.860564238500000e+00   2.497522318820329e+00   1.338033000000000e-01  3.01337766e+00   2.19825255e+00  -9.77901800e-02
C     9.758794741499999e+00   3.094224101657489e+00   3.675377400000000e+00 -1.03443063e+00   5.36422940e-01  -1.08590865e+00
C     1.093261162040000e+01   3.803403523729409e+00   4.047726600000001e+00  2.60202502e+00   9.82208390e-01  -1.97628546e+00
C     2.606423853400000e+00   4.004464089172747e+00   7.168752000000000e-01 -2.23869117e+00  -7.56822200e-01  -2.08998760e+00
C     3.871597527000000e+00   4.700595476280704e+00   6.423501000000000e-01 -3.40800608e+00   1.79720715e+00  -1.75651010e+00
C     3.565728593600000e+00   5.237060517488800e+00   3.923292900000000e+00  3.51097081e+00   2.17084995e+00  -3.26095147e+00
C     4.851825039300000e+00   5.996002389374598e+00   3.312846000000000e+00 -1.84576800e-02  -2.94728019e+00   1.95110770e+00
C     4.991497313000000e+00   4.013226650947114e+00   1.912185000000000e-01 -3.92302690e-01  -1.06732627e+00   3.78216950e-01
C     6.139963786799999e+00   4.712146537317419e+00  -1.755122999999976e-01  2.51484412e+00   1.17135756e+00  -4.44139680e-01
C     6.117706956699999e+00   5.340593201685341e+00   3.126098700000000e+00 -1.22374760e+00  -2.84392643e+00   7.27048560e-01
C     7.353262915800000e+00   6.073109227058474e+00   2.891404500000000e+00  2.61500570e-01  -4.62350512e+00   1.12048282e+00
C     7.352421660599999e+00   4.038459597695724e+00  -2.235335999999997e-01  4.94676042e+00  -2.39770820e+00   5.03842940e-01
C     8.730544592199999e+00   4.654300547842546e+00   2.189760000000000e-02 -4.16983219e+00   3.62445636e+00  -1.52735155e+00
C     8.603289361600000e+00   5.237117045738177e+00   3.126552600000000e+00 -1.31537651e+00   9.86012540e-01   1.54224120e+00
C     9.802929334000000e+00   5.932088664442740e+00   3.441292200000000e+00 -1.09331081e+00   3.04807830e-01  -1.06680536e+00
C     9.892057472899999e+00   3.961029643855284e+00   2.206470000000000e-01  1.92602303e+00  -1.34295028e+00   9.88301850e-01
C     1.115014649000000e+01   4.691621147046433e+00   5.160567000000000e-01  6.91995800e-01  -1.99812959e+00   4.67772330e-01
C     1.101368897070000e+01   5.263526582740827e+00   3.771622799999999e+00 -1.57594338e+00  -7.90871500e-01   8.34725170e-01
C     1.220296672400000e+01   6.029660009252879e+00   3.751617000000000e+00  1.47687038e+00  -4.08799952e+00   1.30806878e+00
C     3.739637597400000e+00   6.156356040227993e+00   3.756714000000000e-01  3.80565052e+00  -4.26556000e-01  -2.14789280e-01
C     5.040651089200000e+00   6.867566807503001e+00   6.221640000000001e-02 -5.58384970e-01  -2.35161277e+00  -1.85972243e+00
C     4.948588663599999e+00   7.358368123927621e+00   3.190821900000000e+00 -3.74233051e+00   3.46385711e+00   2.46610000e-02
C     6.121194438700000e+00   8.100636211609542e+00   2.992944000000000e+00 -5.83761270e-01   3.44697834e+00   1.24436602e+00
C     6.325075131000000e+00   6.106976991984669e+00  -3.832695000000008e-01 -5.07027089e+00   1.12326814e+00   3.11665005e+00
C     7.523560053700000e+00   6.813167760388590e+00  -4.355699999999985e-01  4.93010040e-01   1.71055101e+00   1.42379714e+00
C     7.354797476900000e+00   7.462261837487257e+00   2.889232500000000e+00 -1.07814539e+00  -2.91936700e-01   7.99626030e-01
C     8.523393929499999e+00   8.138048178225565e+00   3.143591100000000e+00  2.35174619e+00   2.93009260e-01  -6.41700600e-02
C     8.714684930099999e+00   6.163651856172210e+00  -6.732239999999834e-02  2.05068763e+00  -3.05453070e+00  -8.36401490e-01
C     1.002454111640000e+01   6.814265620966004e+00   5.850000000000000e-03 -3.79398155e+00  -2.97421650e+00   2.81484900e-01
C     9.728534549399999e+00   7.333523702155851e+00   3.238313400000000e+00  2.50215378e+00   2.69670731e+00  -5.03335550e-01
C     1.102371836550000e+01   8.047562333531522e+00   3.113744400000000e+00 -1.03174982e+00   1.67242843e+00   2.06660678e+00
C     1.115615675160000e+01   6.055524671996800e+00   3.910359000000000e-01  1.07895165e+00   3.82053166e+00  -1.36789629e+00
C     1.239509764870000e+01   6.868998884950602e+00   2.589156000000000e-01  2.84942770e-01  -1.25065288e+00   4.17207970e-01
C     1.222471142570000e+01   7.369354500201293e+00   3.470771400000000e+00  1.51991107e+00   3.02638907e+00  -2.01413473e+00
C     1.351238818290000e+01   8.135330723530410e+00   3.290842200000000e+00 -3.17143010e-01  -3.02103740e+00   1.09593731e+00
