64
Lattice="9.86 0 0 4.93 8.53901048131456 0 0 0 30 " PBC="1 1 1" Properties=species:S:1:pos:R:3:force:R:3 Energy="-508.2318722"
C     5.037822255199999e+00   8.332142191968794e+00   1.737762000000000e-01 -3.09405177e+00  -7.46287410e-01  -1.42745248e+00
C     1.250224483900000e+00   5.355031216775240e-01  -1.314600000000610e-03  4.48284230e+00  -1.93475960e-01   1.60486128e+00
C     1.212527238900000e+00   8.360493073004072e-01   3.499694100000000e+00 -1.39706625e+00   3.43482564e+00  -2.22195700e-01
C     2.386757153200000e+00   1.678365394392086e+00   3.285112200000000e+00 -4.16459760e-01  -1.48710642e+00   8.92613000e-03
C     7.477547969300000e+00   8.389645510953107e+00   3.042495000000000e-01 -5.38440520e-01  -1.90798528e+00  -2.07426740e+00
C     3.775999699800000e+00   5.217441287009952e-01   1.499886000000000e-01  1.05282030e+00  -8.70703100e-01  -9.32293840e-01
C     3.568560977200000e+00   9.403412803088304e-01   3.530849100000000e+00  2.40334680e+00   7.99995600e-02   1.22804890e+00
C     4.840785487500000e+00   1.630449334814300e+00   3.634545600000000e+00 -5.84900330e-01   2.66634560e-01  -1.85685372e+00
C     9.986607477900000e+00   8.298674138123168e+00   1.153890000000000e-02 -1.90447696e+00   1.29001030e+00   1.40071444e+00
C     6.250186212499999e+00   5.036725938716472e-01   9.079050000000001e-02  1.44727381e+00  -3.41987115e+00  -7.02722460e-01
C     6.077956021599999e+00   8.491289366031471e-01   3.686913600000000e+00 -1.07328844e+00   3.57675053e+00   9.57083550e-01
C     7.279349299200000e+00   1.618323000641547e+00   3.787377300000000e+00  7.80207080e-01   1.49305550e+00  -1.01895131e+00
C     1.240365543850000e+01   8.220618360204650e+00   8.524799999999999e-03  1.15814715e+00   4.20341549e+00  -6.02208690e-01
C     8.710192073200000e+00   4.895496682684608e-01   3.703650000000000e-02  5.82792970e-01  -3.36607820e-01   1.19683819e+00
C     8.542635226500000e+00   1.001116235768449e+00   3.772052100000000e+00  3.00528540e-01  -2.52233135e+00  -1.05945741e+00
C     9.832577811699998e+00   1.568823979300978e+00   3.443568000000000e+00 -1.80214995e+00   2.74646245e+00   1.14866628e+00
C     1.323356991300000e+00   1.955564302950658e+00  -2.901053999999981e-01  5.28201660e-01  -1.08696645e+00   6.71586770e-01
C     2.555685476600000e+00   2.641390556041037e+00  -5.234915999999998e-01  1.37390254e+00  -9.18655680e-01   7.25748580e-01
C     2.369625994800000e+00   3.094154850282496e+00   2.921537700000000e+00  1.84505560e-01  -1.69675589e+00   9.66156150e-01
C     3.637501801400000e+00   3.778094409007319e+00   2.995246200000000e+00 -4.61689870e-01   3.03970660e-01   1.26739994e+00
C     3.806376979400000e+00   1.898213319913310e+00  -1.923917999999993e-01 -3.43184750e-01   1.32483448e+00  -4.19578250e-01
C     5.062123556300000e+00   2.588085185388903e+00  -1.685657999999997e-01 -2.42966760e-01   5.98258420e-01   1.61584200e-01
C     4.809986890099999e+00   3.076401308203423e+00   3.366853200000000e+00  2.00605733e+00  -4.35136620e-01   1.22798933e+00
C     6.045169894700000e+00   3.858140032537991e+00   3.679685100000000e+00 -7.95747580e-01  -2.85926847e+00  -1.43721063e+00
C     6.332586084600000e+00   1.884413595856792e+00   1.000530000000000e-01 -2.46100962e+00   1.70135258e+00  -3.99105910e-01
C     7.524978661199999e+00   2.616648431614817e+00   1.552659000000000e-01  8.46748030e-01   1.67074231e+00  -2.12152180e-01
C     7.302878266500000e+00   3.076283128298380e+00   3.691883700000000e+00 -3.94964085e+00  -9.97718740e-01   1.11596658e+00
C     8.454000925700001e+00   3.760878824588485e+00   3.642615900000000e+00  6.10365749e+00   1.87549970e-01  -1.53082745e+00
C     8.789597512600000e+00   1.949481026494601e+00   9.881160000000000e-02 -2.37968979e+00  -2.16372947e+00   7.22256200e-02
C     9.990780476399999e+00   2.648657595519936e+00  -1.004627999999990e-01 -1.49894426e+00   8.71911490e-01  -1.49746728e+00
C     9.772127384199999e+00   3.049697516899633e+00   3.326128500000000e+00 -9.86501980e-01  -1.29740881e+00   1.23385290e-01
C     1.096126985830000e+01   3.765749646946487e+00   2.945180700000000e+00 -4.50552020e-01  -5.51955640e-01   6.14695150e-01
C     2.569202452000000e+00   4.054767399910427e+00  -8.130044999999981e-01 -3.09982480e-01   1.67370280e-01   8.29670230e-01
C     3.808992393700000e+00   4.804476210544411e+00  -6.908645999999976e-01  1.30108509e+00  -2.38026491e+00   1.43103724e+00
C     3.640467245700000e+00   5.215011511577868e+00   3.174187200000000e+00 -6.15653130e-01   5.21801710e-01  -1.00138309e+00
C     4.808729247099999e+00   5.989227880020184e+00   3.469723200000000e+00  6.25120280e-01  -4.91853260e-01   1.18997518e+00
C     5.034732574900000e+00   4.039659243278058e+00  -2.969535000000008e-01 -3.00595342e+00  -2.20261220e+00  -1.24171522e+00
C     6.199362546700000e+00   4.664184708643460e+00  -4.785599999999945e-02  1.79573641e+00   5.30719126e+00   1.27281395e+00
C     6.036330158200000e+00   5.242427285575481e+00   3.696925800000000e+00  2.25068451e+00   1.31216548e+00   5.16957080e-01
C     7.418051398199999e+00   5.885406918829839e+00   3.941292900000000e+00 -5.20701055e+00   2.57390396e+00  -6.03021820e-01
C     7.452557306299999e+00   4.091274487585886e+00   1.424766000000000e-01  1.78881110e-01  -3.78329376e+00  -8.17081240e-01
C     8.646579790200001e+00   4.780108521727739e+00  -4.838339999999874e-02  2.35327557e+00  -3.92134000e-01   1.11146370e-01
C     8.583114618400000e+00   5.194902227287573e+00   3.721268400000000e+00 -1.28905046e+00  -1.54414244e+00  -4.64659600e-02
C     9.751748341799999e+00   5.894588575238563e+00   3.482320200000000e+00  2.53548374e+00   3.37464450e-01  -5.76804090e-01
C     9.850036864400000e+00   4.030963712735960e+00  -3.637268999999996e-01  3.04623807e+00   1.60638323e+00   1.19747000e-02
C     1.117422283520000e+01   4.751733048342279e+00  -7.525529999999989e-01 -3.04315546e+00   8.07787280e-01   2.36601630e+00
C     1.093214829900000e+01   5.163106197084035e+00   2.945563500000000e+00  1.03080544e+00   3.32761649e+00   2.47670481e+00
C     1.224314168840000e+01   5.907736772795458e+00   3.083982300000000e+00 -9.63608250e-01   2.61797380e-01   2.87547170e-01
C     3.841995785700000e+00   6.180564903449737e+00  -4.551659999999984e-01 -9.78417120e-01   1.30506706e+00   1.07268137e+00
C     4.983314597600000e+00   6.869826742016638e+00   9.794699999999999e-02  1.93946457e+00  -2.56148800e-02  -1.46012807e+00
C     4.766174571699999e+00   7.433536947792955e+00   3.721739700000000e+00  2.86264690e+00  -3.95357091e+00  -2.93534170e-01
C     6.064132893200000e+00   8.031965233159067e+00   3.871977900000000e+00  8.00170110e-01   4.22240380e-01  -9.67669640e-01
C     6.202747583300000e+00   6.139430782165481e+00   1.166562000000000e-01  2.31316513e+00   6.00801180e-01   2.37884680e-01
C     7.584676031199999e+00   6.899691248049599e+00   2.578908000000000e-01 -5.31260341e+00   9.98381780e-01   3.02359120e-01
C     7.326561197699999e+00   7.371350579291098e+00   3.968605800000000e+00 -3.51329130e-01  -3.41289212e+00  -1.72137970e-01
C     8.532482778900000e+00   8.046387024129054e+00   3.865753200000000e+00  2.43993700e-01   1.78275561e+00  -8.77107400e-01
C     8.751231463800000e+00   6.180730987203573e+00   1.124946000000000e-01  1.64433350e-01   1.35561380e-01  -8.85670950e-01
C     9.989469786599999e+00   6.866982397625750e+00  -7.244219999999757e-02 -1.89797281e+00   1.55010321e+00   2.40792740e-01
C     9.779692074800000e+00   7.331404832095344e+00   3.760651800000000e+00 -1.88785016e+00  -1.89513091e+00  -1.12449624e+00
C     1.095508571560000e+01   8.013471615041693e+00   3.630215400000000e+00  3.37327120e+00  -8.79475270e-01  -7.22837580e-01
C     1.110760078720000e+01   6.201321615514626e+00  -4.483713000000016e-01  5.45688113e+00  -2.18795935e+00  -1.58430311e+00
C     1.246961129560000e+01   6.905924554919790e+00  -4.202805000000005e-01 -3.06047298e+00  -1.44593470e+00   6.79859890e-01
C     1.224611832380000e+01   7.319003114834612e+00   3.396726000000000e+00 -1.48235893e+00   2.42180400e-02   8.75956790e-01
C     1.343825626590000e+01   8.076514531684799e+00   3.688257900000000e+00 -1.68745182e+00   1.27816278e+00  -6.58575890e-01
