64
Lattice="9.86 0 0 4.93 8.53901048131456 0 0 0 30 " PBC="1 1 1" Properties=species:S:1:pos:R:3:force:R:3 Energy="-510.28195234"
C     5.000256591899999e+00   8.465877868573726e+00  -1.781115000000000e-01  2.85152650e+00   2.73209170e-01   4.45577460e-01
C     1.345168543800000e+00   6.508594321253024e-01  -7.581959999999910e-02  2.91274550e-01  -8.81404310e-01  -1.97197130e+00
C     1.051108045000000e+00   7.130625370877008e-01   3.553083000000000e+00 -8.53655000e-02   2.78895348e+00  -2.53825130e-01
C     2.256395332400000e+00   1.452383897643079e+00   3.559112700000000e+00  2.08027700e+00  -2.69570503e+00   7.44805640e-01
C     7.489943764100000e+00   8.505515955221886e+00  -2.590115999999973e-01  1.17274124e+00  -1.72291952e+00   7.41883950e-01
C     3.831942332500000e+00   7.116210667285719e-01  -2.616863999999985e-01 -7.57053420e-01  -5.47856230e-01   7.53028550e-01
C     3.487681960799999e+00   6.906952822561792e-01   3.749290800000000e+00  1.58879319e+00   2.26332541e+00  -1.07172125e+00
C     4.782937015400000e+00   1.469151952522654e+00   3.673531800000000e+00 -6.62801190e-01  -2.48259445e+00   1.06518162e+00
C     5.111856607500000e+00   2.218136057337200e-02  -1.403375999999987e-01 -2.33518861e+00  -1.09989707e+00  -2.41588746e+00
C     6.297291080699999e+00   6.952323146945176e-01  -3.687359999999984e-01  2.39743968e+00   1.11814375e+00   1.98868769e+00
C     6.068563434900000e+00   7.304968909550311e-01   3.726878100000000e+00 -2.20628471e+00   2.57874726e+00  -4.72279550e-01
C     7.278660676800000e+00   1.523439565550302e+00   3.672465300000000e+00 -4.63191380e-01  -2.38548425e+00  -4.02913000e-02
C     7.562858365499999e+00   1.211540423933840e-02  -2.751516000000009e-01 -2.07541283e+00  -3.20217086e+00  -1.65911800e-02
C     8.771354787099998e+00   6.320875276563848e-01  -7.558709999999991e-02 -9.47955780e-01   3.83713568e+00  -1.30298359e+00
C     8.460742257000000e+00   7.053309754386896e-01   3.569959500000000e+00  2.03558240e+00   1.92703824e+00   1.14616791e+00
C     9.723341583199998e+00   1.485741029742570e+00   3.609164400000000e+00 -1.35633438e+00  -1.13521692e+00  -1.50283810e+00
C     1.434466570500000e+00   2.040875507293823e+00  -2.451645000000013e-01 -3.61206545e+00   2.96566344e+00   5.07794870e-01
C     2.559844720400000e+00   2.845481957864146e+00  -2.912625000000020e-01  3.56696121e+00  -2.04934460e-01  -6.09794780e-01
C     2.311250949400000e+00   2.829885455222426e+00   3.526546200000000e+00 -7.03307180e-01   2.30865489e+00   1.84524940e-01
C     3.500823418100000e+00   3.541615308944513e+00   3.706587300000000e+00  2.48030427e+00   1.78471503e+00  -8.45328640e-01
C     3.835245629699999e+00   2.132028248706356e+00  -2.744970000000002e-01  8.21463340e-01  -1.78596000e-03   5.31974780e-01
C     5.176555068100000e+00   2.794041336320634e+00  -1.974528000000007e-01 -6.15289179e+00   2.46838030e+00  -8.16508580e-01
C     4.741407977200000e+00   2.871815412283418e+00   3.706512300000000e+00  2.14762158e+00  -6.37802500e-02  -1.03383617e+00
C     6.055903392099999e+00   3.610008001043444e+00   3.553189800000000e+00 -2.97325418e+00  -9.52331690e-01   2.55914111e+00
C     6.331390263799999e+00   2.128263142815410e+00  -2.444465999999998e-01  2.29241753e+00  -1.64305608e+00  -3.57326370e-01
C     7.579757863199999e+00   2.859022949903120e+00  -2.184854999999999e-01 -2.39795400e-02  -7.11540196e+00   2.78449680e-01
C     7.274688279999999e+00   2.977682918115506e+00   3.716490000000000e+00  1.07682196e+00  -3.77364263e+00  -1.82911024e+00
C     8.533279565499999e+00   3.604007296818728e+00   3.578581500000000e+00 -6.61971040e-01   1.91706102e+00   1.54299654e+00
C     8.791291707099999e+00   2.100808089369590e+00  -1.545564000000006e-01  1.03830648e+00   1.76418250e-01  -1.71331500e-01
C     1.002744878110000e+01   2.841535141830184e+00  -2.786238000000019e-01 -4.60053530e-01  -2.44058546e+00   1.81396991e+00
C     9.764790459599999e+00   2.946096947569776e+00   3.491693700000000e+00 -5.29801590e-01  -2.44018566e+00   3.37853070e-01
C     1.099357121830000e+01   3.624271905709656e+00   3.429133200000000e+00 -7.18052740e-01   1.51746524e+00   1.47954102e+00
C     2.581419238500000e+00   4.307313331312191e+00  -4.183349999999990e-01  5.41683000e-02  -2.43620691e+00   1.01866666e+00
C     3.811243628900000e+00   4.998891376471793e+00  -3.788657999999998e-01  1.18663167e+00  -2.31032121e+00   9.55253320e-01
C     3.639183029999999e+00   5.009936842697987e+00   3.654794400000000e+00 -5.28301110e+00  -2.24989219e+00   4.49836510e-01
C     4.801353030400000e+00   5.657050040145505e+00   3.783037500000000e+00  2.75051872e+00   2.99380580e+00  -1.17915937e+00
C     5.077811457199999e+00   4.241653549517384e+00  -2.698746000000014e-01 -1.16370420e-01  -2.02837410e-01  -6.10784080e-01
C     6.317610470100000e+00   4.916229314739943e+00  -3.414770999999988e-01 -1.99998210e-01  -2.84491580e-01   1.35831503e+00
C     6.024324622200000e+00   4.976633677144730e+00   3.751409700000000e+00  7.51679300e-01   2.01652160e-01  -7.28497470e-01
C     7.264992892700000e+00   5.661825823316864e+00   3.765021900000000e+00 -1.27877697e+00   1.70500072e+00   4.27224580e-01
C     7.583611989300000e+00   4.145953358073728e+00  -2.466374999999985e-01 -1.17276294e+00   8.57745001e+00  -1.23547120e-01
C     8.776473458200000e+00   4.959706455109806e+00  -1.767117000000020e-01 -3.68946250e-01  -3.53733460e-01  -3.32468550e-01
C     8.503524451899999e+00   5.021320795299609e+00   3.802943700000000e+00  5.65240990e-01  -9.91781760e-01  -1.95026576e+00
C     9.696472294399999e+00   5.758166440546520e+00   3.677076600000000e+00  2.11839630e+00  -3.11921890e-01   8.02060670e-01
C     9.990090079200000e+00   4.252755287822642e+00  -1.181985000000019e-01  8.47474030e-01  -3.34849910e-01  -1.81550043e+00
C     1.120662807030000e+01   4.953371448624799e+00  -3.111081000000020e-01  2.79427720e-01   1.19134857e+00  -9.18398400e-02
C     1.098368277220000e+01   5.110244598806547e+00   3.646425600000000e+00  3.59817450e-01  -3.34846973e+00  -1.62983761e+00
C     1.225539288630000e+01   5.754732819042407e+00   3.618756300000000e+00 -1.67295644e+00   5.04152130e-01   4.71370280e-01
C     3.808370523500000e+00   6.402401222951334e+00  -2.246604000000012e-01  2.14666730e-01  -3.15706273e+00  -1.57721183e+00
C     4.951458860300000e+00   7.079762157222154e+00  -3.633266999999982e-01  6.23635726e+00   3.14015890e-01   2.21164800e+00
C     4.820739368000000e+00   7.104404289835653e+00   3.612538800000000e+00 -1.58038767e+00  -4.88314030e-01   5.58989920e-01
C     5.986976766300000e+00   7.885512749806692e+00   3.524810100000000e+00  1.45852455e+00  -4.25341509e+00   1.42412032e+00
C     6.271636839699999e+00   6.334651859901966e+00  -2.291526000000026e-01 -2.30002915e+00  -4.38990620e-01  -1.83119139e+00
C     7.465278875499999e+00   6.988601559919980e+00  -2.865636000000009e-01  1.94340449e+00   4.90979138e+00   3.25887620e-01
C     7.211241398499999e+00   7.072791079846493e+00   3.726121800000000e+00  1.06318867e+00   2.45662775e+00  -4.42151710e-01
C     8.467199571000000e+00   7.815359911477518e+00   3.791448300000000e+00 -1.14539682e+00   2.33377600e-01  -4.31692290e-01
C     8.734680714300000e+00   6.392124865399072e+00  -2.891288999999979e-01  1.52492554e+00  -8.27955380e-01   6.09526180e-01
C     1.000871014690000e+01   7.148224698426812e+00  -2.819175000000023e-01 -2.00648960e-01  -2.01193515e+00   2.67778070e-01
C     9.725997768599999e+00   7.154943960383419e+00   3.738351900000000e+00 -1.23941468e+00   2.26840910e-01   2.93036220e-01
C     1.094140570510000e+01   7.856454667923462e+00   3.726534900000000e+00  7.60488030e-01   1.29073327e+00  -1.71566820e-01
C     1.125100940930000e+01   6.363813434592213e+00  -3.788213999999996e-01 -1.27329174e+00   1.74556594e+00   1.04479823e+00
C     1.251027847120000e+01   7.057475766819879e+00  -3.021171000000002e-01 -4.73406852e+00   3.61471960e+00  -9.59964000e-02
C     1.217275238090000e+01   7.201512905667880e+00   3.672253200000000e+00  8.70318150e-01  -3.97493509e+00  -2.99685000e-03
C     1.342663048780000e+01   7.758608793926390e+00   3.642082800000000e+00  4.44866300e-01   4.85455649e+00  -5.96420960e-01
