64
Lattice="9.86 0 0 4.93 8.53901048131456 0 0 0 30 " PBC="1 1 1" Properties=species:S:1:pos:R:3:force:R:3 Energy="-514.01045003"
C     1.560705383000000e-01   4.228150812245360e-02  -1.437854999999999e-01 -3.26769980e-01   1.04226790e-01   1.00405530e-01
C     1.368893478600000e+00   7.483023502178223e-01  -1.209887999999992e-01  1.14295864e+00   8.40972950e-01  -2.53832750e-01
C     1.051677854400000e+00   6.425164773259231e-01   3.718902300000000e+00  6.97302160e-01  -3.46561170e-01  -2.92817930e-01
C     2.261881387100000e+00   1.360170184178406e+00   3.568260900000000e+00  1.25724627e+00   1.00164824e+00   4.86528760e-01
C     7.563216234200000e+00   8.534557556814891e+00  -6.045599999999851e-02 -7.79809040e-01   6.20715551e+00  -3.62919560e-01
C     3.861519571700000e+00   7.743655449554024e-01  -8.240070000000088e-02  1.01369300e-02   6.70405200e-02   4.10087150e-01
C     3.531117577900000e+00   6.553563312143849e-01   3.519705300000000e+00 -1.23655534e+00   2.06320493e+00  -8.81686930e-01
C     4.790214927900000e+00   1.313935711934446e+00   3.343681200000000e+00 -3.33717720e-01   9.84293000e-01   1.26955733e+00
C     5.095272087500000e+00   1.025921975822744e-01   2.421480000000000e-02  2.23644940e-01  -2.35191306e+00  -7.62204780e-01
C     6.346061598700000e+00   7.918640267914375e-01  -4.265369999999891e-02 -1.38232612e+00  -4.57027800e-01   5.23738180e-01
C     6.002850331000000e+00   5.983523735629440e-01   3.454254000000000e+00  1.83091846e+00   1.21875373e+00  -4.44030220e-01
C     7.294202058100000e+00   1.378174004654647e+00   3.613701000000000e+00 -4.11336428e+00   3.34797680e-01  -6.99676370e-01
C     7.540384664699999e+00   8.974371929322800e-02  -5.748660000000072e-02  8.05616990e-01  -1.97763959e+00  -4.59855670e-01
C     8.772026302400000e+00   7.585870760003536e-01  -2.075640000000014e-01  3.02605490e-01  -9.72148140e-01   5.65700700e-01
C     8.467136467000000e+00   6.440792870239728e-01   3.692358300000000e+00  1.02170862e+00   5.69706000e-03   6.75246510e-01
C     9.694529677200000e+00   1.361537535926568e+00   3.834760200000000e+00  2.77297500e-01   2.69335190e-01  -1.63145915e+00
C     1.373232519500000e+00   2.202772755071689e+00  -1.850732999999991e-01  1.63118061e+00  -8.49219770e-01  -6.37186830e-01
C     2.677416001300000e+00   2.925516651461404e+00  -2.350643999999988e-01 -3.07967062e+00   6.87260300e-01   1.07189800e+00
C     2.276842556700000e+00   2.812003657205943e+00   3.524658000000000e+00  8.53232310e-01  -1.09257843e+00  -6.39303500e-02
C     3.534694638000000e+00   3.476871592194000e+00   3.412686000000000e+00  4.94182710e-01   4.85724220e-01  -4.53882980e-01
C     3.884023937099999e+00   2.225662768124796e+00  -1.430973000000009e-01 -1.01829020e-01  -1.63761686e+00   3.23371450e-01
C     5.120258757200000e+00   2.896926763522792e+00  -3.370769999999723e-02 -5.16805690e-01   1.77669258e+00  -1.15141050e-01
C     4.799869741300000e+00   2.745075917744961e+00   3.360282900000000e+00 -2.86507589e+00   1.33619310e-01   3.31330690e-01
C     5.947474894800000e+00   3.506320419196795e+00   3.446548500000000e+00  2.33969909e+00  -6.51735470e-01  -9.09272800e-02
C     6.349524036300000e+00   2.180726396254006e+00  -1.281780000000055e-02 -1.11572300e-02   1.83559837e+00  -5.99711170e-01
C     7.582039861600000e+00   2.904962997065730e+00  -1.150467000000006e-01 -1.50798361e+00  -3.02893730e-01   3.97803800e-02
C     7.192836623900000e+00   2.851609295614279e+00   3.576889200000000e+00  2.70936298e+00  -2.79506936e+00  -1.98038470e-01
C     8.503504978399999e+00   3.506033850005087e+00   3.547184400000000e+00 -2.34552940e+00  -1.38450190e-01   2.06558260e-01
C     8.754246060200000e+00   2.139241065468707e+00  -2.622482999999995e-01  1.68502263e+00   2.84889293e+00   6.59775770e-01
C     9.997943026900000e+00   2.901452524467297e+00  -2.493491999999975e-01  6.59786080e-01  -1.65633017e+00   2.48232620e-01
C     9.714734246899999e+00   2.789728111346977e+00   3.626389200000000e+00  8.49830300e-02   1.91621320e-01   7.17900120e-01
C     1.093657238240000e+01   3.548477172376136e+00   3.554124600000000e+00  2.64894400e-02  -6.89612200e-02  -6.73593150e-01
C     2.592346090500000e+00   4.371807111225954e+00  -1.281414000000005e-01 -1.12434610e-01  -1.55814862e+00  -9.49116910e-01
C     3.813219277100000e+00   5.074612418144870e+00  -5.044559999999976e-02  1.00107178e+00  -1.27413489e+00  -1.01240790e-01
C     3.555454621499999e+00   4.933182495366725e+00   3.355979400000000e+00  1.53037040e-01  -1.98023628e+00   6.53925520e-01
C     4.789646893300000e+00   5.601322323000404e+00   3.425598900000000e+00 -3.95374270e-01   1.01111024e+00  -2.26247300e-02
C     5.062268596900000e+00   4.364108168596977e+00  -1.923750000000268e-02  9.83003790e-01  -1.14271005e+00  -2.93364880e-01
C     6.321971597399999e+00   5.075190765324680e+00  -4.578629999999961e-02 -1.00954309e+00  -2.18459074e+00   3.98946840e-01
C     5.991881278199999e+00   4.899529657334312e+00   3.427887600000000e+00  4.42521860e-01   3.87886880e-01   2.20151900e-02
C     7.242302123999999e+00   5.581049602049521e+00   3.440063100000000e+00 -4.85375620e-01   9.25900270e-01  -1.84855990e-01
C     7.545703641699999e+00   4.331459945147535e+00  -6.990959999999902e-02  5.71475570e-01   4.41914260e-01  -2.40836600e-02
C     8.771209746499999e+00   5.054848536828490e+00  -6.305970000000016e-02  1.15030297e+00  -1.20476322e+00  -3.86299180e-01
C     8.467293093100000e+00   4.912987564801316e+00   3.448967100000000e+00  2.00044927e+00  -3.12237370e-01  -9.03098800e-02
C     9.708735570800000e+00   5.642402392348322e+00   3.377827800000000e+00 -6.26792370e-01   1.17128936e+00  -1.93077380e-01
C     1.004919787050000e+01   4.289992802454559e+00  -1.665968999999983e-01 -4.10503947e+00   2.15385593e+00  -1.72088460e-01
C     1.117914065810000e+01   5.061543804165649e+00  -2.094032999999982e-01  4.48817638e+00  -6.93611730e-01   8.83509910e-01
C     1.099315271060000e+01   4.989909959858824e+00   3.374751300000000e+00 -2.62261659e+00  -1.96994343e+00   6.05232560e-01
C     1.221341038670000e+01   5.661433541175412e+00   3.378746700000000e+00 -5.94263600e-02  -7.79626680e-01  -1.42297780e-01
C     3.843993914700000e+00   6.459710962568063e+00  -5.747940000000185e-02  2.51743240e-01   1.69362548e+00   9.41014000e-02
C     5.095515136500000e+00   7.159410289814983e+00  -6.139260000000135e-02 -1.48616524e+00   3.63400320e-01  -6.71786800e-02
C     4.790968724899999e+00   7.005690852373813e+00   3.564080700000000e+00 -8.16422780e-01   1.96142345e+00   7.42746400e-02
C     6.011820613899999e+00   7.753607068537730e+00   3.582892800000000e+00 -1.75617380e-01  -1.42339061e+00   1.92542500e-02
C     6.295158313400000e+00   6.457080008049070e+00  -3.172860000000099e-02  1.72335275e+00   1.57500590e+00  -7.39991800e-02
C     7.530272495199999e+00   7.224469949953257e+00  -3.208950000000144e-02  1.50625209e+00  -5.82150480e+00   3.45827440e-01
C     7.247795869499999e+00   6.992988391163975e+00   3.436687800000000e+00 -1.27364657e+00   2.98518666e+00   1.08024609e+00
C     8.416715385000000e+00   7.835022520129605e+00   3.495367200000000e+00  1.14636852e+00  -4.47390474e+00  -1.06317342e+00
C     8.819615543099999e+00   6.469024802859018e+00  -5.289899999997516e-03 -1.43344428e+00   1.54593840e-01  -3.58176580e-01
C     1.005807433550000e+01   7.141177282297459e+00  -2.085930000000147e-02 -3.87565210e-01   2.93837875e+00   6.29500800e-02
C     9.636809335799999e+00   7.092444380977155e+00   3.329678400000000e+00  1.56429975e+00  -1.25936944e+00   5.52061370e-01
C     1.092008296210000e+01   7.721111864156090e+00   3.333897300000000e+00  2.21741890e-01   1.25853552e+00   1.08701185e+00
C     1.131569184740000e+01   6.473796487305347e+00  -1.142943000000010e-01 -4.35752155e+00  -8.56597140e-01   3.51657710e-01
C     1.247182299220000e+01   7.180881887837257e+00  -4.731419999999886e-02  2.33726635e+00   1.23918655e+00  -2.76835840e-01
C     1.218716696140000e+01   7.045914288190378e+00   3.454023600000000e+00 -8.28442830e-01   9.80294740e-01  -3.45575660e-01
C     1.338929268910000e+01   7.749141166056691e+00   3.629718300000000e+00  1.24304705e+00  -2.02584600e-02  -5.43456740e-01
