64
Lattice="9.86 0 0 4.93 8.53901048131456 0 0 0 30 " PBC="1 1 1" Properties=species:S:1:pos:R:3:force:R:3 Energy="-512.58624152"
C     4.935328541200000e+00   8.474548806765641e+00  -4.420659000000029e-01  1.27810818e+00   2.16484540e-01   3.34129700e-02
C     1.264439843100000e+00   6.781691516127528e-01  -4.472613000000010e-01 -2.24579020e-01   1.10806840e-01  -1.06285970e-01
C     1.205522694900000e+00   7.639891102003160e-01   3.629373300000000e+00  7.40640290e-01  -1.06893214e+00  -9.79296000e-03
C     2.468690450100000e+00   1.447802120789825e+00   3.729798000000000e+00  3.22395820e-01   3.97337780e-01  -1.90163770e-01
C     7.451150629399999e+00   8.482034957253457e+00  -5.072906999999987e-01 -1.89039317e+00   2.79695863e+00   4.63427660e-01
C     3.712752976300000e+00   7.237075237223832e-01  -3.650894999999998e-01  5.11938170e-01  -3.12887881e+00   1.24586465e+00
C     3.740386365800000e+00   7.336652907936352e-01   3.518690700000000e+00 -2.65472233e+00   9.86247740e-01   4.66805530e-01
C     4.909783154599999e+00   1.517964181250317e+00   3.508873200000000e+00  3.27164900e-02  -7.13938480e-01   7.98867500e-02
C     9.860636413700000e+00   8.492994008693595e+00  -1.500938999999981e-01  7.63463000e-01   2.05585000e-02  -3.03150890e-01
C     6.194786422100000e+00   6.166117666228520e-01  -1.452422999999996e-01 -2.50030580e-01   1.82814007e+00  -1.31726485e+00
C     6.109195755400000e+00   8.092941111535280e-01   3.385218000000000e+00  2.64757902e+00  -2.19553930e+00   3.09892250e-01
C     7.413213145499999e+00   1.451799231595513e+00   3.422289900000000e+00 -2.92274737e+00   1.74325162e+00   6.74600920e-01
C     1.236661210870000e+01   8.425743665416677e+00  -2.186613000000008e-01 -7.58690300e-01   2.40617183e+00   7.14150630e-01
C     8.653836553000001e+00   6.447829014875247e-01  -4.535934000000026e-01 -3.66474540e-01  -4.43162040e-01   1.09805661e+00
C     8.613767978000000e+00   7.782158701709392e-01   3.501446700000000e+00 -6.41359350e-01  -2.69936745e+00   5.55294610e-01
C     9.798258257600001e+00   1.443191140520730e+00   3.696781500000000e+00  2.97498713e+00   1.47805316e+00  -5.41721680e-01
C     1.256301892100000e+00   2.124695800407180e+00  -2.140488000000005e-01 -1.77434080e-01  -6.12361590e-01   9.13164860e-01
C     2.481839598200000e+00   2.780410599281515e+00   1.733979000000000e-01 -1.23293068e+00   1.24768898e+00  -1.36162825e+00
C     2.476534967500000e+00   2.887670390772367e+00   3.931922100000000e+00 -1.37044101e+00  -1.09973072e+00  -5.89174000e-01
C     3.683194372500000e+00   3.620499029319172e+00   3.858977700000000e+00 -1.99396520e-01   4.13542770e-01  -5.96374960e-01
C     3.701379318400000e+00   2.086389372443376e+00  -5.957159999999817e-02 -8.46826050e-01   1.07243601e+00  -9.81740200e-02
C     4.896740741000000e+00   2.809223953124389e+00  -1.461933000000002e-01  3.32763260e+00  -4.62599210e-01   2.54907200e-02
C     4.888114276300000e+00   2.916582797136809e+00   3.659185800000000e+00  1.74185852e+00   8.30758430e-01   1.31163300e-02
C     6.177100835899999e+00   3.625486665340540e+00   3.570402600000000e+00 -1.15329348e+00  -1.36353871e+00  -2.81660320e-01
C     6.165517209299999e+00   2.085269651999134e+00  -3.265653000000022e-01 -1.07808970e-01  -7.57540600e-01   1.28686860e-01
C     7.404380163099999e+00   2.803859661350748e+00  -5.134433999999999e-01 -1.91531040e-01  -3.25005580e-01   1.55787601e+00
C     7.397325826100000e+00   2.890281620177151e+00   3.548167800000000e+00 -2.96130500e-02  -8.93107820e-01  -8.41961930e-01
C     8.627509564200000e+00   3.574721137965577e+00   3.548436000000000e+00 -2.75765860e-01   1.57440068e+00   6.19450800e-02
C     8.666713959499999e+00   2.063588421269575e+00  -4.210616999999992e-01 -1.14829479e+00   2.08363025e+00  -5.65267810e-01
C     9.855898683700000e+00   2.865343781630730e+00  -2.231352000000015e-01  1.08452844e+00  -2.23410071e+00   1.61761970e-01
C     9.859400561299999e+00   2.880246404280846e+00   3.725110800000000e+00 -1.38594159e+00  -8.54619400e-01   9.79234200e-02
C     1.105185436850000e+01   3.571810103902841e+00   3.911426400000000e+00  2.09655649e+00   2.47746170e-01  -2.50276240e-01
C     1.231813670050000e+01   4.264930977475969e+00   3.828396000000000e-01  2.40137782e+00  -3.69693017e+00  -6.33721470e-01
C     3.701559164800000e+00   4.906240807230963e+00   2.326011000000000e-01  1.99889620e+00   1.79673946e+00   1.55734550e-01
C     3.641839511200000e+00   5.049687644284483e+00   3.734745600000000e+00  1.22705086e+00  -1.69127930e-01   1.42245730e-01
C     4.905071257800000e+00   5.749451355670423e+00   3.569227500000000e+00  2.51863670e-01  -1.02414086e+00  -2.06961430e-01
C     4.976412794800000e+00   4.218902039214263e+00  -7.043129999999920e-02 -2.16756562e+00   9.51952330e-01   2.98228540e-01
C     6.168521452699999e+00   4.983641557655560e+00  -3.150972000000003e-01  4.23661710e-01  -1.87516347e+00  -6.92355330e-01
C     6.181569437199999e+00   5.010807992547157e+00   3.452279100000000e+00 -1.47698145e+00   2.15080084e+00   3.67548520e-01
C     7.402635091000001e+00   5.768590522980086e+00   3.317824800000000e+00 -4.18053140e-01  -2.87983401e+00   5.87267390e-01
C     7.402289350100000e+00   4.244775326358767e+00  -4.260809999999999e-01  9.15745360e-01  -5.00465760e-01   3.04495450e-01
C     8.667797721399999e+00   4.952161043889259e+00  -2.293091999999994e-01 -2.06246750e+00   7.26333560e-01  -4.26112200e-02
C     8.599525257300000e+00   5.014794258809536e+00   3.406431000000000e+00  1.95442925e+00  -5.24334660e-01   5.84147240e-01
C     9.884608144300000e+00   5.688899609944751e+00   3.498671700000000e+00 -2.11744302e+00   1.98263690e-01   9.53938900e-02
C     9.876041332600000e+00   4.259270211258462e+00   2.276070000000000e-02  3.22316530e-01  -1.31921980e-01  -1.02132810e-01
C     1.114064307690000e+01   4.952928615541307e+00   3.581475000000000e-01 -3.83707038e+00  -9.52548150e-01  -1.09911041e+00
C     1.107372818690000e+01   4.995145312574216e+00   3.822024300000000e+00 -1.42043536e+00  -1.86130220e-01  -1.21600802e+00
C     1.224163596780000e+01   5.726163766289367e+00   3.688522500000000e+00  2.92128319e+00   4.79853450e-01   5.14905860e-01
C     3.742936358999999e+00   6.365376158900158e+00   2.411967000000000e-01  1.47361110e-01  -2.86807660e-01  -2.50329090e+00
C     4.942405654800000e+00   7.038853209644255e+00  -3.028103999999985e-01 -1.44419902e+00   9.32709990e-01   8.12837610e-01
C     4.918737858700000e+00   7.167379406735549e+00   3.520935600000000e+00  3.26411100e-01   1.51359900e-02  -1.46962400e-02
C     6.174890519699999e+00   7.868817447296406e+00   3.424016400000000e+00 -5.88425950e-01   4.03548310e-01   9.54860650e-01
C     6.155956953300000e+00   6.379661154922255e+00  -5.394852000000014e-01 -8.25787340e-01  -8.12866070e-01   1.78096711e+00
C     7.365330027499999e+00   7.089187687770187e+00  -5.238566999999996e-01  1.67330355e+00  -3.54461050e-01   1.40437550e-01
C     7.417944022800000e+00   7.139180263916501e+00   3.379327200000000e+00 -1.13914974e+00   2.66733026e+00  -3.87816990e-01
C     8.637561390500000e+00   7.863909394852711e+00   3.390893400000000e+00  5.37829910e-01  -7.75376640e-01  -3.05560680e-01
C     8.553841215099999e+00   6.393701166733680e+00  -2.332761000000012e-01  3.34974537e+00  -1.14354649e+00   6.36976000e-02
C     9.861139520199998e+00   7.062926217209262e+00  -2.683529999999834e-02 -2.07240442e+00   3.59022500e-02  -3.34174710e-01
C     9.852122303700000e+00   7.102960940894218e+00   3.351906900000000e+00  9.63433510e-01   1.45614020e+00   7.92809590e-01
C     1.106782904750000e+01   7.873900037114312e+00   3.426004200000000e+00 -1.09938290e-01   3.99283430e-01  -3.68858710e-01
C     1.105633647800000e+01   6.318251580203763e+00   2.459736000000000e-01  1.95699926e+00   3.89590531e+00  -1.40154400e-01
C     1.235493446700000e+01   7.098835317980806e+00   1.910946000000000e-01 -4.79678680e-01  -2.48515090e+00  -2.39523420e-01
C     1.230967539080000e+01   7.142818053161190e+00   3.531253200000000e+00 -1.01714549e+00   1.17759259e+00   3.13991860e-01
C     1.353817681570000e+01   7.870940416081943e+00   3.592323300000000e+00  1.74210850e-01  -4.06304400e-02  -1.17257328e+00
