64
Lattice="9.86 0 0 4.93 8.53901048131456 0 0 0 30 " PBC="1 1 1" Properties=species:S:1:pos:R:3:force:R:3 Energy="-508.51888861"
C     4.975206621000000e+00   8.389828501947694e+00  -6.200970000000012e-01 -1.59110390e-01  -1.43166631e+00   5.31984140e-01
C     1.291409013700000e+00   5.601077680350153e-01  -5.200770000000006e-01 -4.09116330e-01  -1.22310574e+00  -8.86212930e-01
C     1.258528230800000e+00   8.892856827478623e-01   3.781002300000000e+00 -4.05616134e+00   1.16475520e+00   5.04040300e-01
C     2.421262617600000e+00   1.604810699677786e+00   3.950429700000000e+00  2.09765902e+00   1.86435462e+00   2.88430700e-01
C     7.413471921200000e+00   8.338585387716584e+00  -6.082605000000001e-01  1.66389083e+00  -7.71673960e-01   3.96732140e-01
C     3.756094578300000e+00   4.539429338580136e-01  -5.361323999999996e-01 -1.32998380e+00   2.29401903e+00   2.15053215e+00
C     3.658720718600000e+00   8.959900014361296e-01   3.618067500000000e+00  6.94201510e-01   2.60501911e+00   3.56164940e-01
C     4.918449355100000e+00   1.664387290406641e+00   3.633980700000000e+00 -1.33233369e+00  -1.91774676e+00   1.59214020e-01
C     9.880345025400000e+00   8.270164175322650e+00  -2.989703999999982e-01 -2.15480500e-02   2.36697839e+00  -1.28317607e+00
C     6.178833730900000e+00   4.687359156135656e-01  -3.790928999999998e-01 -2.37219200e-02   9.99927780e-01   1.80586680e-01
C     6.130070361400000e+00   9.081548465461472e-01   3.441921600000000e+00 -6.04561750e-01  -8.35808890e-01   3.45005010e-01
C     7.347181760800000e+00   1.587923269431699e+00   3.491065200000000e+00 -6.56236470e-01   2.40697359e+00   7.63046130e-01
C     1.233000838700000e+01   8.315828754007175e+00  -3.338496000000006e-01  1.37146663e+00  -2.15414740e+00   4.51797220e-01
C     8.619870479899999e+00   4.668812425373096e-01  -6.647804999999991e-01  1.48978620e-01  -3.22148820e-01   1.71204265e+00
C     8.570046125099999e+00   1.009723729112498e+00   3.631465200000000e+00  1.73245499e+00  -4.31304378e+00   5.54717760e-01
C     9.791880217999999e+00   1.592747639572689e+00   3.955215900000000e+00  1.82840974e+00   3.38499228e+00  -1.43642595e+00
C     1.322856251200000e+00   1.946804217489331e+00  -2.828847000000003e-01 -2.16305228e+00  -2.92824000e-03   1.00352800e-02
C     2.514277667100000e+00   2.617204406587171e+00   4.459080000000000e-02  7.02426180e-01  -1.08384660e-01  -5.87577750e-01
C     2.399826090200000e+00   3.081547684429614e+00   4.346426100000000e+00  8.38618850e-01  -2.34892262e+00  -1.90056949e+00
C     3.677566087300000e+00   3.783664832493947e+00   4.175570100000001e+00  1.22102190e-01  -2.64132452e+00  -6.18640340e-01
C     3.745320901400000e+00   1.924699110279546e+00  -2.011827000000004e-01  1.09497040e-01  -7.91559340e-01  -8.15758910e-01
C     4.933228262600000e+00   2.701023931189584e+00  -2.908268999999990e-01  8.56508420e-01  -1.02461869e+00   5.34661090e-01
C     4.899932373700000e+00   3.057306543748257e+00   3.860101500000000e+00  6.03450090e-01  -3.18100220e-01  -5.07434930e-01
C     6.173316863700000e+00   3.713923830640223e+00   3.592519200000000e+00 -2.85663095e+00   2.28373066e+00   7.03896270e-01
C     6.157798554799999e+00   1.927348252890861e+00  -4.994340000000008e-01  7.71718370e-01   8.44047990e-01   1.31461090e-01
C     7.428666230499999e+00   2.650971581969912e+00  -6.113595000000025e-01 -1.08576781e+00  -1.01212268e+00   6.37464000e-01
C     7.361482754100000e+00   2.982863791944036e+00   3.603063000000000e+00  1.08381057e+00   2.66487278e+00  -9.27902160e-01
C     8.610375743599999e+00   3.797435780085147e+00   3.672272700000000e+00 -1.52491435e+00  -2.08037725e+00  -2.83079400e-01
C     8.640629921099999e+00   1.857271924095588e+00  -6.149427000000003e-01  1.03384411e+00   3.89542507e+00   1.46790980e-01
C     9.922535718899999e+00   2.622403468508023e+00  -3.739442999999980e-01 -7.54946810e-01   3.19494770e-01   8.99311080e-01
C     9.796725372699999e+00   3.159425082419205e+00   3.975942000000000e+00 -4.70955630e-01  -6.18787194e+00   5.70300710e-01
C     1.097928116960000e+01   3.756437941408152e+00   4.297675200000000e+00  2.42208959e+00   1.97315797e+00  -3.18760060e-01
C     2.496442110300000e+00   3.999588058018353e+00   3.095820000000000e-01 -7.83326770e-01   2.77214525e+00  -1.30290867e+00
C     3.745183995300000e+00   4.772758739237289e+00   1.377036000000000e-01 -1.86860726e+00   6.07990900e-01   1.08830918e+00
C     3.695405440200000e+00   5.141886072920396e+00   3.977850600000000e+00  4.28216600e-02   3.04358572e+00   7.46102920e-01
C     4.897088897600000e+00   5.985796307878587e+00   3.736133100000000e+00  1.54187200e-02  -3.84119840e+00  -9.10819510e-01
C     4.915663264199999e+00   4.160660010433326e+00  -1.087697999999975e-01  3.76006000e+00  -3.95044302e+00  -1.81466993e+00
C     6.172004251200000e+00   4.824390976175971e+00  -4.229096999999982e-01  2.45303610e-01  -1.50157822e+00   8.74814000e-03
C     6.094520082099999e+00   5.177724556075271e+00   3.472623000000000e+00  2.46451421e+00   1.52884466e+00   4.78934810e-01
C     7.407169557100000e+00   5.925884646378496e+00   3.269123400000000e+00 -2.12611931e+00  -2.12253395e+00   4.00702130e-01
C     7.417063623399999e+00   4.092815864367631e+00  -5.473661999999990e-01  4.84584650e-01  -9.68931880e-01   6.62620700e-01
C     8.684712157000000e+00   4.773164769185613e+00  -3.721542000000007e-01 -1.23566998e+00  -3.66895230e-01   2.86583260e-01
C     8.658834241899999e+00   5.156132472615124e+00   3.418150800000000e+00 -3.62894541e+00   2.01014132e+00   3.06843400e-01
C     9.781019033600000e+00   5.913256047609310e+00   3.623556300000000e+00  3.59905081e+00  -9.21109840e-01   1.12502109e+00
C     9.908669157199999e+00   4.079767402453142e+00  -6.221039999999789e-02 -2.54932098e+00  -2.38062621e+00  -2.09775452e+00
C     1.105432715790000e+01   4.785360610903672e+00   1.750719000000000e-01  4.18231302e+00   3.86470000e-03   3.10151580e-01
C     1.100245236680000e+01   5.183273802815910e+00   4.165723200000000e+00  2.09766330e-01   9.68579120e-01  -1.98863478e+00
C     1.230239846430000e+01   5.783957923970626e+00   4.030581900000000e+00 -1.21152801e+00   3.92686087e+00  -1.17097264e+00
C     3.811687920500000e+00   6.185339064209105e+00   9.501960000000000e-02 -9.28649100e-02   1.53966188e+00  -1.95911335e+00
C     5.005888229500000e+00   6.970716602469619e+00  -4.613180999999997e-01 -8.77922480e-01  -2.16348753e+00   1.35159991e+00
C     4.865421584900000e+00   7.387319724350165e+00   3.622412400000000e+00  9.16283400e-01   1.41792750e-01  -2.78382340e-01
C     6.132294136499999e+00   8.064679121599100e+00   3.445926600000000e+00  1.04265170e-01  -1.02065718e+00   6.12369650e-01
C     6.237399468700000e+00   6.198901574554489e+00  -6.024899999999995e-01 -2.25361428e+00   1.37467834e+00   1.14682657e+00
C     7.449552471300000e+00   6.880774521962942e+00  -6.142149000000003e-01  1.05946900e-02   1.79697901e+00  -9.85581600e-02
C     7.359904710400000e+00   7.338989522764099e+00   3.258324600000000e+00  4.55512640e-01   3.38113430e-01   2.90623350e-01
C     8.617439447599999e+00   8.071136748274601e+00   3.299339100000000e+00 -1.54272770e+00  -1.09627372e+00   4.20535880e-01
C     8.646700969599999e+00   6.179265180664577e+00  -3.836784000000009e-01  1.48923428e+00   4.47861870e-01  -1.83528640e-01
C     9.873536941899999e+00   6.908915514120619e+00  -2.273285999999999e-01  1.43206710e+00  -1.68341023e+00   4.39358240e-01
C     9.809477853000001e+00   7.305793436402261e+00   3.388592100000000e+00  1.09130615e+00   7.02731750e-01   4.76868190e-01
C     1.106193690870000e+01   7.994904646824295e+00   3.484395900000000e+00 -8.49359100e-02  -1.44236800e-01   1.36282200e-02
C     1.116428351150000e+01   6.247380611093222e+00   1.791480000000000e-02 -3.72062357e+00  -4.00796390e+00   1.03361862e+00
C     1.239719930770000e+01   6.784690160437789e+00   1.156983000000000e-01  1.14926798e+00   6.62992379e+00  -2.40550365e+00
C     1.229338287470000e+01   7.258774485265502e+00   3.661794300000000e+00  5.91342200e-02   8.01412190e-01   8.57564390e-01
C     1.349574080540000e+01   8.102253244024139e+00   3.661447500000000e+00 -3.06644730e-01  -2.03073164e+00  -2.95004810e-01
