64
Lattice="9.86 0 0 4.93 8.53901048131456 0 0 0 30 " PBC="1 1 1" Properties=species:S:1:pos:R:3:force:R:3 Energy="-508.64558263"
C     1.620009339000000e-01   9.346382459894480e-02  -3.769199999999984e-02 -1.30535502e+00   2.24442802e+00  -2.34710440e-01
C     1.367037185700000e+00   8.005767207446008e-01   1.744044000000000e-01  2.13172622e+00  -8.90217490e-01  -2.08539674e+00
C     1.047131852100000e+00   6.477241636473609e-01   3.127539600000000e+00  4.01244490e-01  -4.85567161e+00  -2.92468280e-01
C     2.190247550400000e+00   1.295661119435883e+00   3.464052900000000e+00  3.47569410e+00  -6.39778190e-01  -8.61354850e-01
C     2.643791626500000e+00   5.413536247078960e-02  -1.491296999999996e-01 -8.79139230e-01   5.77958397e+00   3.85703570e-01
C     3.848990124600000e+00   9.108454887483952e-01  -2.933225999999998e-01 -7.05809470e-01  -1.30603430e+00   2.00733768e+00
C     3.440913417200000e+00   5.675157865769392e-01   3.404567100000000e+00  2.68416647e+00   4.62900190e-01   1.34518930e-01
C     4.790377667200000e+00   1.280214732598402e+00   3.356657700000000e+00 -2.55223265e+00  -7.15511790e-01  -6.24910000e-04
C     5.067778759300000e+00   1.731630204744440e-01  -1.793115000000007e-01  9.50419360e-01  -1.66127990e-01  -4.86021800e-02
C     6.365705923199999e+00   8.911634111524144e-01  -2.780399999999972e-02 -3.62565604e+00  -2.61059333e+00  -5.53122030e-01
C     6.022214089199999e+00   5.969231139888016e-01   3.156567000000000e+00 -9.57524400e-02  -8.46666540e-01   2.32496326e+00
C     7.285836488999999e+00   1.309862689325590e+00   3.135891900000000e+00 -2.41949870e+00   9.44528730e-01   4.66963060e-01
C     7.479436898800000e+00   1.087410536388176e-01  -1.475250000000017e-02  4.37022681e+00  -1.63302300e-02  -5.53613160e-01
C     8.803140912800000e+00   8.903725280017568e-01  -1.128722999999994e-01 -1.15204181e+00  -3.26426571e+00   1.17386462e+00
C     8.465128034299999e+00   6.152646523295272e-01   3.054082800000000e+00  2.40969197e+00  -2.03008149e+00  -1.14492750e-01
C     9.755973992700000e+00   1.315592792308194e+00   2.978834700000000e+00 -3.58419871e+00   2.05172431e+00   1.22927492e+00
C     1.433756108200000e+00   2.207722734056840e+00   3.365502000000000e-01 -1.10871506e+00   1.02082047e+00   6.00947800e-02
C     2.671302554800000e+00   2.951892032422133e+00   4.151991000000000e-01 -2.66205629e+00   1.09844761e+00  -1.28277985e+00
C     2.231217625200000e+00   2.670486038790170e+00   3.572092200000000e+00  1.21812321e+00   3.02240542e+00   4.06718080e-01
C     3.486002457700000e+00   3.354510389889058e+00   3.660016200000000e+00  1.48404902e+00   2.20516790e+00   6.72675700e-01
C     3.817846723000000e+00   2.375784293500217e+00  -2.118179999999725e-02  2.72514676e+00  -5.02700380e+00  -3.43790270e-01
C     5.094601361000000e+00   2.975402319196507e+00  -4.565459999999888e-02 -9.03612800e-02   8.71798890e-01   1.37404097e+00
C     4.737682376200000e+00   2.675993700549769e+00   3.522030900000000e+00  1.05396173e+00   4.66650380e-01  -4.97691340e-01
C     5.996464058300000e+00   3.389270822970833e+00   3.437385000000000e+00  1.46299870e-01   1.40966773e+00   5.39549030e-01
C     6.357938461700000e+00   2.258863977892922e+00   1.230780000000000e-02 -2.69541600e-01   2.12505290e+00  -1.81385166e+00
C     7.597317044200000e+00   2.955892900392432e+00  -1.249110000000009e-01 -7.79988770e-01   1.18784485e+00   1.63952522e+00
C     7.261154937000000e+00   2.735537074527858e+00   3.317236800000000e+00  1.08144000e-03  -1.07444670e-01  -1.63846504e+00
C     8.516598811900000e+00   3.476986612665166e+00   3.156986100000000e+00 -2.85666770e-01  -2.79238881e+00   1.61440920e+00
C     8.825862099600000e+00   2.298843710350387e+00  -4.076700000000244e-02  5.31660360e-01  -1.50207415e+00   3.05475050e-01
C     1.005635189210000e+01   2.990393832945719e+00   2.647446000000000e-01 -6.34622890e-01  -3.66940525e+00  -8.50656500e-01
C     9.774351849500000e+00   2.757076643073553e+00   3.172023000000000e+00 -1.53113398e+00   2.81558860e-01  -1.27087660e-01
C     1.094508230190000e+01   3.496203314189986e+00   3.471087600000000e+00 -5.63469300e-01   8.10098600e-01   1.22784454e+00
C     2.603160686400000e+00   4.379943507361823e+00   4.219905000000000e-01 -1.12938037e+00  -3.25092320e-01   8.41174630e-01
C     3.820560195000000e+00   5.086681882507825e+00   2.853414000000000e-01  1.42396878e+00   6.76159440e-01  -2.18513970e-01
C     3.594520730300000e+00   4.829756292630870e+00   3.777670500000000e+00 -1.08222957e+00   1.19824011e+00  -1.64260194e+00
C     4.841950988799999e+00   5.591082256242683e+00   3.395646600000000e+00 -2.76621885e+00  -1.89769580e+00   8.02606340e-01
C     5.047205277700000e+00   4.375780312802299e+00   1.355562000000000e-01  2.78959240e+00   3.55532080e-01  -1.87281778e+00
C     6.380525355300000e+00   5.063351854244685e+00  -1.840928999999996e-01 -4.71152973e+00   5.24422680e-01   2.19942397e+00
C     6.022038877000000e+00   4.864006519836463e+00   3.431837100000000e+00  5.55161220e-01  -2.28869646e+00  -1.07908839e+00
C     7.237958744699999e+00   5.534981555119817e+00   3.245307900000000e+00  1.03499007e+00  -6.71446500e-02   1.18729227e+00
C     7.593301608499999e+00   4.388559112765828e+00  -5.477579999999804e-02 -2.16560170e+00  -1.12292055e+00  -1.53711022e+00
C     8.721485766499999e+00   5.127245341721703e+00  -7.194660000000042e-02  5.09969686e+00  -1.50154741e+00   1.40664659e+00
C     8.523323775599998e+00   4.817786393130110e+00   3.367922400000000e+00 -1.56365547e+00   3.84643684e+00  -1.02067611e+00
C     9.696713667199999e+00   5.638491867108901e+00   3.488363400000000e+00  1.07113332e+00  -1.78730311e+00   1.82424805e+00
C     9.963035570299999e+00   4.336073401729670e+00   2.850228000000000e-01 -3.18637410e-01   3.60037201e+00  -7.71897330e-01
C     1.116587974690000e+01   5.027387591465439e+00   4.458822000000000e-01  2.52781976e+00   2.53320260e+00  -8.37055100e-01
C     1.092593245640000e+01   5.008698856958597e+00   3.804028800000000e+00  9.05574170e-01  -4.29174337e+00  -2.38245356e+00
C     1.221331538560000e+01   5.653232419340106e+00   3.830100000000000e+00 -1.10672530e-01  -2.69621097e+00  -4.42072520e-01
C     3.892124962400000e+00   6.513519110157260e+00   2.049822000000000e-01 -3.50179071e+00   3.18897620e-01  -1.76061209e+00
C     5.033757075800000e+00   7.235094016012262e+00  -1.758558000000008e-01  1.74696602e+00  -2.08589226e+00   1.68097471e+00
C     4.817383024000000e+00   6.952705523834471e+00   3.024511200000000e+00 -3.31958400e+00   1.26093389e+00   2.18841623e+00
C     5.992426979899999e+00   7.693081366794023e+00   3.003830100000000e+00  1.06232095e+00   1.07241288e+00   8.67185220e-01
C     6.265520780299999e+00   6.459657337582248e+00  -1.981214999999992e-01  2.62956034e+00   2.75105621e+00  -8.64500860e-01
C     7.566440109100000e+00   7.268752831352012e+00  -3.009459000000021e-01 -4.55382340e-01  -5.04530625e+00   6.07552570e-01
C     7.182904251500000e+00   6.952037004703991e+00   3.221198700000000e+00  2.32262600e+00   1.10746456e+00  -3.54878780e-01
C     8.445023790099999e+00   7.697076086676776e+00   3.364097400000000e+00 -5.81193490e-01  -1.28074370e-01   4.14366630e-01
C     8.854965664399998e+00   6.510238422330843e+00  -1.931820000000002e-01 -3.83242365e+00   1.37462301e+00  -6.27020940e-01
C     1.001346463890000e+01   7.247460637939922e+00  -1.119120000000002e-01  2.33527687e+00   4.10498920e-01   1.12648313e+00
C     9.726265073200000e+00   7.019753151002592e+00   3.592322400000000e+00 -3.05474349e+00   1.43500511e+00  -1.56370822e+00
C     1.093393256460000e+01   7.713654660913802e+00   3.517217400000000e+00  5.81009300e-01   1.61549765e+00  -1.40369275e+00
C     1.126259855750000e+01   6.481559899463449e+00   2.381946000000000e-01 -3.69670549e+00  -3.62827280e-01  -7.82227270e-01
C     1.242115353680000e+01   7.180823481005574e+00   1.172337000000000e-01  3.53954845e+00   1.93139740e+00   5.85631940e-01
C     1.215137560510000e+01   7.008211568267510e+00   3.524133300000000e+00  2.50643807e+00   1.52663946e+00   2.54431560e-01
C     1.339051853360000e+01   7.698875683135436e+00   3.225582000000000e+00  8.22406260e-01   4.48186270e-01  -1.11764878e+00
