64
Lattice="9.86 0 0 4.93 8.53901048131456 0 0 0 30 " PBC="1 1 1" Properties=species:S:1:pos:R:3:force:R:3 Energy="-504.71230516"
C     4.916738743700000e+00   8.343639713409802e+00  -6.761018999999990e-01  2.11740225e+00   1.33167067e+00   3.05656240e-01
C     1.306404446800000e+00   5.234915518056223e-01  -5.779199999999989e-01 -2.27863955e+00  -1.06993770e-01  -1.25834913e+00
C     1.152569959300000e+00   9.562674741451832e-01   3.778035000000000e+00  4.69446202e+00  -2.18184620e+00   5.21943780e-01
C     2.455597257500000e+00   1.644388073961433e+00   3.976828199999999e+00 -3.42837105e+00   4.03727500e-02  -5.37418680e-01
C     7.467851941099999e+00   8.358253546725482e+00  -5.939514000000017e-01 -2.62413549e+00  -1.54934948e+00  -5.32167440e-01
C     3.682325607900000e+00   5.523859408579511e-01  -5.109660000000034e-01  2.30284866e+00  -2.97426442e+00   1.13089413e+00
C     3.641030843300000e+00   1.004953325517742e+00   3.650572800000000e+00 -2.84193970e-01  -3.89960033e+00  -6.46593010e-01
C     4.913191707299999e+00   1.549546309241330e+00   3.718995900000000e+00  1.44812585e+00   1.11766871e+00  -7.23126160e-01
C     9.819443749399998e+00   8.374033211141999e+00  -3.017102999999999e-01  3.49874713e+00  -1.97469471e+00  -9.56179060e-01
C     6.142282217899999e+00   5.122206557027560e-01  -4.093550999999991e-01  2.86278580e-01   3.65603180e-01   1.36380140e-01
C     6.127066610999999e+00   8.427535405985696e-01   3.459857700000000e+00  1.44130554e+00   1.33609955e+00   1.22247490e+00
C     7.349775138000000e+00   1.667744231596643e+00   3.562249500000000e+00  9.51080840e-01  -2.12591399e+00  -1.01784930e-01
C     1.235937787600000e+01   8.294881707398686e+00  -3.094004999999989e-01 -2.25518123e+00   4.00795844e+00  -1.10153004e+00
C     8.599314056100001e+00   4.914191138328472e-01  -6.687995999999998e-01  1.97482250e+00   1.27574760e+00   1.33615885e+00
C     8.649173463200000e+00   8.884302446779760e-01   3.603978900000000e+00 -2.94673376e+00   4.01926357e+00   2.11815513e+00
C     9.880671785800001e+00   1.698036029714024e+00   4.037701500000000e+00 -3.02355330e+00  -8.32262668e+00  -3.13475173e+00
C     1.282465057000000e+00   1.934657133521112e+00  -4.369818000000016e-01  1.98100222e+00  -3.30543580e-01   3.18826456e+00
C     2.549671320300000e+00   2.577669641965818e+00   1.371906000000000e-01 -3.41894988e+00   1.41645543e+00  -3.11354193e+00
C     2.404657293000000e+00   3.048294728257980e+00   4.288968300000000e+00  2.89085990e-01   5.23594200e-01  -6.82810860e-01
C     3.690559595300000e+00   3.653885535614715e+00   4.230420000000000e+00  1.12919320e+00   3.13121569e+00  -1.78714745e+00
C     3.695513259299999e+00   1.858118310814366e+00  -1.969130999999997e-01  2.39640557e+00   5.92125157e+00   5.18717280e-01
C     4.976925613400001e+00   2.697097694170880e+00  -3.332574000000008e-01 -1.40267697e+00  -3.30624782e+00   9.85640560e-01
C     4.986460134800000e+00   2.957161797349760e+00   3.869852100000000e+00 -4.07795614e+00   1.88385015e+00   4.06225290e-01
C     6.048583771799999e+00   3.775427163693785e+00   3.494818200000000e+00  3.50067403e+00  -9.18340500e-02   1.62567242e+00
C     6.140246275799999e+00   1.963404566203080e+00  -5.849945999999981e-01  3.22061222e+00  -1.07397653e+00   4.08520910e-01
C     7.473606187800000e+00   2.670416872805281e+00  -6.455030999999991e-01 -2.77716306e+00   3.23302710e-01   8.70603310e-01
C     7.338252791300000e+00   3.120101914477548e+00   3.625737300000000e+00 -4.35803570e-01  -2.62246526e+00  -1.88383845e+00
C     8.610355925000000e+00   3.737886258019514e+00   3.625990200000000e+00 -6.89593270e-01   8.88014500e-01   1.66066911e+00
C     8.718027470100001e+00   2.005886399511394e+00  -5.998277999999999e-01 -4.58796023e+00  -4.89916037e+00  -1.27269509e+00
C     9.894406913699999e+00   2.599525068509169e+00  -3.756135000000000e-01  2.29424022e+00   1.09790596e+00   7.20394850e-01
C     9.794691846299999e+00   2.982103990791525e+00   4.019376600000000e+00  7.76868770e-01   9.63628593e+00  -1.96419390e-01
C     1.101533519630000e+01   3.851537328074436e+00   4.209362100000000e+00  4.02102000e-01  -3.54610209e+00   6.13350790e-01
C     2.485645114500000e+00   4.079434807994947e+00   2.747436000000000e-01  6.76766970e-01  -1.82505965e+00  -2.62177390e-01
C     3.699233979600000e+00   4.780353591328515e+00   1.278945000000000e-01  3.11990956e+00   2.27144972e+00   7.99906360e-01
C     3.694951387200000e+00   5.163072553382745e+00   4.020879000000000e+00  1.06350842e+00  -1.18645284e+00   5.35936810e-01
C     4.990499727500000e+00   5.877288454615979e+00   3.783760200000000e+00 -4.60811821e+00   2.37324696e+00  -9.48616590e-01
C     5.039644679000000e+00   4.054014259186091e+00  -7.618229999999926e-02 -4.96607487e+00   1.89316098e+00  -9.87063650e-01
C     6.148454676499999e+00   4.783031851965567e+00  -4.660671000000001e-01  1.90828709e+00   1.39800739e+00   2.99041010e-01
C     6.159837356300000e+00   5.223773731791815e+00   3.464050800000000e+00 -4.49733857e+00  -4.53109825e+00   8.18766430e-01
C     7.334820081599999e+00   5.791574977489101e+00   3.287314200000000e+00  4.02783057e+00   4.98527956e+00   2.98985190e-01
C     7.379551105499999e+00   4.096407628345832e+00  -5.419170000000015e-01  1.55190089e+00  -9.43803490e-01  -5.25012070e-01
C     8.638821991499999e+00   4.764944690747041e+00  -4.320771000000008e-01  1.55124246e+00  -7.59622150e-01   1.44447430e+00
C     8.559689476899999e+00   5.186319240903601e+00   3.544670700000000e+00  3.73814267e+00  -2.18369550e+00  -1.11701700e-02
C     9.850994812700000e+00   5.899591154528271e+00   3.713696400000000e+00 -3.26366226e+00   1.75172362e+00  -1.23523623e+00
C     9.811115944099999e+00   3.939085923943570e+00  -2.215260000000185e-02  1.31387852e+00   4.95189980e+00  -1.42655520e+00
C     1.106546614780000e+01   4.752080415288606e+00   2.286597000000000e-01 -4.45429640e-01  -2.69738185e+00  -6.52992720e-01
C     1.103447202660000e+01   5.264986497362592e+00   4.172251800000000e+00  2.54322660e-01  -8.91742650e-01  -2.08420846e+00
C     1.230601491510000e+01   5.910498032614375e+00   3.970394700000000e+00  1.11106351e+00  -1.33325751e+00   1.54241130e-01
C     3.824445380100000e+00   6.372931731543177e+00   1.346106000000000e-01 -1.28409169e+00  -4.63311282e+00  -2.26418356e+00
C     5.005479483200000e+00   6.952786473653821e+00  -4.933854000000011e-01 -1.55472185e+00  -5.30367760e-01   1.79229501e+00
C     4.869157884000000e+00   7.357269836399683e+00   3.626461800000000e+00  8.03441000e-03  -2.86561983e+00   7.65536310e-01
C     6.103179676400000e+00   7.983971895536436e+00   3.463075500000000e+00  3.69369160e-01   2.90711421e+00   1.17620517e+00
C     6.213883664499999e+00   6.210968904164824e+00  -6.151733999999998e-01  8.78369540e-01   4.21529560e-01   4.78411690e-01
C     7.493288424000000e+00   6.933053503555380e+00  -6.924171000000001e-01  2.08180920e-01  -1.47974496e+00   7.99629120e-01
C     7.359879961800000e+00   7.245739771157888e+00   3.328350900000000e+00 -1.07626137e+00   2.69697385e+00  -5.19016390e-01
C     8.521489470500001e+00   8.107180167680994e+00   3.267502200000000e+00  1.77506887e+00  -2.12681517e+00   1.49732396e+00
C     8.785734463199999e+00   6.182619816321749e+00  -4.807607999999988e-01 -3.61953484e+00   4.50170200e-02  -1.70815290e-01
C     9.974358843600001e+00   6.866863363819659e+00  -2.165189999999981e-01 -2.83525729e+00   2.49704019e+00  -5.00554370e-01
C     9.810868704600001e+00   7.330574840276689e+00   3.340617900000000e+00 -2.05230180e-01  -8.82344060e-01   1.92215976e+00
C     1.108497805250000e+01   7.947037003435931e+00   3.523148100000000e+00 -1.70615711e+00   2.08544272e+00  -1.68060606e+00
C     1.109593823130000e+01   6.121949549130616e+00   8.576670000000000e-02  2.94698586e+00   3.52618645e+00   6.28103780e-01
C     1.239103192700000e+01   6.998667601644119e+00   1.046550000000000e-01 -1.73244640e-01  -3.66702845e+00  -2.01389470e-01
C     1.230263204770000e+01   7.268510323454380e+00   3.603270000000000e+00 -9.89260240e-01   2.27855880e-01   1.38244302e+00
C     1.344186699790000e+01   8.051481227001211e+00   3.702238500000000e+00  4.29319383e+00  -8.25320080e-01  -1.22337138e+00
