64
Lattice="9.86 0 0 4.93 8.53901048131456 0 0 0 30 " PBC="1 1 1" Properties=species:S:1:pos:R:3:force:R:3 Energy="-511.60467689"
C     5.060005529700000e+00   8.288472753082923e+00   1.784862000000000e-01 -4.03601184e+00  -2.90322934e+00  -4.15726430e-01
C     1.309111904200000e+00   4.139734482131248e-01   1.041318000000000e-01  1.56205718e+00   6.17382230e-01   3.35484320e-01
C     1.152965690400000e+00   1.023439173135579e+00   3.382550700000000e+00 -1.00703431e+00   1.26014934e+00  -6.07739240e-01
C     2.383864820800000e+00   1.667166652927776e+00   3.250527000000000e+00  2.14128545e+00   2.78869733e+00   2.01944940e-01
C     7.469173427599999e+00   8.207925889637075e+00   1.679004000000000e-01  9.55703610e-01   2.44958315e+00  -3.68354690e-01
C     3.793171234900000e+00   3.951769513940248e-01   9.729330000000000e-02 -1.69770385e+00   1.55755515e+00  -4.91317440e-01
C     3.654133895900000e+00   9.707539054245032e-01   3.539647500000000e+00 -1.78481192e+00  -3.67416360e-01  -1.22346622e+00
C     4.879533808500000e+00   1.619455871161929e+00   3.413994900000000e+00 -1.12346709e+00   5.09085309e+00   3.52131070e-01
C     9.927098828300000e+00   8.213641476301863e+00   3.689940000000001e-02 -1.04994701e+00   6.81919360e-01   3.80943420e-01
C     6.191837197499999e+00   4.125145582726168e-01   1.112250000000000e-01  4.25385560e-01   1.53306654e+00  -8.12310780e-01
C     6.105249635500000e+00   1.026938886580807e+00   3.633756000000000e+00  7.73230600e-01  -1.43200195e+00  -1.17518223e+00
C     7.365179711800000e+00   1.695295178130154e+00   3.570233100000000e+00 -1.22832560e+00  -7.46523800e-02   1.79447990e-01
C     1.234388791460000e+01   8.282443613953308e+00  -1.630169999999964e-02  2.22996326e+00  -1.59137119e+00   1.16316146e+00
C     8.703504676100000e+00   4.349793286038200e-01   2.273319000000000e-01 -1.33018801e+00  -1.55696126e+00  -1.47636301e+00
C     8.552613053500000e+00   1.002201544000457e+00   3.543051000000000e+00  2.46062907e+00  -2.43751340e-01  -9.87932240e-01
C     9.747588900800000e+00   1.740550567432477e+00   3.319340400000000e+00  1.58105960e+00   1.34211282e+00   2.44010420e-01
C     1.282042161600000e+00   1.842161376540285e+00  -6.519540000000035e-02  4.65531170e-01  -1.45453550e+00  -4.68707720e-01
C     2.479545619900000e+00   2.522117401486082e+00  -3.112746000000008e-01  1.68232013e+00   6.47211220e-01   1.07622925e+00
C     2.417694086400000e+00   3.157107680365038e+00   2.976129300000000e+00  3.47207730e-01  -2.75500299e+00   1.03903906e+00
C     3.650707693799999e+00   3.849352622243128e+00   3.086044800000000e+00  1.42482000e-01  -1.52561140e+00  -7.27566000e-03
C     3.741484967000000e+00   1.877829164875664e+00  -7.690050000000070e-02 -1.11255613e+00  -2.46293728e+00  -2.47817950e-01
C     4.914554704400000e+00   2.610316584563688e+00  -3.858119999999943e-02  2.31317603e+00  -4.23240430e-01  -3.98464500e-02
C     4.858515443700000e+00   3.149945414544729e+00   3.261408000000000e+00  1.87259584e+00  -3.27229149e+00   7.51131070e-01
C     6.155106577600000e+00   3.759524452136253e+00   3.462983100000000e+00 -1.30190889e+00   2.08077853e+00  -8.73197100e-02
C     6.163240387399999e+00   1.872327821983819e+00   1.242261000000000e-01 -3.77760230e-01  -4.30686360e-01   9.53990100e-02
C     7.408405261599999e+00   2.549300060497590e+00   1.757790000000000e-01 -1.14151350e-01   5.39346230e-01  -5.52756700e-01
C     7.409380514200000e+00   3.078474494557862e+00   3.520387200000000e+00 -1.58902049e+00   1.23058477e+00   3.60411260e-01
C     8.590477524100001e+00   3.858368194898017e+00   3.492575400000000e+00 -1.48318000e-02   5.82526120e-01  -8.19691560e-01
C     8.600969698000000e+00   1.811839521106014e+00   1.933824000000000e-01  4.08146667e+00   2.01087041e+00  -6.17239750e-01
C     9.961328064800000e+00   2.537729018176352e+00  -4.662689999999969e-02 -3.83235288e+00   9.13189100e-01   9.07779080e-01
C     9.787277224899999e+00   3.218965723913940e+00   3.195459900000000e+00  1.71965189e+00  -3.20401338e+00   5.19889190e-01
C     1.108434144160000e+01   3.892771441171413e+00   2.984838600000000e+00 -3.07771448e+00  -1.89305880e+00   5.47328820e-01
C     2.496606131400000e+00   3.931455720348957e+00  -4.103427000000011e-01  6.06770680e-01   1.70035554e+00   7.68414790e-01
C     3.730643601200000e+00   4.712949887423378e+00  -2.763074999999979e-01 -9.75687500e-02  -3.38506655e+00  -9.08697310e-01
C     3.634829001900000e+00   5.222441987717355e+00   3.174540000000000e+00 -2.73898530e-01   3.80330163e+00   1.97764600e-02
C     4.820135689500000e+00   5.965120887193468e+00   3.439612200000000e+00  3.25864775e+00  -1.63022141e+00   1.66544610e-01
C     4.956816389900000e+00   4.026265976120389e+00  -1.618104000000002e-01  2.26049282e+00  -1.11186620e-01   1.29717219e+00
C     6.266958171099999e+00   4.727968555225916e+00   8.418300000000001e-02 -2.16758901e+00  -1.12793367e+00  -1.65059449e+00
C     6.141194659900000e+00   5.199384951619258e+00   3.581445900000000e+00 -1.22869233e+00   2.23456016e+00   1.40870580e-01
C     7.346724946999999e+00   6.015209612597785e+00   3.801842699999999e+00 -8.22192250e-01  -1.19753645e+00  -1.68633032e+00
C     7.494234540300001e+00   3.983063877278086e+00   7.370639999999999e-02 -1.16895837e+00   1.59017610e-01   8.76808790e-01
C     8.721699876399999e+00   4.691762040719354e+00   6.695880000000000e-02  2.99533050e-01  -6.93717660e-01  -1.02975273e+00
C     8.587258184800000e+00   5.275450200804784e+00   3.569167200000000e+00 -1.53372032e+00   1.31978458e+00   1.03781392e+00
C     9.794253421400001e+00   5.999801480527255e+00   3.465286800000000e+00  8.30771340e-01  -1.97674357e+00  -1.28008688e+00
C     9.968637479999998e+00   3.985363518190454e+00  -1.218369000000017e-01 -1.64207752e+00  -9.55244760e-01   4.32281310e-01
C     1.116561022380000e+01   4.693069021663423e+00  -2.703047999999981e-01  5.15205500e-02   3.75523200e-02  -5.48059100e-01
C     1.098830859120000e+01   5.259814247934647e+00   3.064914300000000e+00  1.92976990e+00   3.75123350e+00   1.17933771e+00
C     1.227031535540000e+01   6.013663027019648e+00   3.111497100000000e+00 -9.68049980e-01  -1.53500532e+00   8.43595400e-01
C     3.745480189699999e+00   6.053258674785722e+00  -2.413077000000001e-01 -4.97447110e-01   5.56611355e+00   1.43943935e+00
C     4.995475280699999e+00   6.789970342958203e+00   5.159280000000000e-02 -1.58596510e+00   2.19240753e+00  -6.07222330e-01
C     4.896630851299999e+00   7.388817637568566e+00   3.504203100000000e+00  9.55076020e-01   7.59007800e-01  -3.23909920e-01
C     6.123326959500000e+00   8.196237265141525e+00   3.546129600000000e+00 -1.16542224e+00  -3.23548991e+00   7.92898730e-01
C     6.213906046700000e+00   6.155103623560892e+00   7.489920000000000e-02  1.74421595e+00  -1.94197207e+00   8.82598030e-01
C     7.475347365199999e+00   6.829105567279195e+00   2.099967000000000e-01 -6.73466030e-01  -7.79829570e-01  -1.04427181e+00
C     7.326162409999999e+00   7.498064286017905e+00   3.748902300000000e+00 -9.50106760e-01  -3.83583125e+00  -6.77678900e-02
C     8.559347679999998e+00   8.071425025268404e+00   3.708737400000000e+00  9.06892340e-01   3.05048145e+00  -2.88892120e-01
C     8.699874470599999e+00   6.111850546826024e+00   2.479260000000000e-02 -1.98670696e+00  -9.91355210e-01   1.05456027e+00
C     9.863705585200000e+00   6.805276433853498e+00  -5.000820000000061e-02  3.63308924e+00   7.34524480e-01  -3.30646580e-01
C     9.773236831399998e+00   7.389797830581566e+00   3.580931700000000e+00  1.94519044e+00   1.12384667e+00   5.47951100e-02
C     1.101128584220000e+01   8.166303849293991e+00   3.509440200000000e+00  1.27866427e+00  -3.00912832e+00   7.33845320e-01
C     1.114118286260000e+01   6.133535876280613e+00  -2.223027000000002e-01 -1.35568699e+00  -1.03739541e+00   2.03100640e-01
C     1.232895839560000e+01   6.833403422033989e+00  -2.002338000000030e-01  2.48232844e+00   7.48124120e-01   3.63186600e-02
C     1.228317491530000e+01   7.389101474276922e+00   3.426888600000000e+00  2.02412980e-01   2.00804585e+00  -8.99964710e-01
C     1.359468590540000e+01   8.136585018779817e+00   3.440083800000000e+00 -4.28816534e+00  -1.52251908e+00   9.33324760e-01
