64
Lattice="9.86 0 0 4.93 8.53901048131456 0 0 0 30 " PBC="1 1 1" Properties=species:S:1:pos:R:3:force:R:3 Energy="-511.35576706"
C     4.921427420200000e+00   8.294317108025748e+00  -1.836240000000018e-01  2.63726618e+00   7.62090710e-01  -2.84090320e-01
C     1.311115160400000e+00   4.791436885371136e-01  -2.125191000000015e-01 -3.01372057e+00  -3.37668020e-01  -4.51760380e-01
C     1.162431241100000e+00   8.892031105165208e-01   3.643746900000000e+00  3.37357244e+00   5.41914500e-02   4.29477310e-01
C     2.438824460800000e+00   1.625139863487941e+00   3.724324800000000e+00 -1.99618801e+00   1.28637433e+00  -4.12454420e-01
C     7.413373814200000e+00   8.251962591363691e+00  -1.813952999999984e-01 -3.83299010e-01   6.79461650e-01  -4.13164330e-01
C     3.672117993600000e+00   4.367401579549008e-01  -2.945349000000022e-01  1.80082948e+00   1.15617744e+00   1.38405255e+00
C     3.673857445499999e+00   9.550170214504921e-01   3.659534100000000e+00 -1.67708454e+00  -6.53574980e-01  -3.74718590e-01
C     4.877760684700000e+00   1.679542326206545e+00   3.619503900000000e+00  7.44176170e-01  -5.99579000e-01   3.26913970e-01
C     9.868837912400000e+00   8.400009564142998e+00  -2.192936999999979e-01  1.24259020e+00  -4.51238875e+00  -1.01417387e+00
C     6.202518979200000e+00   5.214162306985632e-01  -3.408912000000015e-01 -1.37405004e+00  -7.41281990e-01   8.33192770e-01
C     6.103797356099999e+00   9.736102044300632e-01   3.632311500000000e+00  1.93028383e+00  -9.53950010e-01  -2.53222310e-01
C     7.386361506100000e+00   1.657818912765215e+00   3.609460200000000e+00 -1.91730642e+00   8.36170430e-01   2.37371690e-01
C     1.235049130450000e+01   8.251945598732837e+00  -3.212108999999970e-01 -9.75023460e-01   2.82914442e+00   2.93616480e-01
C     8.618457443299999e+00   4.197465878085480e-01  -2.156205000000000e-01  2.07779719e+00   2.69219209e+00   2.88826800e-02
C     8.607090046500000e+00   1.010667289770538e+00   3.555099900000000e+00  2.62642190e-01  -1.19928010e-01   1.48816237e+00
C     9.882532022700000e+00   1.697116463675433e+00   3.770233500000000e+00 -1.86500355e+00  -4.11600325e+00  -2.19811733e+00
C     1.330304741700000e+00   1.892070611944313e+00  -3.944282999999977e-01 -1.15203011e+00   1.40259010e-01   2.15518230e+00
C     2.563389735499999e+00   2.601549838674186e+00  -2.221976999999988e-01 -3.01608638e+00  -5.89419370e-01  -1.05030314e+00
C     2.401164338700000e+00   3.101316262201757e+00   3.748494000000000e+00 -1.20931019e+00  -1.47771001e+00  -3.46031590e-01
C     3.627486555700000e+00   3.754306348222030e+00   3.780972900000000e+00  1.47772920e+00   1.73408707e+00  -7.49069250e-01
C     3.719301544600000e+00   1.824675532439760e+00  -1.727409000000009e-01  1.71561522e+00   3.78247975e+00  -1.08303195e+00
C     5.012894794799999e+00   2.655999095170221e+00  -2.231018999999996e-01 -3.79761450e+00  -1.96343752e+00   6.05346090e-01
C     4.887057481499999e+00   3.087612175062615e+00   3.649107300000000e+00 -4.06756840e-01  -7.20861320e-01  -9.97790000e-02
C     6.136851576400000e+00   3.739996076728912e+00   3.535235100000000e+00 -3.11225230e-01   1.88094079e+00   1.23871618e+00
C     6.159887247900000e+00   1.954023182339228e+00  -2.952003000000012e-01  5.46428562e+00  -1.56841841e+00   4.13730190e-01
C     7.503641818399999e+00   2.621514813687370e+00  -2.265063000000005e-01 -2.46180953e+00   7.05093290e-01  -2.55131990e-01
C     7.384913713000000e+00   3.061502869668443e+00   3.675275700000000e+00 -6.11600970e-01   7.40159520e-01  -1.07469657e+00
C     8.609247020100000e+00   3.775106523850261e+00   3.670125600000000e+00  3.30964210e-01   6.59719730e-01  -2.57816690e-01
C     8.724919363600000e+00   1.931296862117023e+00  -1.591088999999997e-01 -2.07045769e+00  -2.54197770e+00  -1.19871110e+00
C     9.913055328900001e+00   2.635007731097342e+00  -2.964696000000018e-01  2.51268362e+00  -7.54771840e-01   6.94247230e-01
C     9.855135223899998e+00   3.036166686283130e+00   3.649108500000000e+00 -1.08603378e+00   4.59414776e+00   4.91987380e-01
C     1.099811155110000e+01   3.856165813315015e+00   3.625008600000000e+00  2.62480283e+00  -1.99373354e+00   1.19964403e+00
C     2.431153627300000e+00   4.029330968542079e+00  -3.059466000000022e-01  6.13027380e-01  -1.31616082e+00   6.22501720e-01
C     3.607288493600000e+00   4.652639710304185e+00  -3.795782999999986e-01  7.02318385e+00   5.19575757e+00   1.92168877e+00
C     3.645394977900000e+00   5.183317095599042e+00   3.752709300000000e+00  2.03355251e+00   4.33383520e-01   2.88388160e-01
C     4.918471589399999e+00   5.953794487522482e+00   3.708315000000000e+00 -2.33566683e+00  -1.71617171e+00  -1.33169559e+00
C     4.952544347700000e+00   4.045388748529929e+00  -1.609607999999980e-01 -1.00519351e+00   2.12997440e-01  -1.50654122e+00
C     6.211632034899999e+00   4.760161137076144e+00  -1.956249000000021e-01 -8.67722540e-01  -1.18148195e+00  -5.33726150e-01
C     6.133834465700000e+00   5.182202925511612e+00   3.550748400000000e+00 -4.96132400e-01   4.20899770e-01   9.60449370e-01
C     7.364516873299999e+00   5.887389079332561e+00   3.623014200000000e+00  5.82867910e-01  -1.43526334e+00  -4.62431920e-01
C     7.465811512700000e+00   4.044525625350611e+00  -2.932220999999977e-01  3.70261200e-02   5.91687920e-01   5.94901450e-01
C     8.694775223699999e+00   4.800072472059665e+00  -3.232757999999976e-01  1.60869470e-01  -3.04898407e+00   1.15715210e+00
C     8.610290158800000e+00   5.230968275071739e+00   3.635093700000000e+00  9.61831360e-01  -1.37939949e+00   4.89947600e-02
C     9.853105690800000e+00   6.001618240396979e+00   3.647609700000000e+00 -2.18185855e+00  -1.51389172e+00  -3.65303640e-01
C     9.954894069700000e+00   4.050437011525704e+00  -1.585821000000003e-01 -3.38054821e+00   7.24281960e-01  -1.57330162e+00
C     1.111690897230000e+01   4.794470198063946e+00  -1.959069000000007e-01  3.33456280e-01  -1.32760763e+00  -6.38692330e-01
C     1.104219595620000e+01   5.266085126450949e+00   3.707686200000000e+00 -5.11326000e-02  -1.07813639e+00  -3.15792600e-01
C     1.230133471820000e+01   5.886494959545200e+00   3.771849300000000e+00 -1.41334090e-01   9.88074840e-01  -3.69790700e-01
C     3.791866066700000e+00   6.176883394471390e+00  -2.863223999999995e-01 -3.26634912e+00  -2.16015241e+00  -6.64933660e-01
C     5.012825626900000e+00   6.889721184803257e+00  -2.350361999999997e-01 -2.22568857e+00  -6.44863680e-01   2.36368720e-01
C     4.843703998200000e+00   7.387671104631417e+00   3.560214000000000e+00  5.82781400e-01  -1.25391916e+00   6.89260170e-01
C     6.128834410400000e+00   7.955559192065285e+00   3.534294000000000e+00 -6.50693700e-01   3.27057470e+00   8.01413650e-01
C     6.194613231200000e+00   6.158698120022447e+00  -2.124621000000033e-01  1.57599985e+00   1.72835260e-01   2.49460610e-01
C     7.417059975200000e+00   6.856583932223626e+00  -1.738673999999989e-01  4.42797420e-01  -2.19887050e-01  -7.04250640e-01
C     7.381612930099999e+00   7.256137980389699e+00   3.628017900000000e+00 -1.89436019e+00   3.33565566e+00  -9.53738210e-01
C     8.533773354299999e+00   8.069688959047715e+00   3.551047200000000e+00  2.23380178e+00  -4.22812580e-01   7.50431300e-01
C     8.673636123200000e+00   6.183242139405531e+00  -2.954490000000014e-01 -1.25638992e+00   1.35104490e-01   8.87369990e-01
C     9.863967417500000e+00   6.864778052070339e+00  -2.131845000000006e-01  2.31575096e+00   3.74135019e+00  -5.04605820e-01
C     9.795488337100000e+00   7.397867280875271e+00   3.557629800000000e+00  6.10998280e-01   1.84766880e-01   9.44228140e-01
C     1.105226962240000e+01   8.076860788559763e+00   3.685326300000000e+00 -3.02375430e-01  -5.06199420e-01  -7.88853270e-01
C     1.111739965520000e+01   6.187552973456254e+00  -2.706995999999968e-01  1.65619910e-01   3.07473330e-01   3.73109380e-01
C     1.238091887010000e+01   6.869831950813031e+00  -3.129641999999997e-01  1.04306250e-01  -8.44667290e-01   1.03144570e-01
C     1.228686048470000e+01   7.284365728893853e+00   3.714625200000000e+00 -2.89515300e-01   4.84052596e+00  -3.86193650e-01
C     1.346266040680000e+01   8.177636824003047e+00   3.596204100000000e+00  1.59413165e+00  -5.40230282e+00   1.63070820e-01
