32
Lattice="9.86 0 0 4.93 8.53901048131456 0 0 0 30 " PBC="1 1 1" Properties=species:S:1:pos:R:3:force:R:3 Energy="-252.20232159"
C     9.646378268599999e+00   8.702194385876991e-01   4.004137500000001e+00 -6.56252760e-01  -2.13401210e-01  -2.19096870e-01
C     9.685946842999998e-01   1.640898180378257e+00   3.791906100000000e+00  8.34648530e-01  -4.27229464e+00   1.33188786e+00
C     2.168781196500000e+00   9.091374304820807e-01   4.001696100000000e+00  1.92762202e+00  -7.59854780e-01   1.94037416e+00
C     3.439655577000000e+00   1.602013319844537e+00   3.916203600000000e+00 -3.39539440e-01  -1.27512108e+00  -2.05287820e-01
C     4.679539435200001e+00   8.334581445702512e-01   3.895927500000000e+00 -1.04064758e+00   4.58932593e+00  -1.24758260e-01
C     5.877479297099999e+00   1.676999408885601e+00   3.777897000000000e+00 -8.39967430e-01  -3.68758357e+00   2.06908160e-01
C     7.067940842000000e+00   9.245096133184911e-01   3.766618200000000e+00  3.56159692e+00   2.46299540e-01   1.48745915e+00
C     8.434690214300000e+00   1.605168911167421e+00   3.793807200000000e+00 -3.15972556e+00  -1.71994676e+00   1.28669050e-01
C     1.086466226850000e+01   2.959894536873674e+00   3.538148700000000e+00 -1.68153620e-01   6.04983935e+00   2.05651480e-01
C     2.273494544400000e+00   3.800562253382294e+00   3.627663300000000e+00 -2.10518102e+00  -1.59862283e+00  -7.73541550e-01
C     3.448448527800000e+00   3.007461009362410e+00   3.779905800000000e+00  4.32248660e-01   2.66611571e+00  -8.58221590e-01
C     4.648045362700000e+00   3.809851928273591e+00   3.723393900000000e+00  1.04837919e+00   1.11599660e-01   2.07726511e+00
C     5.846290490199999e+00   3.048957013910808e+00   3.863869500000000e+00  8.84071520e-01   2.82715373e+00  -7.05652610e-01
C     7.121996270700000e+00   3.746613212120178e+00   3.946653600000000e+00  1.19133192e+00  -3.25809048e+00  -4.03531810e-01
C     8.334062209499999e+00   3.013421836408183e+00   3.706728900000000e+00  2.66805585e+00   3.67938680e-01   2.61860430e-01
C     9.623495821500001e+00   3.706917743321593e+00   3.586213500000000e+00 -6.18181140e-01   2.17889767e+00  -1.65208400e-02
C     1.213435739300000e+01   5.245159256588451e+00   3.551821800000000e+00 -1.12156379e+00  -9.65865870e-01   2.08721447e+00
C     3.459600286399999e+00   5.966437858779797e+00   3.996017400000000e+00  2.69480030e-01  -3.58439836e+00  -2.33048063e+00
C     4.732462295000000e+00   5.307692138135588e+00   3.947975100000000e+00  6.30213780e-01  -4.07317285e+00   5.65288440e-01
C     6.043474714200000e+00   5.849402693481547e+00   4.285775999999999e+00 -2.34658901e+00  -5.12589260e-01   1.47006460e-01
C     7.313810837300000e+00   5.031541478503540e+00   4.331814300000000e+00 -4.91672298e+00   5.20661136e+00  -1.37886887e+00
C     8.337792296800000e+00   5.954129387513508e+00   4.103579100000000e+00  4.92962081e+00  -3.96148454e+00  -1.26574452e+00
C     9.660169992900000e+00   5.232660963119190e+00   3.629378700000000e+00 -4.14664647e+00  -2.48203986e+00   1.57707738e+00
C     1.081864895160000e+01   5.938333413586974e+00   3.626515800000000e+00  3.11212197e+00  -1.40532791e+00  -5.15322670e-01
C     1.333782984880000e+01   7.291926083382741e+00   4.071445200000000e+00 -1.02396634e+00   5.09758202e+00   1.17664559e+00
C     4.774632233200000e+00   7.932983585378051e+00   4.315862400000000e+00 -4.34567082e+00   3.68758659e+00  -2.13676605e+00
C     5.966188287400000e+00   7.280253597617000e+00   4.400708700000000e+00  1.28112126e+00  -1.78279008e+00   1.03016895e+00
C     7.145045696900000e+00   8.025754383886440e+00   4.508594100000000e+00  4.14310800e-02   2.92617374e+00  -3.43013339e+00
C     8.323517235299999e+00   7.336639330909689e+00   4.180696800000000e+00  7.66237710e-01  -3.48301000e-02   7.57895640e-01
C     9.553515901200001e+00   8.008791724958023e+00   3.939489000000000e+00  8.05375890e-01  -9.94284900e-01  -1.51924580e-01
C     1.077734013650000e+01   7.306154038814831e+00   3.793679700000000e+00  1.71700318e+00   2.01999465e+00   8.48173790e-01
C     1.202289191710000e+01   8.063400319389615e+00   3.961309800000000e+00  7.28247600e-01  -1.39341954e+00  -1.31369407e+00
