32
Lattice="9.86 0 0 4.93 8.53901048131456 0 0 0 30 " PBC="1 1 1" Properties=species:S:1:pos:R:3:force:R:3 Energy="-253.26442096"
C     5.136443404900000e+00   7.635424089450757e+00  -9.799466999999993e-01  1.17549926e+00   3.11117044e+00  -1.22461040e-01
C     6.366194436899999e+00   8.467827837006938e+00  -1.014869400000002e+00  6.54813290e-01  -1.42931949e+00   2.00804084e+00
C     7.615019638900000e+00   7.670740582894990e+00  -9.831579000000019e-01 -1.22762686e+00   3.85673445e+00   3.32617390e-01
C     8.882292210700001e+00   8.296604111202608e+00  -7.957602000000001e-01 -1.40418110e+00   4.03607152e+00   1.09931710e-01
C     1.006919385190000e+01   7.593340600981335e+00  -8.061486000000002e-01  2.20961478e+00   2.73763194e+00  -5.51719660e-01
C     1.132685440270000e+01   8.316626553756320e+00  -9.959717999999995e-01 -7.51110660e-01   8.67007690e-01   1.45480588e+00
C     1.256995153630000e+01   7.598357952759174e+00  -8.534097000000003e-01 -5.99045690e-01   4.24903314e+00  -1.67727527e+00
C     1.378524701950000e+01   8.332821641032689e+00  -1.104276900000002e+00 -6.71459680e-01   6.82165390e-01   1.45310752e+00
C     1.435176884900000e+00   1.362454540262015e+00  -5.715213000000006e-01  9.20856990e-01  -3.87963958e+00  -2.89506711e+00
C     2.682234632600000e+00   1.996265581793683e+00  -4.986375000000010e-01  1.38071850e+00   3.13731040e-01   2.04068237e+00
C     3.985512966400000e+00   1.238540775071600e+00  -5.625074999999988e-01 -1.59896759e+00   2.09782420e-01  -1.04375253e+00
C     5.221555615100000e+00   2.001578468724234e+00  -6.384767999999994e-01 -1.53346149e+00  -1.85523580e+00  -6.99833590e-01
C     6.384049713700000e+00   1.215552990348497e+00  -9.717416999999990e-01  1.87480031e+00   2.00463395e+00   9.83085640e-01
C     7.707001458999999e+00   2.015703102129517e+00  -9.096473999999972e-01 -3.67042988e+00  -2.70950199e+00  -1.03926269e+00
C     8.849478919500001e+00   1.234238223861042e+00  -1.031682000000000e+00  2.18091706e+00   1.85559286e+00   1.23198254e+00
C     1.008748503930000e+01   2.051025658271190e+00  -6.760553999999992e-01 -1.15711258e+00  -3.28473808e+00  -5.52514760e-01
C     2.639449627600000e+00   3.420982402360723e+00  -1.508456999999979e-01  2.53165668e+00   1.47447640e-01  -1.51530486e+00
C     3.929576446900000e+00   4.091152038175602e+00  -2.057150999999990e-01  2.35426090e-01   1.07659824e+00  -2.23682644e+00
C     5.155596997200000e+00   3.442215505820291e+00  -5.711258999999984e-01  4.71705500e-02  -2.02350127e+00   1.42838797e+00
C     6.386927601199999e+00   4.116124118154048e+00  -6.933708000000003e-01  4.43055200e-01   1.51332440e-01  -3.67815970e-01
C     7.637262812900000e+00   3.414501378796508e+00  -7.958867999999981e-01  1.08814071e+00   9.86002230e-01   6.40523560e-01
C     8.862661098600000e+00   4.183536873410294e+00  -6.289343999999986e-01 -3.27678860e-01  -1.72876926e+00  -6.71803450e-01
C     1.011655029800000e+01   3.388110456836706e+00  -4.818986999999986e-01 -1.38135532e+00   6.07611409e+00   1.36334770e-01
C     1.135162592720000e+01   4.249851511918813e+00  -2.731874999999988e-01 -1.75002339e+00  -4.78584748e+00  -2.44944640e-01
C     3.940308514600000e+00   5.496196430228504e+00  -5.313990000000004e-01 -2.17040609e+00   2.06085450e+00   2.05548057e+00
C     5.111243118300000e+00   6.292202389443371e+00  -6.583788000000013e-01  2.38021844e+00  -4.06045089e+00  -1.25256699e+00
C     6.392485140900000e+00   5.505973682618209e+00  -7.514265000000009e-01 -6.13159750e-01   3.56791805e+00  -5.54179360e-01
C     7.601220273100000e+00   6.318781255023838e+00  -9.941579999999988e-01 -4.57731130e-01  -4.58955391e+00   1.67794187e+00
C     8.835765631500001e+00   5.614661965172260e+00  -7.456883999999988e-01 -3.17552740e-01  -2.24052063e+00   1.24048420e-01
C     1.007193434030000e+01   6.242918807337213e+00  -6.341853000000022e-01  1.61547680e-01  -1.61939710e-01  -5.00656470e-01
C     1.132415034700000e+01   5.630774992557915e+00  -4.508532000000010e-01 -1.66649306e+00  -1.96616059e+00   7.20646400e-01
C     1.250820392720000e+01   6.303404973462396e+00  -5.090991000000002e-01  4.01336033e+00  -3.27464335e+00  -4.71632600e-01
