32
Lattice="9.86 0 0 4.93 8.53901048131456 0 0 0 30 " PBC="1 1 1" Properties=species:S:1:pos:R:3:force:R:3 Energy="-250.19400815"
C     5.124090648999999e+00   7.443431696966866e+00   1.568316000000000e-01 -4.97136190e-01   2.24945570e-01  -5.34300500e-02
C     6.416524511100000e+00   7.969383935422510e+00   1.149978000000000e-01 -5.09276600e-02   6.20576978e+00   1.04388866e+00
C     7.747859967900000e+00   7.406888574667182e+00   2.943390000000000e-01 -7.83840633e+00  -2.14238213e+00  -2.28634115e+00
C     8.802894018400000e+00   8.151594891401562e+00   2.529561000000000e-01  4.74637981e+00   5.08417324e+00  -2.67063730e-01
C     1.002114962150000e+01   7.428908462552378e+00   2.446398000000000e-01  4.45080185e+00   4.82883120e-01  -1.53795867e+00
C     1.141636510960000e+01   8.101234198513456e+00   1.680435000000000e-01 -9.94421229e+00   5.23556177e+00   1.75032952e+00
C     1.255646044340000e+01   7.486239293524992e+00   3.254847000000000e-01  2.26869829e+00   3.30824100e-02  -2.77684750e+00
C     1.375089561760000e+01   8.275609843866166e+00  -9.633300000000844e-03  1.91614121e+00  -4.84642364e+00   2.40314049e+00
C     1.428645078600000e+00   9.551750785344768e-01   1.029183000000000e-01  8.90039700e-02   1.67814967e+00  -9.70011560e-01
C     2.633168413200000e+00   1.798628817992406e+00  -7.757910000000123e-02 -3.32105684e+00   6.86447470e-01   1.14275614e+00
C     3.773656963800000e+00   1.179768473739856e+00   7.248060000000001e-02  6.06418615e+00  -4.87975377e+00   1.11823105e+00
C     5.041074921300000e+00   1.877384026259342e+00   1.218231000000000e-01  1.14790358e+00  -3.42347712e+00   1.41221070e-01
C     6.275396753500000e+00   1.037134123533508e+00   2.479029000000000e-01  2.50585258e+00   3.98334830e-01  -8.02258200e-01
C     7.578163944899999e+00   1.715744315037553e+00   2.499360000000000e-01 -2.29838925e+00   2.34878584e+00  -1.12150040e+00
C     8.818308501499999e+00   1.088906485634167e+00   1.319520000000000e-02  1.42423762e+00   2.00087506e+00   1.77599248e+00
C     1.011909777690000e+01   1.819050971626689e+00   1.508691000000000e-01 -1.09685980e+00  -2.04648603e+00  -8.94636980e-01
C     2.714205386800000e+00   3.249188270656328e+00  -9.157590000000226e-02 -2.66623139e+00  -9.52587720e-01  -1.78586084e+00
C     3.892481697200000e+00   3.950019529132477e+00  -1.305323999999999e-01 -6.61185470e-01   2.49722948e+00   6.09073710e-01
C     5.092572764600000e+00   3.260456007325317e+00   3.092580000000000e-02  2.44599240e+00   1.51804698e+00  -2.76252310e-01
C     6.400116189299998e+00   4.000912116983382e+00   5.871960000000000e-02 -1.17070085e+00  -4.40885207e+00   1.01287861e+00
C     7.571145153200001e+00   3.150035501105293e+00   1.941315000000000e-01  2.13857339e+00   3.52674078e+00  -2.44240250e-01
C     8.911146662600000e+00   4.022940970829580e+00   1.622685000000000e-01 -1.87060180e+00  -7.72178270e+00   2.16773250e-01
C     1.016895393020000e+01   3.270415396808560e+00   1.470105000000000e-01 -1.97068375e+00  -7.54966590e-01  -1.52197572e+00
C     1.133784534470000e+01   3.969158269491615e+00  -2.285129999999995e-01  3.90548680e-01  -3.13759529e+00   2.15053764e+00
C     3.765713649200000e+00   5.458624613336295e+00  -2.866619999999998e-02  3.55867068e+00  -3.99329256e+00   1.52810122e+00
C     5.035269304000000e+00   6.038095185365443e+00   3.370410000000000e-01  1.33057460e+00   6.00532250e-01  -2.90837341e+00
C     6.391271079099999e+00   5.374797915965077e+00   1.576281000000000e-01 -1.43983672e+00   7.11966580e-01  -2.03133590e-01
C     7.664977941800000e+00   6.025847170293350e+00   1.288740000000000e-02 -2.15154057e+00   8.44546960e-01   2.61014427e+00
C     8.840740987500000e+00   5.344658453794660e+00   7.636230000000001e-02  2.18765161e+00   8.86913710e-01  -1.13853465e+00
C     1.010402666830000e+01   6.030687508383938e+00  -2.528999999995563e-04 -3.47484067e+00   1.21264393e+00   1.03613861e+00
C     1.127226308300000e+01   5.315056522333958e+00  -1.478222999999979e-01  6.60142470e-01   3.93223187e+00   6.05714970e-01
C     1.241052943610000e+01   6.116346421233849e+00   6.167400000000000e-02  3.12725066e+00  -1.80226165e+00  -3.56502670e-01
