32
Lattice="9.86 0 0 4.93 8.53901048131456 0 0 0 30 " PBC="1 1 1" Properties=species:S:1:pos:R:3:force:R:3 Energy="-253.56840768"
C     5.038686829300000e+00   8.310499472176502e+00  -1.155355499999999e+00 -3.88923467e+00  -2.09143485e+00   5.43156170e-01
C     1.275954449700000e+00   4.546962453625592e-01  -1.105345500000002e+00  3.00499199e+00   9.41467990e-01   3.09827000e-01
C     7.444109997800000e+00   8.227072400495748e+00  -1.208860200000000e+00  1.59542465e+00   3.40624839e+00   8.93605730e-01
C     3.774903760800000e+00   4.048237277035952e-01  -1.136225100000001e+00  3.92753210e-01   1.74661969e+00   1.03542352e+00
C     1.000233235380000e+01   8.195974178228637e+00  -1.001252700000002e+00 -4.45017751e+00   5.66638653e+00  -8.85324520e-01
C     6.222090191800000e+00   4.437932098311712e-01  -1.052655599999998e+00  1.74273090e+00   6.13222900e-02   1.68808330e-01
C     1.237486280880000e+01   8.288482231384556e+00  -1.006236300000001e+00  1.69998544e+00  -2.62687768e+00   5.76033080e-01
C     8.675551625399999e+00   4.264737056547968e-01  -1.199949000000000e+00  1.25255080e-01   2.91439000e-03   5.85968400e-01
C     1.297715026000000e+00   1.890974800729414e+00  -7.919291999999984e-01  1.25341020e-01  -1.65911963e+00  -2.22435666e+00
C     2.507790773100000e+00   2.624824448759313e+00  -7.393236000000023e-01  2.20830582e+00  -1.02608896e+00   9.52678830e-01
C     3.810173818900000e+00   1.971655214299170e+00  -9.248337000000006e-01 -4.84625116e+00  -5.53084010e+00  -4.27981600e-01
C     4.970901843600000e+00   2.606354483700968e+00  -9.414558000000000e-01  3.39782696e+00   2.29384979e+00  -1.12270800e-01
C     6.245668656299999e+00   1.879064161961386e+00  -1.104305400000001e+00 -4.22828350e+00  -5.29021150e-01   1.48387760e-01
C     7.380835124000000e+00   2.596553236691814e+00  -1.186451699999999e+00  4.36422688e+00  -1.50664010e-01  -2.42449980e-01
C     8.614761718099999e+00   1.802960743399015e+00  -1.243624199999999e+00  2.83498480e+00   3.93407016e+00   1.15846800e+00
C     9.962367604600001e+00   2.561796219214232e+00  -9.715065000000003e-01 -3.45955749e+00   2.01148291e+00   1.93243780e-01
C     2.529415675800000e+00   3.993040771732812e+00  -4.316901000000009e-01  6.30893810e-01   6.84060520e-01  -1.16777574e+00
C     3.763060076700000e+00   4.745068436052745e+00  -5.059323000000013e-01  1.89968490e-01  -3.69611160e+00  -9.14183970e-01
C     4.947012246800000e+00   4.066205575228597e+00  -8.358407999999997e-01  3.05087053e+00  -1.72474136e+00   4.40510430e-01
C     6.240659086099999e+00   4.738255501151172e+00  -9.669626999999998e-01 -7.93603410e-01   1.17711610e+00  -8.86022020e-01
C     7.487197162499998e+00   4.023877614889132e+00  -1.126727100000000e+00 -1.78379825e+00  -7.51113080e-01   1.13876226e+00
C     8.721527375699999e+00   4.683485263251194e+00  -9.009540000000023e-01 -1.67358284e+00   2.90677986e+00  -1.02522532e+00
C     9.950469690500000e+00   4.089464217364125e+00  -8.063997000000001e-01  1.20192178e+00  -5.05474338e+00  -5.94429000e-03
C     1.120873978650000e+01   4.725402753356886e+00  -5.687229000000009e-01 -2.49419065e+00   8.92271470e-01  -2.46635510e-01
C     3.777387248300000e+00   6.063739968589504e+00  -7.115534999999973e-01  1.37829721e+00   5.72183669e+00  -1.36260180e-01
C     4.989715660300000e+00   6.868131492266044e+00  -9.863858999999984e-01  5.33518630e-01  -3.46991600e-01  -4.85239050e-01
C     6.233304462800000e+00   6.216560675177653e+00  -1.095654000000003e+00 -1.67013402e+00  -3.89163486e+00   1.20966291e+00
C     7.460381807899999e+00   6.836869833338344e+00  -1.139781900000003e+00 -2.64640940e-01   7.50581480e-01  -1.44565370e-01
C     8.632235215700000e+00   6.138390047568179e+00  -9.365073000000024e-01  3.05310375e+00  -4.51816700e-01  -8.63498800e-02
C     9.887763886599998e+00   6.886914155888166e+00  -8.793543000000028e-01  1.71064595e+00  -5.92622855e+00   5.77247240e-01
C     1.117376261970000e+01   6.135666103225058e+00  -7.002072000000013e-01  4.89912370e-01   1.00860209e+00   8.37118070e-01
C     1.246995333900000e+01   6.816906736907467e+00  -6.641291999999979e-01 -4.17750483e+00   2.25181716e+00  -1.77831662e+00
