32
Lattice="9.86 0 0 4.93 8.53901048131456 0 0 0 30 " PBC="1 1 1" Properties=species:S:1:pos:R:3:force:R:3 Energy="-253.01795297"
C     9.813292341899999e+00   2.533921473403320e-01   4.473378300000000e+00 -1.60229700e+00   2.65475475e+00   2.35467480e-01
C     1.178516302800000e+00   9.667227239670000e-01   4.587490500000000e+00  9.25618210e-01  -5.51274420e-01  -2.62373410e-01
C     2.418037017200000e+00   2.126883067941632e-01   4.170726600000000e+00 -1.79895940e-01   2.03447593e+00   7.28684460e-01
C     3.636393340200000e+00   9.671110781636304e-01   4.226840699999999e+00 -1.14123308e+00   4.23704680e-01   6.33906550e-01
C     4.861026884299999e+00   2.476064553995032e-01   4.086387000000000e+00 -5.02472540e-01  -4.50508120e-01  -2.46212830e-01
C     6.074615847999999e+00   9.227989079589280e-01   4.161833700000000e+00  9.71882210e-01   1.67768081e+00   1.35695648e+00
C     7.310689062700000e+00   3.091235362599384e-01   4.405965900000000e+00 -8.13393480e-01  -4.53521270e+00  -1.73292601e+00
C     8.501320643300000e+00   9.259987313560984e-01   4.559704200000000e+00  2.91795633e+00   4.06262721e+00   6.84997040e-01
C     1.100867806940000e+01   2.354430960773092e+00   5.021152500000000e+00  1.79476221e+00   4.24192690e-01  -1.80755252e+00
C     2.425065225200000e+00   3.136274885716773e+00   4.835218500000000e+00 -1.54416561e+00  -2.29863265e+00   7.79284100e-02
C     3.575479985699999e+00   2.406161054771874e+00   4.533472799999999e+00  3.45746559e+00  -8.40947320e-01  -5.89436650e-01
C     4.905182527900000e+00   3.116598187697394e+00   4.396657200000000e+00 -1.75958315e+00  -1.16711364e+00  -1.30144486e+00
C     6.123563648799999e+00   2.327984962195693e+00   4.229585700000000e+00 -2.21969997e+00   1.74543076e+00   3.94564750e-01
C     7.299935648100000e+00   3.089868352411641e+00   4.316140200000000e+00  1.46351030e+00   1.78836465e+00  -1.45607935e+00
C     8.523369723200000e+00   2.463784090683115e+00   4.634058899999999e+00  5.33908480e-01  -4.11693049e+00   6.99156570e-01
C     9.765992590799998e+00   3.072829354729535e+00   5.012926200000000e+00 -1.61037152e+00   1.20815050e+00  -2.33827555e+00
C     1.230179828610000e+01   4.535239673088124e+00   4.713579300000000e+00 -2.67548197e+00   5.91799570e-01   4.90256560e-01
C     3.557951469300000e+00   5.262595489038087e+00   4.359146700000000e+00  4.83003330e+00   7.17546000e-02  -2.11270410e-01
C     4.849837509800000e+00   4.510064535440463e+00   4.187035799999999e+00  7.27635920e-01   2.82164613e+00  -4.49755940e-01
C     6.111363377800000e+00   5.327509985998200e+00   3.796154400000000e+00 -1.49612216e+00  -2.45698697e+00   9.14406050e-01
C     7.359600874500000e+00   4.510999984038548e+00   3.866022900000000e+00 -1.88496166e+00   5.97491790e-01   2.47904093e+00
C     8.566840392600000e+00   5.219558961608993e+00   4.122043200000000e+00  9.11366480e-01  -1.32988876e+00   7.41808280e-01
C     9.714027284900000e+00   4.491986681743361e+00   4.713803700000000e+00  2.16188596e+00   1.30851842e+00  -4.54891270e-01
C     1.101654891300000e+01   5.198445575076353e+00   4.724018399999999e+00 -1.22355440e+00   1.63787594e+00  -1.09008682e+00
C     1.351972969240000e+01   6.719877106922179e+00   4.304633099999999e+00 -3.21323080e-01  -1.58855460e+00  -8.99531960e-01
C     4.882893209100000e+00   7.486320841075076e+00   4.110411600000000e+00  8.40984800e-02  -3.55255576e+00  -2.39952820e-01
C     6.097222412300000e+00   6.794154287313193e+00   3.752842800000000e+00 -2.73176910e-01  -3.58867791e+00   1.11054592e+00
C     7.386395917500000e+00   7.338224512815196e+00   3.831198600000000e+00 -1.72031696e+00   3.27513894e+00   6.30220940e-01
C     8.590181428299999e+00   6.645067775398052e+00   3.957742200000000e+00  6.29249010e-01  -1.19202104e+00  -3.26675440e-01
C     9.797134168300000e+00   7.355552897562469e+00   4.034906100000000e+00  1.30537922e+00  -3.80789560e-01   1.71855566e+00
C     1.102974657230000e+01   6.625795228744693e+00   4.392954900000000e+00 -1.17973740e-01  -4.58101100e-02  -7.13161950e-01
C     1.228627790660000e+01   7.354243440305361e+00   4.308080400000001e+00 -1.62872853e+00   1.77229669e+00   1.22313173e+00
