32
Lattice="9.86 0 0 4.93 8.53901048131456 0 0 0 30 " PBC="1 1 1" Properties=species:S:1:pos:R:3:force:R:3 Energy="-252.93655346"
C     9.899811524800000e+00   1.150931893788477e+00   3.536906700000000e+00  3.14507606e+00  -2.51374200e+00  -2.30269590e-01
C     1.301954530200000e+00   1.818490385588677e+00   3.782959800000000e+00 -1.53929868e+00   2.81465520e+00  -6.27191050e-01
C     2.542776123700000e+00   1.237339763247588e+00   3.760050300000000e+00  6.59576910e-01  -4.45141840e+00  -8.40644710e-01
C     3.792354925500000e+00   1.784587866889828e+00   4.145193600000001e+00  6.31110460e-01   1.13920472e+00  -6.42109710e-01
C     5.054051864500000e+00   1.081446806078839e+00   4.082254800000000e+00 -3.65863370e-01   1.49373955e+00   8.02094990e-01
C     6.267624115500000e+00   1.836226508086370e+00   4.221578100000000e+00  6.61194340e-01  -1.78849150e+00  -1.89903230e+00
C     7.510040761199999e+00   1.139497304854709e+00   3.793848000000000e+00 -1.06081400e+00   2.20011359e+00   1.60494902e+00
C     8.756450509699999e+00   1.878027696869324e+00   3.743280300000000e+00 -2.99974408e+00  -3.12104140e-01   4.92281700e-01
C     1.115935784990000e+01   3.252440352797636e+00   3.950808000000000e+00  1.51181470e+00   3.39939990e-01   1.57737915e+00
C     2.607526300000000e+00   3.905615820735429e+00   4.289848800000000e+00 -2.54098023e+00   2.98121840e-01  -1.81120500e-02
C     3.823226733400000e+00   3.207398524147418e+00   4.357155000000000e+00 -1.29936983e+00  -4.02937250e-01  -2.22036320e-01
C     4.997723410000000e+00   3.974128571321709e+00   4.367479800000000e+00  1.38511184e+00  -6.43574040e-01   2.48839560e-01
C     6.204629512199999e+00   3.221384398632400e+00   4.279331399999999e+00  2.35881659e+00   2.73248218e+00  -1.77870316e+00
C     7.442201693399999e+00   3.972910737647051e+00   3.859257000000000e+00  6.82478000e-02   6.60802520e-01   3.53520650e+00
C     8.692796716099998e+00   3.294623918469884e+00   3.996323100000000e+00  6.30695670e-01  -3.29554180e-01  -2.32527846e+00
C     9.945736989100000e+00   4.000536571302471e+00   3.949634400000000e+00 -5.68564170e-01  -5.41378520e-01   7.43083230e-01
C     1.246129142760000e+01   5.335138737961032e+00   4.437140700000000e+00 -1.79260884e+00   2.01291604e+00  -3.23234642e+00
C     3.720850599900000e+00   6.133923632746510e+00   3.982781400000000e+00  2.39484523e+00  -1.90879660e+00   1.46527918e+00
C     5.045084095900000e+00   5.381052228801049e+00   4.181538900000001e+00 -1.93696213e+00   1.98243910e+00  -2.67877499e+00
C     6.234986430899999e+00   6.031024628517689e+00   3.711434100000000e+00 -2.87779490e-01   3.66600220e+00   6.95039260e-01
C     7.488509972199999e+00   5.472366101341339e+00   3.869961600000000e+00  4.94213840e-01  -3.93442786e+00  -1.14231488e+00
C     8.747072565100000e+00   6.149065518470275e+00   3.835488300000000e+00 -1.86265127e+00   1.52946982e+00  -2.02066390e-01
C     9.932875802300000e+00   5.411178711675537e+00   4.026125700000000e+00  1.41813072e+00   5.87885470e-01   2.33682220e-01
C     1.119866444410000e+01   6.070544535260806e+00   4.196246700000000e+00  7.90433140e-01   4.69666410e-01  -6.97852790e-01
C     1.354367904080000e+01   7.505987292281878e+00   3.528456300000000e+00  4.12257599e+00  -5.29118280e-01   1.34281620e+00
C     5.019440109300001e+00   8.182713180343303e+00   3.334559700000000e+00 -3.14520717e+00   2.15914352e+00   1.22383045e+00
C     6.253512434199999e+00   7.536366529866574e+00   3.401256900000000e+00 -1.38649106e+00  -2.02146450e+00   2.37730520e-01
C     7.416414490299999e+00   8.321750472384949e+00   3.396366000000000e+00  3.84477996e+00  -2.24961640e-01   3.02009593e+00
C     8.684647721899999e+00   7.614798280416527e+00   3.734001000000000e+00  1.16897488e+00  -1.34842867e+00  -3.64188450e-01
C     1.000743352340000e+01   8.245746874855088e+00   3.939994200000000e+00 -1.76997045e+00  -1.59394209e+00  -9.58728360e-01
C     1.125363576820000e+01   7.497951741859779e+00   3.920858100000000e+00 -2.45907397e+00   1.06065500e-01   1.50467037e+00
C     1.241789175020000e+01   8.290043845621138e+00   3.783925500000000e+00 -2.70219420e-01  -1.64830796e+00  -8.67328650e-01
