32
Lattice="9.86 0 0 4.93 8.53901048131456 0 0 0 30 " PBC="1 1 1" Properties=species:S:1:pos:R:3:force:R:3 Energy="-248.15735492"
C     5.028228869599999e+00   7.891817357414390e+00  -8.139986999999991e-01  7.00339910e-01  -1.15180112e+00   9.96179410e-01
C     1.332325055700000e+00   4.211175259411120e-02  -7.782413999999989e-01  1.12038658e+00  -8.33277620e-01  -2.14276031e+00
C     7.497230599900000e+00   7.710442370561331e+00  -9.327423000000010e-01 -1.55277905e+00   7.12568165e+00   1.92428534e+00
C     8.688804944399999e+00   8.516646640772670e+00  -9.185814000000008e-01  3.58001888e+00  -6.80509690e-01  -2.04521931e+00
C     1.003971126870000e+01   7.923006349362905e+00  -9.546233999999991e-01 -1.26130869e+00  -2.79736687e+00   6.13044780e-01
C     6.418452338300000e+00   5.930214693202800e-02  -9.271061999999972e-01 -2.15237887e+00  -4.22765279e+00   7.18249850e-01
C     1.249149467820000e+01   7.779080559211562e+00  -8.258529000000010e-01  6.33700810e-01   1.60647687e+00  -2.06494958e+00
C     8.735711034999998e+00   9.259566340344320e-02  -5.852558999999999e-01  3.27221660e+00  -4.34125256e+00  -2.75107458e+00
C     1.356930340600000e+00   1.446339302904496e+00  -1.053267300000002e+00  6.86762377e+00  -9.16429260e-01   8.66140810e-01
C     2.885979552699999e+00   2.145378650031417e+00  -1.176405599999999e+00 -1.17095094e+01   3.88083244e+00  -7.83727710e-01
C     3.921496867100000e+00   1.402469880393182e+00  -1.254507300000000e+00  5.01048836e+00  -4.03301164e+00   3.05465596e+00
C     5.230987740400000e+00   2.046055698001515e+00  -9.700682999999977e-01 -6.85602200e-01  -1.09812220e-01  -1.68182222e+00
C     6.532364326700000e+00   1.403484314838206e+00  -8.296844999999990e-01 -3.81290593e+00   6.75650070e-01   7.15525960e-01
C     7.726912940199999e+00   2.044592453165663e+00  -6.303953999999976e-01 -2.30631512e+00   6.77225035e+00  -2.92535522e+00
C     8.938201122199999e+00   1.484714128342245e+00  -7.524410999999986e-01 -8.02088330e-01  -1.41823050e+00   1.62180764e+00
C     1.012880356650000e+01   2.226429742046109e+00  -9.803736000000001e-01 -1.97394169e+00  -5.33532000e-02  -5.86044870e-01
C     2.685694999600000e+00   3.594217065133094e+00  -1.340661899999997e+00 -1.12884250e-01  -1.34227852e+00  -2.18280000e-01
C     3.921154084199999e+00   4.201843999538785e+00  -1.457873400000000e+00  6.19011160e-01   2.45481338e+00   3.08047270e-01
C     5.155897480699999e+00   3.417596257754879e+00  -1.148632200000002e+00 -1.98406400e+00   1.84542922e+00  -1.17572666e+00
C     6.313947825200000e+00   4.147300728537366e+00  -1.166885399999998e+00  2.64546559e+00   3.08645299e+00   3.02359370e+00
C     7.591279273200000e+00   3.511884609205773e+00  -9.726663000000002e-01  2.31749610e-01  -7.40301600e-02   6.38140150e-01
C     8.760324700900000e+00   4.330573083519082e+00  -1.061417700000000e+00  1.27564681e+00  -6.46464800e-02   1.03862549e+00
C     1.007405739550000e+01   3.617888483035226e+00  -1.238416200000000e+00 -3.49398064e+00   1.49277305e+00   1.59041351e+00
C     1.121204426690000e+01   4.386639884770343e+00  -1.330292399999998e+00  4.10631574e+00  -7.80930059e+00  -5.40776070e-01
C     3.910891845500000e+00   5.715550203213250e+00  -1.599567300000000e+00  1.12575787e+00  -1.00384590e-01   3.08452332e+00
C     5.129355297399999e+00   6.448102775551236e+00  -1.049310299999998e+00 -3.18407385e+00  -1.54120548e+00  -1.11202838e+00
C     6.276974550699999e+00   5.639202568951151e+00  -8.093250000000012e-01 -2.10106553e+00  -1.49569381e+00  -2.49167804e+00
C     7.410593195599999e+00   6.392095405812917e+00  -6.722634000000021e-01  3.60784629e+00  -1.30693734e+00  -4.16922870e-01
C     8.694380872999998e+00   5.816320517519512e+00  -7.747226999999981e-01  3.36427257e+00  -4.56329538e+00  -1.64320410e+00
C     1.000577960700000e+01   6.428569105957398e+00  -9.115433999999993e-01  7.00791280e-01   2.01128523e+00  -1.10923440e+00
C     1.133320419340000e+01   5.665715257200398e+00  -1.296971999999997e+00 -4.26688951e+00   7.25746248e+00   8.12343660e-01
C     1.249482198450000e+01   6.422923709958756e+00  -1.475193900000001e+00  2.53815524e+00   6.51362070e-01   2.68322746e+00
