32
Lattice="9.86 0 0 4.93 8.53901048131456 0 0 0 30 " PBC="1 1 1" Properties=species:S:1:pos:R:3:force:R:3 Energy="-249.8444517"
C     5.010593963799999e+00   8.291695802588599e+00  -1.310441999999998e+00 -2.67742603e+00   6.12835290e-01   8.41461870e-01
C     1.272119895700000e+00   4.132634294917128e-01  -1.197014400000000e+00  2.53482461e+00   2.59114629e+00  -2.37499010e-01
C     7.538490558700000e+00   8.272446225873429e+00  -1.157941800000000e+00 -5.11813730e+00   1.16583413e+00  -7.80688510e-01
C     3.687824677800000e+00   5.019001514663136e-01  -1.092705899999999e+00  4.72904704e+00  -1.60836990e-01   1.35057831e+00
C     9.886003087799999e+00   8.316057941048458e+00  -9.279294000000000e-01 -6.11939460e-01   5.28394630e-01  -7.44910620e-01
C     6.104345867899999e+00   5.138534852867416e-01  -1.026787199999998e+00  5.32980828e+00   4.81415700e-02  -5.70624490e-01
C     1.236151365060000e+01   8.283681087352070e+00  -8.869872000000001e-01 -1.66905158e+00   5.05551973e+00  -1.63939154e+00
C     8.632061088100000e+00   5.360940212027400e-01  -1.262736900000000e+00  1.39195865e+00  -3.25371362e+00   1.18300426e+00
C     1.296630228800000e+00   1.925091050860577e+00  -9.897284999999982e-01  3.04796299e+00  -4.15022669e+00   2.35377494e+00
C     2.520468613200000e+00   2.509083712059725e+00  -3.942603000000027e-01 -4.15703040e-01   2.33741352e+00  -3.61145726e+00
C     3.763224738700000e+00   1.898928632821220e+00  -8.142293999999985e-01 -3.84226344e+00  -1.85717869e+00   5.67927230e-01
C     4.892454155299999e+00   2.576477596102810e+00  -9.687605999999995e-01  5.94908789e+00   3.17822004e+00   2.16435430e-01
C     6.241154699000000e+00   1.945964832759147e+00  -1.312628400000001e+00 -5.14083840e+00  -2.81781693e+00   2.18910254e+00
C     7.422838822600000e+00   2.606511259933381e+00  -1.242124499999999e+00  1.69883885e+00   2.19031626e+00   8.75524820e-01
C     8.671507053399999e+00   1.933660460217886e+00  -1.222767900000001e+00  1.00316101e+00  -1.17340982e+00  -5.69306800e-02
C     9.986640607500000e+00   2.566412493669825e+00  -9.148016999999982e-01 -5.72337926e+00   1.09573407e+00  -5.39153790e-01
C     2.456323052100000e+00   3.984052353131250e+00  -3.315513000000010e-01  4.60340945e+00  -9.34722360e-01   6.96451070e-01
C     3.801832357500000e+00   4.859135782868568e+00  -4.301229000000006e-01 -5.87211560e-01  -2.77319270e+00   9.39822080e-01
C     5.030215068000000e+00   3.980486889305326e+00  -6.185366999999999e-01 -2.37402307e+00   2.95888540e+00  -2.09209644e+00
C     6.232333647200000e+00   4.718821994150264e+00  -9.908744999999968e-01 -1.54988579e+00   2.87902716e+00   7.51824880e-01
C     7.421717494099999e+00   4.052485690920067e+00  -1.039895399999999e+00  5.72336200e-02  -2.65921260e+00  -1.48331886e+00
C     8.657952807199999e+00   4.647065956603471e+00  -1.010458800000002e+00  2.28720035e+00   4.02736649e+00   9.99595910e-01
C     9.788055326799999e+00   3.926972910627166e+00  -5.893434000000006e-01  4.10259190e+00   7.07363510e-01  -1.00753382e+00
C     1.110422452600000e+01   4.595352342894913e+00  -3.335451000000020e-01 -2.84256335e+00   3.48323419e+00  -7.74032630e-01
C     3.860484518200000e+00   6.344577861854233e+00  -4.259102999999982e-01 -1.38004969e+00  -3.90870250e+00  -1.95495605e+00
C     5.022211459499999e+00   6.852454039804973e+00  -1.078105499999999e+00 -6.88692130e-01   3.40411295e+00   1.02117231e+00
C     6.258934300299999e+00   6.259101427658279e+00  -1.164507300000000e+00  1.67048103e+00  -4.94596403e+00   5.69829560e-01
C     7.577532904899999e+00   6.902163035413245e+00  -1.266052200000001e+00 -9.17856030e-01  -2.82480825e+00   2.12883070e-01
C     8.823381175700000e+00   6.135361260550923e+00  -1.145866200000000e+00 -2.00040996e+00  -2.50597280e-01   1.34636477e+00
C     1.001965637380000e+01   6.903231863355027e+00  -8.165040000000019e-01 -1.47231549e+00  -3.95574799e+00   8.46240700e-02
C     1.116625511710000e+01   6.042932449412258e+00  -4.161420000000007e-01  3.79542190e-01   4.96151595e+00  -8.37110890e-01
C     1.241143389390000e+01   7.014633245708889e+00  -4.368042000000010e-01  2.26597710e-01  -5.55893075e+00   1.29327500e-01
