32
Lattice="9.86 0 0 4.93 8.53901048131456 0 0 0 30 " PBC="1 1 1" Properties=species:S:1:pos:R:3:force:R:3 Energy="-248.2680758"
C     5.195246916600000e+00   7.557519708188050e+00  -1.942854000000018e-01 -1.61196300e+00   3.90374740e+00   1.16012651e+00
C     6.443209368600000e+00   8.276639648530054e+00  -2.814347999999995e-01  5.86956420e-01  -3.27791848e+00   1.79660816e+00
C     7.733732165499999e+00   7.577603033886485e+00  -8.420609999999940e-02 -2.67374082e+00  -2.24023328e+00  -1.99704271e+00
C     8.953631085500000e+00   8.315345872964530e+00  -1.376367000000016e-01 -3.59664786e+00  -1.17206727e+00   1.16963900e-01
C     1.014630832030000e+01   7.591166227352709e+00  -2.293577999999989e-01 -3.44477139e+00  -3.44957884e+00  -1.99171200e-01
C     1.129987961190000e+01   8.242142643921586e+00  -1.079667000000022e-01  2.96185020e+00   1.54058220e+00  -9.40494150e-01
C     1.254077766970000e+01   7.523373315349892e+00  -2.053001999999999e-01  1.62734400e+00   6.57657235e+00   1.46773088e+00
C     1.383399791610000e+01   8.390626814037468e+00  -3.475889999999993e-02  9.57029230e-01  -4.73674225e+00  -1.77464939e+00
C     1.441931330000000e+00   1.075653855979102e+00  -3.900453000000006e-01  2.21741140e+00   7.92447195e+00  -1.35824679e+00
C     2.680972897700000e+00   1.922359336017921e+00  -6.971693999999999e-01  3.09254500e-01  -1.37902107e+00   7.16104340e-01
C     3.819078089100000e+00   1.143730690080379e+00  -3.202523999999976e-01  4.52623506e+00   3.80091277e+00  -3.43824062e+00
C     5.185371042000000e+00   1.873738295734906e+00  -6.360120000000009e-01 -2.80680984e+00  -7.05094950e-01   1.93910575e+00
C     6.333669649300000e+00   1.136781643351754e+00  -2.630981999999982e-01  3.74680775e+00   1.30070311e+00   8.13362450e-01
C     7.651105562700000e+00   1.834839260443790e+00  -9.317700000000073e-02  2.32731880e-01   3.26409477e+00  -1.89451109e+00
C     9.033873836100000e+00   1.236246769906148e+00  -8.668920000000213e-02 -5.14962083e+00   1.50847167e+00   4.04236470e-01
C     1.021909129070000e+01   2.009966680279158e+00  -2.618480999999981e-01 -1.02077980e+00  -1.45399437e+00  -6.99231670e-01
C     2.799585887600000e+00   3.377989850835600e+00  -1.148414400000000e+00 -4.39695700e+00  -6.64596090e-01   3.69817690e+00
C     3.968845721000000e+00   4.111588366567282e+00  -8.709302999999977e-01  7.81774040e-01  -2.56460848e+00  -1.54890311e+00
C     5.169728102700000e+00   3.286757611235498e+00  -7.942971000000014e-01  2.40629623e+00   1.65825251e+00   3.63788367e+00
C     6.420046305900000e+00   4.042327684053058e+00  -1.995939000000000e-01 -3.02746431e+00  -5.35110560e-01  -4.74843552e+00
C     7.662180117500000e+00   3.380507578075628e+00  -2.977902000000014e-01  4.00064150e-01  -2.92530375e+00   7.94868340e-01
C     8.918168757400000e+00   4.111354226899920e+00  -5.366801999999993e-01 -5.03425960e-01  -8.21955960e+00   1.61729673e+00
C     1.020031962550000e+01   3.485320003772807e+00  -4.961160000000007e-01 -1.10317204e+00  -3.33990114e+00  -8.37400580e-01
C     1.131646590670000e+01   4.236024206858444e+00  -8.658761999999989e-01  3.86724727e+00  -6.46135042e+00  -1.09675649e+00
C     3.923829348700000e+00   5.499964268602804e+00  -7.212434999999999e-01 -5.91264560e-01   1.91797950e+00   2.83412810e+00
C     5.075566532400000e+00   6.198092503311509e+00  -1.767065999999993e-01 -2.09918420e-01  -2.21993266e+00  -3.15998823e+00
C     6.264736713100000e+00   5.491093090615132e+00  -3.426455999999973e-01  4.64650693e+00  -2.12433611e+00   2.25162487e+00
C     7.571994296400000e+00   6.073704566869139e+00  -2.552199000000002e-01  2.21722955e+00   3.72834909e+00  -3.69023580e-01
C     8.920381489299999e+00   5.386793859447801e+00  -5.309153999999978e-01 -5.73661257e+00   6.85169865e+00   1.17482663e+00
C     1.003882953820000e+01   6.122453606919250e+00  -4.922298000000005e-01  4.86613380e+00   4.73015651e+00   1.54923070e-01
C     1.136810593120000e+01   5.563946988739339e+00  -7.466894999999987e-01 -5.17565414e+00   6.90610740e-01   3.93257680e-01
C     1.251328414430000e+01   6.239964822051761e+00  -5.735403000000012e-01  4.69793014e+00  -1.92725390e+00  -9.09129320e-01
