32
Lattice="9.86 0 0 4.93 8.53901048131456 0 0 0 30 " PBC="1 1 1" Properties=species:S:1:pos:R:3:force:R:3 Energy="-254.54882649"
C     9.715594334699999e+00   4.451262347572040e-01   4.422199500000000e+00  8.50095600e-01  -2.33811879e+00   1.88691100e-02
C     1.134079205500000e+00   1.036688557966662e+00   4.344492900000000e+00 -1.39621600e-02   1.21241803e+00   2.20150200e-02
C     2.365423169800000e+00   2.789438553501600e-01   4.666095299999999e+00 -8.83775010e-01   6.29697185e+00  -2.17185006e+00
C     3.562774932000000e+00   1.115382456138350e+00   4.492431000000001e+00  1.59626247e+00  -4.00919480e+00   1.66131568e+00
C     4.851254786200000e+00   4.465466991505520e-01   4.706586300000000e+00 -2.13836782e+00  -2.53602876e+00  -1.47316553e+00
C     6.098354882599999e+00   1.053809700929586e+00   4.581283800000000e+00 -9.19125380e-01   1.82575020e-01  -1.38812170e-01
C     7.294838028100000e+00   3.634731425036712e-01   4.528487400000000e+00  1.74284630e+00   1.16362472e+00  -8.34402870e-01
C     8.474923747100000e+00   1.161113212154095e+00   4.287508200000000e+00  1.39056526e+00  -1.80484498e+00   1.16125339e+00
C     1.101397239640000e+01   2.495285695805302e+00   4.025957700000000e+00 -6.92462400e-01  -1.47233061e+00   1.26506441e+00
C     2.336196453600000e+00   3.215748310155181e+00   4.150027500000000e+00  2.28660131e+00  -4.60495470e-01   3.69224920e-01
C     3.626089245800000e+00   2.448053525576859e+00   4.321754700000001e+00 -1.41268180e+00   3.95051909e+00  -2.87284040e-01
C     4.903691400100000e+00   3.122583009362617e+00   4.451604300000001e+00 -1.53844025e+00   2.21463863e+00   2.21811410e-01
C     6.118866887099999e+00   2.430391692470342e+00   4.472316600000000e+00  1.10625094e+00   3.22355359e+00   1.17623060e+00
C     7.372802280600000e+00   3.256403734511928e+00   4.572770999999999e+00 -3.21661615e+00  -1.05878582e+00  -6.47703090e-01
C     8.552583966499999e+00   2.582552418938492e+00   4.275138000000000e+00  1.90431190e-01  -1.09749855e+00  -1.52344840e-01
C     9.787909595999999e+00   3.234430981964582e+00   4.057894500000000e+00 -7.00027160e-01   1.41501395e+00   3.81633110e-01
C     1.213797685110000e+01   4.622812007406393e+00   4.286017500000000e+00  4.90942909e+00  -1.62172660e-01  -1.20237600e-01
C     3.624920244200000e+00   5.336126018352730e+00   4.508044800000000e+00 -1.74961241e+00  -1.30946644e+00  -5.85128590e-01
C     4.865366664700000e+00   4.603550732246867e+00   4.635873300000000e+00 -9.91655600e-01  -7.88254980e-01  -1.63585170e-01
C     6.046182073000000e+00   5.348281812111638e+00   4.915764599999999e+00 -5.41001100e-01  -5.55565510e-01  -1.09554851e+00
C     7.282496709800000e+00   4.644093185494963e+00   4.790902800000000e+00  6.96863370e-01  -4.94903570e-01  -5.32971760e-01
C     8.510638984200000e+00   5.307741152055742e+00   4.624833900000000e+00  8.36860840e-01   3.02239503e+00  -4.03119440e-01
C     9.713136729700000e+00   4.722594102029804e+00   4.155361500000000e+00  8.75782630e-01  -3.45104939e+00   1.11739351e+00
C     1.098584832400000e+01   5.343733081228942e+00   4.251128400000000e+00 -2.02738320e+00   3.60957179e+00   4.04991730e-01
C     1.347039907710000e+01   6.748058317819218e+00   4.488750599999999e+00  4.23566890e-01   8.24075390e-01   9.60433730e-01
C     4.828437612299999e+00   7.495595743478242e+00   4.660641900000000e+00 -1.69111192e+00   1.04357102e+00  -8.68415070e-01
C     5.993782532700000e+00   6.767320617660003e+00   4.868016000000000e+00  2.72489933e+00   1.06992978e+00   1.20827650e-01
C     7.294903399899999e+00   7.505155848831441e+00   4.850839500000000e+00 -4.84688860e-01  -4.75568530e+00   4.99080970e-01
C     8.545800828799999e+00   6.762625442747574e+00   4.773724799999999e+00 -1.04717830e+00   1.06888150e-01  -3.44211990e-01
C     9.732091199299999e+00   7.525655109730358e+00   4.619229600000000e+00  1.85840160e+00  -3.50662490e-01   6.37308070e-01
C     1.100357542080000e+01   6.813367829404136e+00   4.472181900000000e+00 -5.02188600e-01  -6.85509890e-01  -1.99628470e-01
C     1.225529221570000e+01   7.514046837323427e+00   4.488798300000000e+00 -9.38578720e-01  -2.00517804e+00   9.55880000e-04
