32
Lattice="9.86 0 0 4.93 8.53901048131456 0 0 0 30 " PBC="1 1 1" Properties=species:S:1:pos:R:3:force:R:3 Energy="-252.11410465"
C     5.156447668700000e+00   7.768067199664772e+00  -6.298317000000004e-01 -3.69901900e-01   2.89249799e+00  -1.22414740e-01
C     6.404311569999999e+00   8.474811808288425e+00  -6.153000000000013e-01  1.71996740e-01   1.12331600e+00  -1.30287952e+00
C     7.665374165899999e+00   7.844847078637368e+00  -6.407552999999986e-01 -3.23698810e-01  -2.71808099e+00   1.33426700e-01
C     3.947640114800000e+00   7.161497309366399e-02  -6.198705000000011e-01 -6.91164210e-01  -3.63902939e+00  -2.10981454e+00
C     1.009922238330000e+01   7.833984091065132e+00  -8.144939999999998e-01 -1.29294543e+00  -5.51330160e-01   1.67778973e+00
C     6.311711873000000e+00   5.031629003360960e-02  -5.605565999999982e-01  2.02626543e+00  -2.90238749e+00  -1.98508883e+00
C     1.250152984110000e+01   7.756813296192760e+00  -7.006976999999992e-01  7.51849690e-01   1.80355684e+00  -8.87626930e-01
C     1.375904017480000e+01   8.504034180733292e+00  -6.541538999999972e-01 -2.79532620e-01  -3.44439350e-01   5.18347390e-01
C     1.493001594400000e+00   1.326396433757595e+00  -1.020747000000000e+00 -5.79733728e+00   5.72969660e-01   2.56129212e+00
C     2.565384364200000e+00   2.030982465922010e+00  -1.373903100000000e+00  6.45626609e+00   4.01835750e-01   5.50421660e-01
C     3.906429258800000e+00   1.378043272404198e+00  -1.038974700000001e+00 -2.43434390e+00   2.13405158e+00  -3.98688520e-01
C     5.077756635600000e+00   2.129081521579813e+00  -1.018464900000001e+00  4.64813320e-01   1.58628544e+00  -2.84516060e-01
C     6.257383667400000e+00   1.476843551602619e+00  -6.429086999999996e-01  1.10778053e+00  -2.27239659e+00   1.75032600e-02
C     7.504181850599999e+00   2.083836549870275e+00  -6.353186999999991e-01  2.73907872e+00   2.21489060e-01   1.12348000e-01
C     8.806241340500000e+00   1.411125704536548e+00  -6.328509000000011e-01  1.28152410e-01  -9.30106320e-01   5.56428200e-01
C     1.006785170870000e+01   2.153358867665605e+00  -7.626756000000015e-01 -6.88869790e-01  -3.19247860e+00  -2.34967661e+00
C     2.624762566000000e+00   3.438631000000997e+00  -1.644084899999999e+00  1.10277977e+00   6.26153660e-01   7.13669910e-01
C     3.887690476700000e+00   4.274349676815619e+00  -1.521445800000002e+00  1.25746021e+00  -1.88327029e+00   4.57286240e-01
C     5.130714498400000e+00   3.551577003960586e+00  -1.273454999999998e+00  1.10217230e-01  -3.87267920e-01   8.70642900e-01
C     6.418241827299999e+00   4.219101425108970e+00  -9.701855999999971e-01 -3.76503087e+00   8.23873600e-02  -4.29283060e-01
C     7.574330475500000e+00   3.456924036762196e+00  -7.267983000000022e-01  6.70250370e-01   2.69313646e+00  -1.23638982e+00
C     8.817462710699999e+00   4.192284491916321e+00  -9.355347000000016e-01 -1.48912418e+00  -1.06231134e+00   4.48728590e-01
C     9.966512403499999e+00   3.499674080389687e+00  -1.161609000000002e+00  4.66149763e+00  -2.16626044e+00  -4.41608600e-02
C     1.126402835610000e+01   4.067454917851926e+00  -1.579145700000002e+00 -2.35041992e+00   5.46366347e+00   1.81901119e+00
C     3.978651638900000e+00   5.672863006702892e+00  -1.280120700000001e+00 -1.84064689e+00   1.46645879e+00   9.51134360e-01
C     5.175431323900000e+00   6.424839693130258e+00  -8.338521000000014e-01 -1.68191409e+00  -4.45199612e+00  -1.86054263e+00
C     6.327536729300000e+00   5.636906087472660e+00  -8.976711000000002e-01  5.00853267e+00   1.78133291e+00   9.66015810e-01
C     7.667272560999999e+00   6.365113840498213e+00  -7.608378000000009e-01 -1.14048036e+00  -7.21572950e-01   9.44159500e-02
C     8.891614594200000e+00   5.547012081594985e+00  -9.028080000000003e-01 -1.71051673e+00   6.06404737e+00  -7.20997500e-02
C     1.010242244630000e+01   6.383714281636691e+00  -1.021419900000001e+00  1.82408790e-01  -2.12214001e+00  -2.02800030e-01
C     1.128808581940000e+01   5.600507786790716e+00  -1.339786800000002e+00  1.42888345e+00   9.10130390e-01   1.49461850e-01
C     1.258401322740000e+01   6.375394979896343e+00  -1.189018200000000e+00 -2.41230609e+00  -4.78244770e-01   6.88058080e-01
