32
Lattice="9.86 0 0 4.93 8.53901048131456 0 0 0 30 " PBC="1 1 1" Properties=species:S:1:pos:R:3:force:R:3 Energy="-246.90078092"
C     5.137849046500000e+00   7.695358379328621e+00  -1.141757100000000e+00 -3.18595670e-01  -1.06882000e-03   7.39047380e-01
C     6.401993927700000e+00   8.392920221472187e+00  -1.075232399999997e+00 -1.22198455e+00   8.38367540e-01  -8.17485650e-01
C     7.672695560999999e+00   7.733117285940446e+00  -1.140216899999999e+00 -1.99881418e+00   3.07411928e+00   1.06424395e+00
C     8.794637352999999e+00   8.521734866337493e+00  -9.192129000000016e-01  4.15085641e+00  -1.48284198e+00  -1.10101900e-01
C     1.009318949300000e+01   7.743864142970155e+00  -9.262689000000002e-01  8.91647300e-01   1.50586260e-01   1.85196052e+00
C     1.147068394820000e+01   8.449852963776223e+00  -8.103785999999999e-01 -4.56161503e+00  -3.19380576e+00  -2.20109240e+00
C     1.260599358310000e+01   7.657317770761058e+00  -1.110985799999998e+00 -6.99382320e-01   4.98792180e-01   1.90699991e+00
C     1.378230612660000e+01   8.500811045837510e+00  -1.411327199999999e+00  1.22584983e+00  -7.08915371e+00   2.37487543e+00
C     1.410264461000000e+00   1.262769875748181e+00  -8.566085999999977e-01  4.88556970e-01   5.58922290e-01   3.54687162e+00
C     2.701593904500000e+00   1.872157639504953e+00  -2.888681999999996e-01 -5.07387724e+00   6.32731442e+00  -1.96999134e+00
C     3.904825628400000e+00   1.476853456854776e+00  -5.971997999999985e-01 -2.54752270e-01  -1.01705885e+01  -1.86266699e+00
C     5.106755783000001e+00   1.966465972240369e+00  -7.902078000000010e-01  5.75560951e+00   2.92477679e+00   1.26353659e+00
C     6.382165763500000e+00   1.257520860616020e+00  -9.132857999999970e-01  1.30941908e+00   2.90536446e+00  -1.78053013e+00
C     7.596600665900000e+00   2.071853500293377e+00  -1.207233000000002e+00 -1.24145289e+00  -4.63249577e+00   1.62738744e+00
C     8.877901306199998e+00   1.298144946804306e+00  -1.265354700000000e+00 -2.63347111e+00   4.78705779e+00   1.49991480e+00
C     9.954251345599999e+00   1.968573058466414e+00  -6.356663999999981e-01  4.16856535e+00  -5.18776820e-01  -2.01702307e+00
C     2.773151967100000e+00   3.384806969852308e+00  -2.165895000000013e-01 -3.17525361e+00  -1.46892996e+00   9.75876120e-01
C     4.034769237300000e+00   4.062934878044443e+00  -2.789885999999981e-01 -2.36063583e+00   2.16249830e+00   2.04549868e+00
C     5.225510214600000e+00   3.347375107341866e+00  -5.276804999999989e-01  2.64313660e-01   4.20313558e+00  -9.52630790e-01
C     6.440675989499999e+00   4.247558531434619e+00  -7.548171000000004e-01 -2.00546928e+00  -4.36538452e+00   2.52772960e-01
C     7.551492349100000e+00   3.385024714619548e+00  -8.913821999999989e-01  3.05878152e+00   3.81921480e+00  -6.26170870e-01
C     8.800763962600000e+00   4.096267332403646e+00  -7.673861999999971e-01  6.85594800e-01   2.62204023e+00   8.19446310e-01
C     1.002476764990000e+01   3.391103465400050e+00  -3.151922999999996e-01 -2.21935081e+00  -5.47390130e-01  -2.48049021e+00
C     1.126530404290000e+01   4.042169370798759e+00  -1.757799000000020e-01  3.10573039e+00   9.47148830e-01  -2.80196500e-02
C     3.947053987100000e+00   5.626160425904419e+00  -3.548999999999580e-03  5.62003450e-01  -1.04494925e+00  -6.24624647e+00
C     5.106937502799999e+00   6.303906384157782e+00  -6.091773000000025e-01  1.57516685e+00   5.80113780e-01  -8.86591750e-01
C     6.462721618400000e+00   5.624251188551195e+00  -8.720777999999996e-01 -5.64357415e+00   4.32016720e-01   1.71936127e+00
C     7.591580101800000e+00   6.371407262002182e+00  -1.095882599999999e+00  1.45393517e+00  -1.86051625e+00  -3.58339390e-01
C     8.729641613399998e+00   5.626730575634168e+00  -9.606192000000000e-01  6.28928310e+00  -3.03030134e+00   1.58251852e+00
C     1.009887294490000e+01   6.306457755099101e+00  -7.804502999999983e-01 -1.97244188e+00  -1.61287714e+00   1.38922810e-01
C     1.132806387960000e+01   5.448539871179205e+00  -3.329096999999983e-01 -2.19725215e+00   4.34824050e+00  -2.71809029e+00
C     1.251921251860000e+01   6.238787377896673e+00  -5.516304000000005e-01  2.59260957e+00  -1.60629770e-01   1.64623658e+00
