32
Lattice="9.86 0 0 4.93 8.53901048131456 0 0 0 30 " PBC="1 1 1" Properties=species:S:1:pos:R:3:force:R:3 Energy="-247.80203496"
C     5.131764539100000e+00   8.245642271976710e+00  -8.176610999999987e-01 -5.46655272e+00  -7.51912000e-02  -4.60469160e-01
C     1.304498903200000e+00   5.189812464700864e-01  -6.683397000000006e-01  1.91662340e+00  -2.88168100e+00  -5.17598230e-01
C     7.461565845999999e+00   8.264463873486621e+00  -7.261547999999998e-01  5.99900690e-01  -9.72273690e-01  -4.55863690e-01
C     3.788158115099999e+00   2.706469258172680e-01  -1.088614799999998e+00 -1.96590266e+00   6.18226501e+00   2.66877499e+00
C     9.886371063000000e+00   8.185880897061066e+00  -8.484197999999985e-01  3.13647747e+00  -2.21648574e+00  -8.69831090e-01
C     6.242189111599999e+00   3.213214273405136e-01  -7.117026000000024e-01 -2.26184285e+00   1.89725822e+00  -2.56329116e+00
C     1.233421328260000e+01   8.115368651780789e+00  -1.002435599999998e+00  4.28924788e+00   2.13167738e+00   2.11748904e+00
C     8.719259871500000e+00   3.603169534500536e-01  -8.172348000000014e-01 -7.00164210e-01   2.76269890e-01  -1.87354030e-01
C     1.309728943000000e+00   1.914194419587050e+00  -8.583863999999970e-01  5.64709701e+00  -2.48945987e+00  -5.55749340e-01
C     2.609461916600000e+00   2.550774576827277e+00  -1.129338600000001e+00 -2.04602253e+00  -1.63032833e+00  -1.19377208e+00
C     3.800392797500000e+00   1.778437559201503e+00  -1.119498600000000e+00  8.20764980e-01  -2.52950180e-01  -1.02073852e+00
C     5.049101257099999e+00   2.566739879331628e+00  -1.230126600000002e+00 -1.94721253e+00  -5.73074674e+00   1.29124649e+00
C     6.194288492099999e+00   1.852467706019330e+00  -8.617938000000009e-01  3.57619803e+00  -2.39180707e+00   1.47478427e+00
C     7.500371847999999e+00   2.519013556566707e+00  -6.204710999999996e-01 -3.00316599e+00   1.79158512e+00  -1.98211405e+00
C     8.656498358599999e+00   1.827986448363275e+00  -7.102077000000016e-01  4.90789465e+00  -2.48891637e+00  -1.55841371e+00
C     1.008932111920000e+01   2.567052663285510e+00  -1.126204800000000e+00 -9.31338501e+00   1.33766684e+00   2.28746026e+00
C     2.480350935400000e+00   3.828900838242480e+00  -1.707262499999999e+00  1.55701426e+00   4.32552411e+00   1.53359808e+00
C     3.742563552400000e+00   4.630421717375854e+00  -1.584761400000001e+00  2.46125002e+00  -1.81375459e+00   6.20373950e-01
C     4.982933755099999e+00   3.885132357005900e+00  -1.309512900000001e+00  1.73324688e+00   5.12326957e+00   1.15102734e+00
C     6.279914753400000e+00   4.623670092569528e+00  -8.129936999999998e-01 -4.27549607e+00   6.11262660e-01  -3.14128840e+00
C     7.527262828800000e+00   3.987573584882888e+00  -7.544561999999999e-01 -2.02069270e+00  -2.10436940e+00   9.40957160e-01
C     8.676355018199999e+00   4.714076524466109e+00  -8.933199000000016e-01  3.60515145e+00  -4.98747144e+00  -2.08881771e+00
C     9.937450152099998e+00   3.948101923548983e+00  -1.295906700000000e+00 -2.02026690e-01   2.33468214e+00  -7.77815300e-02
C     1.111555450410000e+01   4.667155088829033e+00  -1.716001499999997e+00  4.92939630e-01   1.95011100e-02   8.80400640e-01
C     3.892968584000000e+00   6.010268770353848e+00  -1.341147000000003e+00 -5.23184036e+00   2.12005586e+00  -6.83960330e-01
C     5.029213785000000e+00   6.790892470699938e+00  -1.044285299999999e+00 -1.08954092e+00   1.22560396e+00  -5.97363700e-02
C     6.107205317200000e+00   6.031532614251144e+00  -9.498357000000013e-01  8.73369804e+00   5.29362700e-02   3.43676201e+00
C     7.530914726300000e+00   6.866917928096627e+00  -5.931062999999988e-01 -2.90532367e+00  -3.19841082e+00  -2.99707418e+00
C     8.769935538700000e+00   6.035757289686123e+00  -9.785561999999999e-01 -5.51359955e+00   4.02420587e+00   2.35911885e+00
C     9.884372293100000e+00   6.738659258203673e+00  -1.037675400000001e+00  6.50343064e+00   3.11513724e+00  -2.60539417e+00
C     1.118998335500000e+01   6.214207836229994e+00  -1.653820199999998e+00 -2.67233819e+00  -5.33565188e+00   3.06373520e+00
C     1.243525821750000e+01   6.712246049426517e+00  -1.297569299999999e+00  6.34171620e-01   2.00059707e+00  -8.06480510e-01
