32
Lattice="9.86 0 0 4.93 8.53901048131456 0 0 0 30 " PBC="1 1 1" Properties=species:S:1:pos:R:3:force:R:3 Energy="-249.16523672"
C     5.105190261499999e+00   8.041454208554967e+00  -1.388257800000002e+00 -2.82532110e+00   8.70522890e-01   3.00215410e-01
C     1.337475722500000e+00   2.500482708363640e-01  -1.505511600000002e+00  3.17807642e+00  -2.63327080e-01   2.65209417e+00
C     7.551092821899999e+00   8.155647761945684e+00  -1.262310599999999e+00 -2.67937216e+00  -5.78656724e+00  -2.68400598e+00
C     3.753381254200000e+00   2.844655210869472e-01  -1.359040799999999e+00  4.59068227e+00   1.30230179e+00   2.36267220e-01
C     9.943470076499999e+00   8.047542352246998e+00  -1.454496299999999e+00  5.65380720e-01   1.96634976e+00   3.03024365e+00
C     6.154427568700000e+00   3.612302860109944e-01  -1.323613200000000e+00  3.02019634e+00  -4.16768590e+00  -4.14481250e-01
C     1.237081315890000e+01   8.122047438827723e+00  -1.210012499999998e+00  2.71649495e+00  -7.20694200e-02  -1.12279805e+00
C     8.773909907499998e+00   2.057420779389976e-01  -1.501304400000002e+00 -2.68767265e+00   2.33112696e+00   9.90503400e-01
C     1.393011334400000e+00   1.633295813957808e+00  -1.149052800000000e+00 -1.80664797e+00  -4.14121260e-01  -8.91326590e-01
C     2.524428044100000e+00   2.413734644727005e+00  -9.897230999999991e-01  3.87467817e+00  -1.73898773e+00   1.64184761e+00
C     3.774526862300000e+00   1.697578594922611e+00  -1.138952400000001e+00 -9.09731700e-01  -2.97396590e-01  -3.09606530e-01
C     4.972509516600000e+00   2.392760529455296e+00  -1.065365700000001e+00  1.27160178e+00   1.67496214e+00  -2.80042210e-01
C     6.195043866699999e+00   1.740105770376574e+00  -1.324722299999998e+00  1.48509775e+00   2.07569031e+00  -5.06203120e-01
C     7.455155120499999e+00   2.552062515777975e+00  -1.497554399999999e+00  1.02353812e+00  -6.23484926e+00   1.82023640e-01
C     8.758868132400000e+00   1.724596621812064e+00  -1.562657099999999e+00 -8.70349830e-01  -2.04574614e+00   1.82775616e+00
C     1.001530870540000e+01   2.267857861461192e+00  -1.070079000000000e+00 -3.30969599e+00  -1.20730180e-01  -2.50273543e+00
C     2.644621838500000e+00   3.741598592825694e+00  -4.740447000000003e-01 -2.85682513e+00   9.72298250e-01  -2.08679762e+00
C     3.850533954099999e+00   4.542522936686935e+00  -5.695961999999994e-01 -2.71674110e-01  -9.76472770e-01  -1.96648332e+00
C     5.020230092500000e+00   3.821071675703682e+00  -8.816924999999998e-01  5.90076710e-01  -2.28494420e-01   2.44760300e-01
C     6.248356295099999e+00   4.548365839997980e+00  -1.121403899999997e+00 -1.28335346e+00  -2.15738849e+00  -1.02282701e+00
C     7.445740891100000e+00   3.902497801058657e+00  -1.442314799999998e+00  2.58934991e+00   6.29029720e-01   1.89780824e+00
C     8.741745256400000e+00   4.553300277984057e+00  -1.174123800000000e+00  1.13356904e+00  -7.04504759e+00  -5.04354050e-01
C     9.949064886999999e+00   3.610229588365400e+00  -9.466808999999969e-01  1.20824807e+00   7.01509736e+00   1.26476869e+00
C     1.122108662640000e+01   4.358342372550567e+00  -6.024600000000007e-01 -1.34837127e+00   3.46213511e+00  -8.49868590e-01
C     3.844693087300000e+00   5.905540795470316e+00  -1.003545599999999e+00  2.87684730e-01   2.83804957e+00   3.23110283e+00
C     5.090245015800000e+00   6.686249288190472e+00  -9.925382999999997e-01  5.10840900e-01  -2.68195885e+00  -3.54165443e+00
C     6.260995089600000e+00   5.867965136023391e+00  -1.307076599999998e+00  3.02449916e+00   6.02130323e+00   1.84205802e+00
C     7.781367846799999e+00   6.650643151510758e+00  -1.400953200000000e+00 -7.49279710e+00   7.29644330e-01   1.06467451e+00
C     8.905855786600000e+00   5.862423318221871e+00  -1.197497400000000e+00 -4.75462900e-01   5.02741588e+00   1.52302790e-01
C     1.010473446840000e+01   6.646714352788910e+00  -1.027166999999999e+00 -3.11944010e+00   1.02589329e+00  -2.05517752e+00
C     1.122769410820000e+01   5.960294211519647e+00  -7.890897000000017e-01  3.76589887e+00  -2.94387742e+00   8.20752840e-01
C     1.250963643730000e+01   6.699846893868929e+00  -9.237245999999999e-01 -2.89919844e+00  -7.67100260e-01  -6.40817790e-01
