32
Lattice="9.86 0 0 4.93 8.53901048131456 0 0 0 30 " PBC="1 1 1" Properties=species:S:1:pos:R:3:force:R:3 Energy="-250.13834826"
C     5.138868866299999e+00   7.849106678625212e+00  -1.307955300000000e+00 -1.36712631e+00   2.56047260e-01  -8.17174220e-01
C     1.469063141300000e+00   2.419400534350800e-02  -1.520102399999999e+00 -4.79468677e+00   3.78338215e+00   3.44215451e+00
C     7.450880564000000e+00   7.845217415521886e+00  -1.230308100000002e+00  6.73226519e+00  -2.26245661e+00  -1.58129571e+00
C     3.796200867800000e+00   6.820961571424000e-03  -1.082163899999998e+00 -8.16741750e-01   1.15771798e+00  -2.41130720e-01
C     9.931071126499999e+00   7.911675253236155e+00  -1.273702500000002e+00  3.95918392e+00  -2.23080687e+00   1.16453229e+00
C     6.257769193400000e+00   8.023971523888319e-02  -1.373678400000003e+00  1.03875680e+00   1.03391765e+00   6.71909570e-01
C     1.244704939710000e+01   7.947658472618665e+00  -1.218465600000002e+00  2.09287340e-01  -2.17021499e+00  -5.50482480e-01
C     8.793404951599999e+00   7.644634522324801e-03  -1.566799500000002e+00  1.22384331e+00   1.23189845e+00   2.77887559e+00
C     1.550156711300000e+00   1.521254005817946e+00  -1.058640000000000e+00 -6.58902595e+00  -2.26625653e+00  -2.34894244e+00
C     2.652572646700000e+00   2.265420571699886e+00  -1.011974400000000e+00  3.46616668e+00  -1.35429158e+00   3.38490897e+00
C     3.917325742000000e+00   1.401240006713747e+00  -8.766167999999972e-01 -1.25937380e+00   2.06747367e+00  -2.80102860e+00
C     5.157634516900000e+00   2.107553224527951e+00  -1.126458899999999e+00 -3.55658288e+00   3.67968372e+00   2.53232990e+00
C     6.368739598700000e+00   1.559708414833369e+00  -1.355386499999998e+00 -3.15691270e-01  -3.42036264e+00  -6.35398730e-01
C     7.571540687100000e+00   2.285052098353825e+00  -1.405124100000002e+00  2.47873448e+00  -4.19230623e+00   4.74551260e-01
C     8.865725340100001e+00   1.490019500943573e+00  -1.430530500000000e+00 -1.51907616e+00   5.10167770e-01   3.28143760e-01
C     1.002268852100000e+01   2.195301035511584e+00  -9.871304999999992e-01  2.33642986e+00  -4.60346610e-01  -9.71638180e-01
C     2.586778493600000e+00   3.653920972508206e+00  -5.645406000000008e-01  4.76851153e+00  -3.78756167e+00  -1.99652536e+00
C     3.838486020100000e+00   4.288270142480324e+00  -6.668099999999981e-01  2.44498910e-01   4.07203160e+00  -3.81347100e-01
C     5.026026786500000e+00   3.596793028424596e+00  -8.606253000000024e-01  2.95624761e+00  -1.03172846e+00  -9.21625280e-01
C     6.282179743300000e+00   4.336454753937707e+00  -9.619800000000005e-01  1.97221064e+00  -9.46976980e-01  -1.69318746e+00
C     7.581779508299999e+00   3.599399134423092e+00  -1.131423599999998e+00 -1.05388993e+00   3.74838000e+00  -1.69093520e-01
C     8.840054041300000e+00   4.346624715419386e+00  -1.126734300000003e+00 -2.66999300e-01  -6.66390670e-01   1.16696796e+00
C     1.004827088260000e+01   3.655200628618739e+00  -7.611384000000001e-01 -2.13179192e+00  -3.41540810e+00  -1.79080098e+00
C     1.128116942380000e+01   4.230689630841273e+00  -5.881670999999997e-01 -3.89981557e+00   7.48931218e+00   3.19767720e-01
C     3.930637333600000e+00   5.840950951688653e+00  -8.472296999999998e-01 -3.46825684e+00  -3.81735865e+00   2.68752545e+00
C     5.182420535599999e+00   6.406790530508368e+00  -8.862504000000015e-01 -4.44423630e-01   4.78246534e+00  -3.58142817e+00
C     6.397078421900000e+00   5.763072699798014e+00  -1.209171900000001e+00 -1.95372974e+00  -3.52134311e+00   1.90342070e+00
C     7.574123464800000e+00   6.416305720666442e+00  -1.491474900000000e+00  1.58032115e+00   1.11644902e+00   2.07122080e+00
C     8.868891386100000e+00   5.733339011405605e+00  -1.294773299999999e+00 -2.19952902e+00   1.80794200e-02   3.41133680e-01
C     1.006465199080000e+01   6.429259911905230e+00  -1.065088199999998e+00 -1.46264693e+00   2.34093872e+00  -6.74371190e-01
C     1.122080901810000e+01   5.791184659320060e+00  -6.579254999999975e-01  2.51555900e+00  -1.60430949e+00  -8.42745610e-01
C     1.246187928080000e+01   6.546883244245344e+00  -7.792412999999989e-01  1.61737137e+00  -1.39825740e-01  -1.26922641e+00
