64
Lattice="7.10842262195238 0 0 0 7.10842262195238 0 0 0 7.10842262195238 " PBC="1 1 1" Properties=species:S:1:pos:R:3:force:R:3 Energy="-513.38770677"
C     7.059745421414312e+00   2.589178963531420e-02   1.005003006860840e-02  2.43240921e+00  -3.16139930e-01  -7.63539650e-01
C     1.760005491376876e+00   1.780529426754923e+00   7.085322165759107e+00  4.15914830e-01  -2.52867160e-01   5.18163590e-01
C     1.691705065643320e-02   1.759244534735405e+00   1.758691712708247e+00 -7.44746430e-01   1.20814345e+00   5.75080490e-01
C     1.783090875761814e+00   5.352357895955200e-03   1.743500160558593e+00  7.36728690e-01  -2.82918220e-01   4.18959440e-01
C     9.008359685346814e-01   9.056426128260991e-01   8.833365248129916e-01 -8.29110940e-01  -5.21862520e-01  -3.28230610e-01
C     2.675492203268282e+00   2.645661849911904e+00   8.757246837030432e-01 -3.33956520e-01   8.18311670e-01  -1.64339800e-02
C     8.808275359650364e-01   2.693506865461469e+00   2.683371107816063e+00  4.96398650e-01  -1.70377212e+00  -7.50370680e-01
C     2.707065826187988e+00   9.219469885369145e-01   2.630663362520609e+00 -2.22152915e+00  -1.99004741e+00   1.34285519e+00
C     3.576317935674390e+00   1.126699202115240e-02   7.074400785245738e+00 -1.04305991e+00  -1.19947595e+00   1.24223188e+00
C     5.304609981458624e+00   1.740929826023427e+00   3.335485145982600e-03  6.60435760e-01   3.92110430e-01   4.37338400e-02
C     3.544961403981499e+00   1.749695790629959e+00   1.750792833492903e+00  8.59466020e-01   8.74321730e-01   6.31555150e-01
C     5.327964703976634e+00   7.050230371232084e+00   1.805983337556845e+00  1.18786209e+00   1.79303651e+00  -8.20461160e-01
C     4.436421007659269e+00   8.075736059287338e-01   9.317736008825763e-01  1.70534420e-01   2.10523199e+00  -1.68015917e+00
C     6.183572907086209e+00   2.662361525004618e+00   8.739834044980480e-01  9.17147480e-01  -8.10501700e-01   1.83394680e-01
C     4.405793942295642e+00   2.686869944513854e+00   2.648366604718814e+00  1.22496210e+00  -7.13116610e-01  -1.72009020e-01
C     6.239860809434226e+00   8.622905468777313e-01   2.639196739539014e+00 -5.42083090e-01   1.06976933e+00   1.07747860e-01
C     7.103440397669869e+00   3.552859074764997e+00   2.495461519709340e-02 -2.73707370e-01  -3.84016030e-01  -5.85983490e-01
C     1.742415699603686e+00   5.310444219323990e+00   2.334960445372360e-02  8.03475770e-01   1.19320607e+00  -5.97652000e-03
C     2.249275519110880e-02   5.309837586537598e+00   1.763864369680369e+00 -2.40159190e-01  -4.24727700e-02   9.55653930e-01
C     1.799324380499108e+00   3.551707083795200e+00   1.776917352884796e+00 -7.57957200e-02  -7.81853180e-01   1.22878800e+00
C     9.281632330338783e-01   4.411246031360955e+00   9.474247125546137e-01 -1.93502011e+00   4.46999580e-01  -2.47460461e+00
C     2.645309129981500e+00   6.196493247124546e+00   8.608316142192026e-01  1.16069378e+00   9.97416850e-01   5.65387400e-01
C     9.499359050135812e-01   6.184555859766101e+00   2.636737225312494e+00 -1.74517573e+00   1.21583392e+00   6.00569480e-01
C     2.672755247306903e+00   4.440265740201748e+00   2.677682876951313e+00  3.80174790e-01   2.83672220e-01  -3.88298170e-01
C     3.575685925819246e+00   3.578939664105099e+00   3.006749033498080e-02 -1.26548861e+00  -5.78100170e-01  -1.38966194e+00
C     5.345588118588816e+00   5.341286314471872e+00   1.214971594210400e-02 -3.71637470e-01  -7.42949800e-02  -2.32683880e-01
C     3.552696434055452e+00   5.322465770406255e+00   1.773450433004570e+00  5.22204240e-01   7.23118430e-01   3.62174730e-01
C     5.291288086626482e+00   3.546083966081649e+00   1.729915040836832e+00  8.83333480e-01  -1.37599000e-01   1.67222766e+00
C     4.448262786733475e+00   4.443098233363140e+00   8.782562773349299e-01 -1.97480120e-01   8.01515770e-01   5.47494460e-01
C     6.235561848686328e+00   6.227421496354584e+00   8.851360219992446e-01 -3.18408580e-01  -1.00840974e+00   5.92870480e-01
C     4.507301648635432e+00   6.245473762103431e+00   2.705293056670786e+00 -2.76896615e+00  -2.49864697e+00  -3.22161470e-01
C     6.190857974008315e+00   4.394086299156276e+00   2.661299384496737e+00  3.89378180e-01   1.61096697e+00  -4.05300860e-01
C     9.551587474494000e-04   7.091528600632855e+00   3.484062054627208e+00  1.31794971e+00  -3.45579290e-01   1.91990089e+00
C     1.786693708682535e+00   1.755204036233970e+00   3.574486308417895e+00 -1.06381890e-01   1.80881096e+00  -1.04466162e+00
C     7.086856376613182e+00   1.790183233346692e+00   5.276818110456984e+00  5.34387330e-01  -4.77196270e-01   1.48148214e+00
C     1.796812832619010e+00   1.050077514694260e-02   5.331888695431327e+00 -1.18346676e+00  -1.99240160e-01  -2.24001790e-01
C     8.812568136070582e-01   9.008149276037262e-01   4.426602641083847e+00  2.14973450e-01  -1.14496688e+00  -3.37827240e-01
C     2.656637396605637e+00   2.693288210381678e+00   4.448415475651352e+00  1.61949640e-01  -4.99874830e-01   5.68820040e-01
C     8.623862262461967e-01   2.636564064137471e+00   6.220393683247093e+00  1.07329640e-01   1.58752248e+00  -2.40611300e-02
C     2.646744462676930e+00   9.078293768766897e-01   6.209257557286376e+00  1.30304163e+00  -2.93119100e-01  -5.83561000e-02
C     3.546733533740665e+00   7.107611122473701e+00   3.543599998881316e+00  1.54534640e+00   1.01661642e+00   1.98524890e-01
C     5.355708450957137e+00   1.819717520900947e+00   3.537352335156372e+00 -1.61724032e+00  -1.59622509e+00  -3.30047780e-01
C     3.556319170559508e+00   1.798639555063897e+00   5.343216251213201e+00 -6.38713640e-01   2.18345600e-01  -4.27494050e-01
C     5.359046210798358e+00   2.009110352471560e-02   5.324871260620863e+00 -6.97126410e-01  -1.15919324e+00  -1.05422989e+00
C     4.431205557982975e+00   9.183174990313688e-01   4.447634899763450e+00  7.70857390e-01  -3.99367050e-01  -2.90796100e-01
C     6.204756646251845e+00   2.680107275570090e+00   4.422352230862444e+00  2.28548320e-01   2.14834520e-01   2.24063320e-01
C     4.428164361533461e+00   2.661687859792921e+00   6.246393378737780e+00  3.67508530e-01   1.08325080e-01  -4.69071520e-01
C     6.220798934420660e+00   8.795781596053451e-01   6.183116190932874e+00 -3.95138100e-01   9.93776560e-01   9.24377590e-01
C     7.078542720937961e+00   3.553312378875475e+00   3.531030743836180e+00  1.29955529e+00   3.77203900e-02   1.19303639e+00
C     1.816775842368112e+00   5.335080448271933e+00   3.571511291382973e+00 -1.17990961e+00  -6.08899960e-01  -2.32813680e-01
C     7.080973446052870e+00   5.315598038976168e+00   5.333276330610977e+00  1.58283409e+00   1.27642045e+00   2.07862900e-01
C     1.758997801386264e+00   3.578233655570481e+00   5.390312536608202e+00  5.13511600e-01  -8.59305000e-01  -1.47897298e+00
C     8.951227871065349e-01   4.432370770618846e+00   4.491181167817796e+00 -7.68176370e-01   6.75652990e-01  -1.50518860e+00
C     2.687050924953759e+00   6.226520788124403e+00   4.427410086809252e+00 -6.32164870e-01   5.19866080e-01   8.06839030e-01
C     8.994155635267530e-01   6.238996567412086e+00   6.245409146541815e+00 -1.39189038e+00  -7.32900860e-01  -5.99253560e-01
C     2.644991667827290e+00   4.504440437446656e+00   6.250399756810638e+00  2.27028490e-01  -2.25446965e+00   1.01825800e-02
C     3.544070931879892e+00   3.572430979101548e+00   3.543974612753390e+00 -1.60604400e-02  -2.46351660e-01   1.10083168e+00
C     5.335715799085708e+00   5.293458359136594e+00   3.589596895633908e+00 -1.99159100e-01   1.14130147e+00  -7.16595200e-01
C     3.519399800576884e+00   5.356616267609937e+00   5.361498119012674e+00  1.63672012e+00   1.74176850e-01  -2.73975510e-01
C     5.327958093143597e+00   3.549108955327590e+00   5.339585482191584e+00 -6.52954710e-01   4.33310630e-01   6.45852780e-01
C     4.410935890882045e+00   4.472902569892728e+00   4.503038443253313e+00  6.08057810e-01  -1.43047988e+00  -1.56314600e+00
C     6.255003455636255e+00   6.200936935356987e+00   4.404591481525243e+00 -8.15811790e-01   4.30976930e-01   8.79494530e-01
C     4.490764187746907e+00   6.223806721283861e+00   6.233250402902983e+00 -1.55892204e+00   6.77576910e-01  -8.46793530e-01
C     6.196588997577238e+00   4.470364649764710e+00   6.230329054458841e+00  1.09203907e+00  -1.30771672e+00   4.65070300e-02
