64
Lattice="7.10842262195238 0 0 0 7.10842262195238 0 0 0 7.10842262195238 " PBC="1 1 1" Properties=species:S:1:pos:R:3:force:R:3 Energy="-513.20873192"
C     4.341618392040020e-02   7.083122890884705e+00   2.917190016908700e-02 -2.00481014e+00   5.56592990e-01  -9.29481810e-01
C     1.757025853867250e+00   1.733335045127766e+00   7.141995700034261e-02  1.21206688e+00   1.13869375e+00  -1.79802309e+00
C     7.561015888215400e-03   1.778419433668628e+00   1.790278486209800e+00 -5.62435630e-01   1.76984000e-02  -1.45938900e-01
C     1.739307470728864e+00   7.071099704865238e+00   1.804939607863551e+00  1.80419803e+00   1.23734367e+00   1.09562080e-01
C     8.778230900604672e-01   8.448976584111154e-01   9.473542680864495e-01  1.87660000e-01   9.25359090e-01  -1.18975881e+00
C     2.668651554928377e+00   2.666508792013804e+00   9.070312431849161e-01 -1.28179290e-01   2.96327120e-01  -1.09693969e+00
C     8.943989364311403e-01   2.684276507605173e+00   2.632734472535172e+00  4.49650640e-01  -5.38281700e-02   9.70670430e-01
C     2.664919419800198e+00   8.665656233256256e-01   2.673764643318943e+00 -2.88351760e-01   9.28653480e-01  -5.39818040e-01
C     3.535461139318321e+00   4.156678560735480e-02   2.382608202194220e-02  1.05308470e-01  -1.40334451e+00  -5.72105770e-01
C     5.318719418432836e+00   1.766444656007202e+00   5.491967316212000e-03  1.03149586e+00   2.08661110e-01   4.16775920e-01
C     3.579500874070948e+00   1.802868995438571e+00   1.761008916313915e+00 -1.22668342e+00  -4.46135180e-01   1.41943348e+00
C     5.284534871884803e+00   2.046507763875380e-02   1.764553389084925e+00  1.70493780e+00   1.15462460e-01   6.23165900e-01
C     4.437380644712968e+00   9.106263279249812e-01   9.002599730497829e-01 -1.91213440e-01   7.82637100e-02  -4.05805070e-01
C     6.224888552122398e+00   2.705575687554158e+00   9.017779767002837e-01  7.52657500e-01  -2.17463647e+00  -1.14563680e+00
C     4.441523433415905e+00   2.700782904686849e+00   2.660047662357582e+00  8.18744620e-01  -1.71336890e+00   6.38539580e-01
C     6.238784167744201e+00   8.842074487523940e-01   2.676398313899653e+00 -1.93130555e+00   9.24665120e-01   3.38905490e-01
C     2.920061819647180e-02   3.559155075763757e+00   7.080230758057532e+00 -8.74725650e-01   5.27728280e-01   8.04304040e-01
C     1.788107787194331e+00   5.326287045154087e+00   7.722945755499000e-03  6.04481240e-01  -3.59781840e-01  -4.14625180e-01
C     7.107466181736479e+00   5.339265318836778e+00   1.765081829222496e+00 -7.04145250e-01   1.25855896e+00   1.78615580e-01
C     1.760006699808721e+00   3.588372967427196e+00   1.736066669772180e+00  1.02269818e+00  -8.41249480e-01   9.28898650e-01
C     8.847185443387721e-01   4.467606013114340e+00   8.742838064379692e-01  8.22279200e-02  -5.06265820e-01  -3.13568750e-01
C     2.669566408919571e+00   6.221093436369807e+00   9.078868129314595e-01 -8.51343710e-01   3.48965080e-01  -5.57241420e-01
C     8.873051571617376e-01   6.251567386310199e+00   2.700908226177639e+00 -1.24171404e+00  -1.41179403e+00  -5.20828890e-01
C     2.654953553455411e+00   4.485646763218543e+00   2.619077415576497e+00 -5.40302800e-01  -1.89961844e+00   1.64616174e+00
C     3.590919986336169e+00   3.546703038607625e+00   7.082020729957475e+00 -1.54723970e+00  -3.54293360e-01   3.37602910e-01
C     5.272685344629942e+00   5.317211579826681e+00   1.735748852196840e-02  1.82498225e+00   5.99144960e-01  -5.65623590e-01
C     3.531302072327585e+00   5.340187778840177e+00   1.785174709852867e+00  1.30301279e+00  -1.84934210e-01  -9.08643450e-01
C     5.368681251154411e+00   3.530347340085493e+00   1.779447382663707e+00 -1.21967547e+00   1.99865596e+00   3.25191390e-01
C     4.452641432898942e+00   4.419381478881093e+00   8.920333244674306e-01 -5.09458920e-01   2.25646790e-01   2.52353580e-01
C     6.176109063335208e+00   6.275345699732134e+00   8.730814167517962e-01  9.00410400e-01  -2.39382938e+00   5.17868660e-01
C     4.426714314403207e+00   6.237205955754108e+00   2.645056496641585e+00  1.54036920e-01  -2.88506220e-01   3.24316140e-01
C     6.229813480566213e+00   4.478149580965455e+00   2.645490608010988e+00  2.47331800e-01  -1.15029468e+00   1.72227150e-01
C     7.082238532026551e+00   3.327800941130380e-02   3.601227554556299e+00  5.64389220e-01  -7.57079460e-01  -1.57339432e+00
C     1.777509697741721e+00   1.771644396069506e+00   3.544773315118974e+00  4.45512770e-01   2.92040190e-01  -3.95670000e-03
C     2.733970423878200e-02   1.818879366789823e+00   5.365969316840655e+00 -9.45572920e-01  -2.12492324e+00  -4.71979640e-01
C     1.782125907391149e+00   7.095109184190775e+00   5.339065216740026e+00  2.16490840e-01  -4.10944700e-02  -4.85141120e-01
C     8.672265644608332e-01   9.029284749013309e-01   4.445036984548519e+00  8.32715460e-01  -2.14247900e-02   1.10094219e+00
C     2.711612302211514e+00   2.656771106035119e+00   4.449128663692816e+00 -1.47345128e+00   2.62377600e-01  -1.47306898e+00
C     9.295615308474586e-01   2.633019946787591e+00   6.245011288127773e+00 -8.05609290e-01   1.28497075e+00  -4.06139200e-01
C     2.661929830498905e+00   9.058667413913077e-01   6.220540969763780e+00 -7.12349770e-01  -8.68662950e-01   7.65460150e-01
C     3.527241243737458e+00   7.090830980036928e+00   3.546893046744258e+00  8.35455400e-01   3.55811200e-02  -3.95901500e-02
C     5.311756220886962e+00   1.768514913011051e+00   3.593480155826987e+00  6.09006100e-01  -2.18507870e-01  -6.36572970e-01
C     3.547172549921676e+00   1.769868854267483e+00   5.323295963084044e+00  8.29733500e-02  -5.83203720e-01   1.06367105e+00
C     5.327625205712303e+00   7.056419532638865e+00   5.376038895071467e+00 -8.91328350e-01   1.04594562e+00  -9.26384780e-01
C     4.384490994882668e+00   8.293602104167718e-01   4.477021616464113e+00  2.01328192e+00   1.24949879e+00  -7.04845910e-01
C     6.249028328834561e+00   2.659920777013814e+00   4.474492084274787e+00 -1.39537250e-01   6.14102960e-01  -1.48286359e+00
C     4.450564280725152e+00   2.601409288986035e+00   6.226606444616974e+00  1.92773690e-01   2.50895742e+00  -1.17573696e+00
C     6.205612002745709e+00   8.848817537221271e-01   6.242489646287554e+00  1.50314923e+00  -3.80809140e-01  -2.14385960e-01
C     3.478328898531500e-02   3.577828617649593e+00   3.530513890427480e+00 -1.32518940e+00  -5.12776770e-01   4.04509470e-01
C     1.749797654326103e+00   5.320756550187276e+00   3.526408420943298e+00  1.22816075e+00   8.53215550e-01   5.34825610e-01
C     7.108306112953258e+00   5.359869081800849e+00   5.294567344149541e+00  1.83876620e-01  -1.46263036e+00   1.48242136e+00
C     1.789088607347439e+00   3.535239427616803e+00   5.259143017612353e+00  3.12419280e-01   7.22570810e-01   3.02516060e+00
C     8.951517894708246e-01   4.460655184223826e+00   4.427203373879463e+00 -2.32155180e-01  -1.05617647e+00  -4.91632040e-01
C     2.686639205115608e+00   6.187408967353091e+00   4.388741547272524e+00 -1.49301217e+00   4.03667430e-01   1.78922024e+00
C     9.317849032745421e-01   6.157622259711601e+00   6.242893760113501e+00 -1.60802697e+00   2.85029867e+00  -1.22181309e+00
C     2.662811203819559e+00   4.475807782217522e+00   6.182090445548807e+00  2.95701980e-01  -2.57653260e+00   7.93532050e-01
C     3.568760687250164e+00   3.550460408636105e+00   3.550778012958766e+00 -1.44346290e-01   1.04070756e+00  -8.00269180e-01
C     5.341207268812337e+00   5.362096861449957e+00   3.514049717376166e+00 -3.96845420e-01  -6.83945370e-01   4.75255080e-01
C     3.539922456438859e+00   5.304989926647663e+00   5.321795232900509e+00  9.30374230e-01   1.14340858e+00  -8.47656050e-01
C     5.375147285622241e+00   3.555687871546626e+00   5.292091835972125e+00 -1.09781706e+00  -2.61258090e-01   1.53256205e+00
C     4.485143344728594e+00   4.443785333493589e+00   4.412668924316801e+00 -1.05131026e+00  -1.53701810e-01   5.14159800e-01
C     6.203996400452635e+00   6.217771812647933e+00   4.419020228843545e+00  3.58643510e-01   7.40369440e-01   1.28833315e+00
C     4.391817859329781e+00   6.191286256471170e+00   6.246070727435058e+00  8.81443250e-01   6.08228590e-01  -2.81783090e-01
C     6.209619731418865e+00   4.453686797529439e+00   6.212591336410930e+00  4.64934270e-01  -1.23148440e-01  -4.26625380e-01
