64
Lattice="7.10842262195238 0 0 0 7.10842262195238 0 0 0 7.10842262195238 " PBC="1 1 1" Properties=species:S:1:pos:R:3:force:R:3 Energy="-510.31805713"
C     2.295131953432500e-02   7.052528097759773e+00   2.504048494234300e-02  8.18427600e-02   2.57095292e+00  -1.05405926e+00
C     1.786098804793467e+00   1.819023028010973e+00   4.525612803136100e-02 -6.02960460e-01  -1.56372567e+00  -1.61428384e+00
C     7.089705005893920e+00   1.756870037243420e+00   1.785402037208254e+00  5.01005300e-02   1.41714613e+00  -2.28799030e-01
C     1.735855194199235e+00   3.885399828288420e-02   1.772749116028881e+00  2.18187390e-01  -1.25907149e+00   2.40213586e+00
C     8.585807321965796e-01   8.952133484107138e-01   9.012628293130124e-01  1.34042049e+00  -2.30209010e-01  -6.50319800e-02
C     2.665335617944599e+00   2.714005637023442e+00   9.244161702181978e-01  8.23660320e-01  -1.68107193e+00  -1.75931110e-01
C     8.410195873665481e-01   2.724745113001964e+00   2.628850856920961e+00  1.76616648e+00  -2.72470119e+00   7.85903360e-01
C     2.643681869875329e+00   9.249141863069549e-01   2.750112087795243e+00  1.57518917e+00  -1.56072701e+00  -3.90485619e+00
C     3.520549161430311e+00   7.077606683847359e+00   7.261665994841959e-02 -6.41438330e-01   8.61369120e-01  -2.30875275e+00
C     5.315061921742167e+00   1.766185625086930e+00   7.057510533342583e+00  1.47028793e+00   9.63325320e-01   5.48238670e-01
C     3.585699063174457e+00   1.817055274461305e+00   1.842472434718281e+00 -1.34734655e+00  -1.11155165e+00  -1.54327120e+00
C     5.306222953635328e+00   5.468445545762420e-02   1.758224333920982e+00  4.84418650e-01  -2.28140700e-01   4.32802110e-01
C     4.392152879287862e+00   9.327564113940175e-01   8.425419982390736e-01  1.46863791e+00  -1.08143218e+00   2.37901761e+00
C     6.230238635323115e+00   2.696332036947562e+00   8.475571325659360e-01 -2.99145970e-01  -1.31859409e+00   1.30317484e+00
C     4.522595775323493e+00   2.648074022043775e+00   2.695090053347395e+00 -2.06338152e+00   1.23627659e+00  -9.00072640e-01
C     6.228875950706861e+00   9.051350714510311e-01   2.732055912413955e+00 -1.78995591e+00   6.10765040e-01  -1.34413203e+00
C     6.728690683639600e-02   3.619335976843844e+00   1.662155352811980e-02 -3.12290493e+00  -2.57130578e+00  -1.82536312e+00
C     1.777236521060434e+00   5.334416948104582e+00   7.012080035704354e+00  1.53947985e+00  -1.13289987e+00   3.83291836e+00
C     7.046416275991097e+00   5.402174503602648e+00   1.772099335117186e+00  1.28636631e+00  -2.43599921e+00  -6.69501230e-01
C     1.776350953770435e+00   3.571116489590657e+00   1.748088434107124e+00 -8.33953160e-01   1.77582690e+00   6.09594490e-01
C     9.039877720401632e-01   4.497587704788297e+00   8.445608613473797e-01  4.19266500e-02  -2.02832500e-02   8.46031430e-01
C     2.614224353285371e+00   6.182291613908953e+00   9.647185806941331e-01  1.54902860e+00   1.24437275e+00  -2.92864698e+00
C     7.778326054446896e-01   6.254413740895699e+00   2.674758898390802e+00  2.37474106e+00   7.09636500e-02   6.14437940e-01
C     2.660184783829922e+00   4.458937576066154e+00   2.626486879894454e+00  5.79612570e-01  -1.72621625e+00   9.88317200e-01
C     3.607683779400914e+00   3.498249826418693e+00   2.434421494671400e-02 -1.37054288e+00   1.41517660e+00  -2.12971604e+00
C     5.315278586463625e+00   5.388295948195133e+00   7.068718525455989e+00  6.11318190e-01  -4.05039319e+00   1.34019805e+00
C     3.588074555845608e+00   5.274068999092925e+00   1.750059386446972e+00 -8.69594160e-01   1.64605235e+00   8.31642160e-01
C     5.323215140318855e+00   3.529415852385368e+00   1.764403472451870e+00  2.28511529e+00   7.08497590e-01  -3.15013220e-01
C     4.518091665498782e+00   4.378488571738115e+00   8.293727923248092e-01 -2.34828685e+00   2.06147455e+00   1.75430225e+00
C     6.181706590727327e+00   6.247843496952260e+00   8.592059179660086e-01  4.31738900e-02   1.91033820e-01   8.02337740e-01
C     4.476604067719415e+00   6.254165372609357e+00   2.662397777959980e+00 -8.79606460e-01  -3.46058400e-01  -9.68640590e-01
C     6.223745802102007e+00   4.433081470712393e+00   2.626316633172705e+00 -7.54370180e-01   4.63589700e-01   1.50062007e+00
C     7.044228232424435e+00   3.457167124391760e-02   3.636731495426830e+00  2.64808092e+00   4.03716070e-01  -1.72844269e+00
C     1.813966664832915e+00   1.805820199257716e+00   3.529707937470824e+00 -2.43979032e+00   3.99271390e-01   1.70571564e+00
C     6.350515491832980e-02   1.722532659609057e+00   5.371359918050305e+00 -1.88813975e+00   1.46125457e+00  -3.48663250e-01
C     1.779608672772955e+00   7.051815549476345e+00   5.316294948729833e+00  2.75244110e-01   2.26670893e+00  -3.66112570e-01
C     8.984071626938799e-01   9.092261108372937e-01   4.466390117425188e+00  8.01499400e-01  -1.29697098e+00  -1.16482315e+00
C     2.701650558751846e+00   2.646380298186108e+00   4.428236085517696e+00 -2.06208860e-01   9.35304890e-01  -5.08982200e-01
C     8.789974014772912e-01   2.618196895266558e+00   6.209386717325381e+00  2.43136343e+00   3.08553396e+00   1.30036870e+00
C     2.649111069819807e+00   9.196054741258867e-01   6.182120656344942e+00 -4.60026980e-01  -2.57196707e+00   2.95536057e+00
C     3.570946811542719e+00   1.044483186092320e-02   3.562009249614140e+00 -1.69186659e+00  -1.00273923e+00  -3.90659480e-01
C     5.329981079137023e+00   1.827344218614172e+00   3.619961944539762e+00  3.62193400e-01  -3.29208615e+00  -1.43850770e-01
C     3.528647787321277e+00   1.744528749311707e+00   5.337002565748381e+00  2.75642370e-01   9.14041820e-01  -8.41245490e-01
C     5.287909240102517e+00   7.046591214271776e+00   5.417775714147893e+00  1.44591072e+00   2.88766254e+00  -2.23978902e+00
C     4.374850978630782e+00   8.803839703935484e-01   4.462535504175269e+00  2.74856824e+00  -5.95886440e-01   6.78172520e-01
C     6.224686246414634e+00   2.602553176354045e+00   4.540039204674938e+00  5.29750090e-01   1.69387931e+00  -2.33656465e+00
C     4.421748014939744e+00   2.619465890872680e+00   6.174126097761133e+00  1.13845975e+00   1.37370423e+00   7.97586870e-01
C     6.296280644106071e+00   9.078005166808525e-01   6.232723810955293e+00 -3.13237797e+00  -3.08660212e+00   1.07905184e+00
C     7.062605495255469e+00   3.463787269461992e+00   3.589405465812751e+00  1.28751803e+00   3.15483644e+00  -1.25485602e+00
C     1.724164966695288e+00   5.292705648265363e+00   3.537550091473660e+00  6.54623140e-01   1.17758512e+00  -1.02782862e+00
C     7.078248858746850e+00   5.336835091311453e+00   5.347943423339728e+00  2.12156419e+00  -8.57526110e-01  -5.54268930e-01
C     1.823295047837141e+00   3.532842325340887e+00   5.277220020671919e+00 -1.29826797e+00  -1.43248590e-01   1.45256953e+00
C     8.699306084254812e-01   4.410307790659342e+00   4.418553631982768e+00 -1.09939590e-01  -1.93964800e-01   7.73581500e-01
C     2.656608465325573e+00   6.161192251719816e+00   4.400447981980045e+00 -3.38341850e-01   1.67924769e+00   6.59963990e-01
C     9.328859268541541e-01   6.197045855899026e+00   6.212652255592783e+00 -2.05287329e+00   4.39319560e-01  -5.57110600e-01
C     2.705359733674962e+00   4.409700731367594e+00   6.192793455319289e+00 -5.06221020e-01   2.56169090e-01  -2.65957620e-01
C     3.622449750288309e+00   3.527413551901767e+00   3.530654992616487e+00 -1.75761769e+00   1.20976968e+00   1.26727990e-01
C     5.371454531155377e+00   5.395603122311589e+00   3.530379825576866e+00 -1.59117680e-01  -1.50021568e+00   3.21039150e-01
C     3.547915948759276e+00   5.338835827942079e+00   5.281420245429624e+00  4.92201840e-01  -2.25905498e+00   6.40220740e-01
C     5.378999268755793e+00   3.590979554917724e+00   5.303170810214978e+00 -2.20630377e+00  -1.84382168e+00   9.64173910e-01
C     4.471764084925909e+00   4.459673368891552e+00   4.360562978080355e+00  5.70851220e-01   3.94655420e-01   1.93761433e+00
C     6.270887510317549e+00   6.273693702315247e+00   4.515559147771955e+00 -3.62392634e+00  -2.07241037e+00  -8.38261270e-01
C     4.390877912606738e+00   6.154377620206701e+00   6.238558688578695e+00  8.70312800e-02   2.70020947e+00  -1.53083970e-01
C     6.203427584474583e+00   4.429401511406245e+00   6.212434240271028e+00  1.32281364e+00   2.08848989e+00   3.28622110e-01
