64
Lattice="7.10842262195238 0 0 0 7.10842262195238 0 0 0 7.10842262195238 " PBC="1 1 1" Properties=species:S:1:pos:R:3:force:R:3 Energy="-501.41201858"
C     7.078747017004059e+00   2.257052133457160e-02   4.286037635574240e-02  1.10365826e+00  -6.07931000e-03  -1.89172303e+00
C     1.815338590398575e+00   1.770174800777048e+00   2.483469610749400e-03  6.83910740e-01  -5.63463670e-01  -4.64901680e-01
C     1.188575888495554e-01   1.768834649860499e+00   1.759614314880097e+00 -6.07094932e+00   2.37374021e+00   4.10056374e+00
C     1.683935204298529e+00   7.066400753176512e+00   1.747714033487729e+00  2.58017584e+00   3.65614476e+00   6.38648740e-01
C     8.709797405199670e-01   1.004065974591072e+00   9.177162686461693e-01  3.16604528e+00  -6.12105337e+00  -3.90416726e+00
C     2.683709895238133e+00   2.558103569953150e+00   9.380246055661521e-01  1.03780380e-01   4.85984002e+00  -1.55766242e+00
C     8.622269975795086e-01   2.672776927995894e+00   2.762960277343989e+00  2.25116379e+00   5.83446800e-02  -2.88010943e+00
C     2.685863747291993e+00   9.647542649756855e-01   2.662247861326924e+00 -2.12497280e+00  -3.91926592e+00   1.98906518e+00
C     3.566290297137035e+00   6.972907580088093e+00   7.082747921591500e+00 -1.81153436e+00   3.65135821e+00   1.36143579e+00
C     5.283778322465357e+00   1.879291789194643e+00   5.983415222468320e-02  3.08820100e-02  -6.64225208e+00  -2.16473303e+00
C     3.593821857702330e+00   1.741252121905018e+00   1.757220837899717e+00 -2.07240413e+00   3.69867290e-01   3.11009970e+00
C     5.301596934362685e+00   7.087246486846567e+00   1.840566169024276e+00  2.67461822e+00   2.43909875e+00  -2.39862744e+00
C     4.344677146293406e+00   7.959435156801518e-01   9.774188439681561e-01  4.09725625e+00   9.05053940e-01  -3.09651189e+00
C     6.175408315033328e+00   2.674689164764900e+00   8.385250286165116e-01  2.76577013e+00   5.34566900e-01   3.08836747e+00
C     4.466371066852568e+00   2.712353426353875e+00   2.627506938540424e+00  1.31959969e+00  -2.52510973e+00  -8.32806400e-02
C     6.323992829690140e+00   8.690182423822043e-01   2.639750841082243e+00 -3.66509253e+00   1.04969821e+00   1.53290345e+00
C     7.359257528991940e-02   3.497349900115001e+00   1.106511281874440e-01 -1.88976803e+00   1.12125531e+00  -5.72830299e+00
C     1.677098110169934e+00   5.357666465967815e+00   7.082905373152533e+00  3.66941529e+00  -4.24028475e+00   1.56186241e+00
C     1.273857767194480e-02   5.344155202757078e+00   1.721620933323816e+00 -1.89724115e+00  -1.30675733e+00   1.56444930e+00
C     1.755546377867350e+00   3.590746825161145e+00   1.738739649929979e+00  4.87068186e+00  -4.42839690e+00   4.76561319e+00
C     9.478980624168796e-01   4.350086300486095e+00   9.107409156976156e-01 -3.30677731e+00   4.77081576e+00  -1.42723969e+00
C     2.600579451729376e+00   6.115468105143155e+00   9.044059605428977e-01 -5.42627040e-01   3.76376284e+00  -1.55318526e+00
C     7.712122471217788e-01   6.293555914631598e+00   2.632635665460754e+00  4.31118282e+00  -3.63325017e+00  -3.03636820e-01
C     2.799318437360764e+00   4.374096490653895e+00   2.642531656011187e+00 -5.01117822e+00   2.92247906e+00  -1.81616969e+00
C     3.669737820925597e+00   3.558841878663120e+00   7.926822424663220e-02 -6.52210134e+00   3.49844930e-01  -2.68774480e+00
C     5.341854703944566e+00   5.336764291422158e+00   7.101898580803589e+00  1.66584981e+00   1.84836249e+00  -3.50337657e+00
C     3.560600715671987e+00   5.387879750050732e+00   1.733549008648628e+00  1.00337881e+00  -2.87988166e+00   2.07962819e+00
C     5.330443837449585e+00   3.562606499282672e+00   1.710536201258640e+00 -3.99063210e-01   1.50693776e+00   2.00204097e+00
C     4.463925200797478e+00   4.553157656451694e+00   8.008448441608680e-01  3.15783580e-01  -3.24933357e+00   3.74166789e+00
C     6.241228896451672e+00   6.249374935521512e+00   8.147431609832658e-01 -2.00846979e+00  -1.89169366e+00   3.75584388e+00
C     4.468778049835926e+00   6.296207924942668e+00   2.688554285253663e+00 -1.24382825e+00  -2.71415447e+00   9.62103930e-01
C     6.130366221607056e+00   4.387667464614641e+00   2.680431135304658e+00  3.13469929e+00   2.68423262e+00  -1.42787783e+00
C     7.075563723186371e+00   7.053436980675966e+00   3.564529256517156e+00  1.85686216e+00   4.91452357e+00  -1.13145312e+00
C     1.808574357601835e+00   1.791372188114114e+00   3.711565983232689e+00 -1.78869195e+00  -1.09874758e+00  -6.36844831e+00
C     8.905801496312239e-02   1.731126529303959e+00   5.318373593672373e+00 -4.56606836e+00   3.13175655e+00   3.58821122e+00
C     1.691212380871528e+00   7.072605339860379e+00   5.308624320964817e+00  3.05721467e+00  -7.21837850e-01   1.69914784e+00
C     8.555487766964709e-01   9.146587228246287e-01   4.514328324395303e+00  3.21446909e+00  -3.54483910e+00  -3.24817243e+00
C     2.723052384323463e+00   2.662343682863841e+00   4.363868678935560e+00 -2.79788900e-01   6.66449650e-01   4.62832106e+00
C     9.615098387234652e-01   2.677069988753017e+00   6.212647635118079e+00 -2.82278230e-01  -1.19236026e+00   3.72158820e-01
C     2.695954721874892e+00   8.391227758746274e-01   6.241938743534504e+00 -1.70481374e+00  -4.37674040e-01  -1.41037159e+00
C     3.528872413476069e+00   7.087654297052277e+00   3.597808900865663e+00  7.82507900e-02   2.34461890e+00  -3.11460112e+00
C     5.334817010129635e+00   1.939584292509864e+00   3.710501710198023e+00 -1.43754452e+00  -5.87197080e+00  -7.12927440e+00
C     3.625377638481261e+00   1.790089686505014e+00   5.269885763465282e+00 -6.46558016e+00   8.31387910e-01   4.97219249e+00
C     5.288129174698381e+00   6.861639511901460e-02   5.322555691952398e+00  1.47784039e+00  -1.82346264e+00  -1.20927150e-01
C     4.293741459672892e+00   9.354624457169991e-01   4.450858285084715e+00  8.17907007e+00  -2.12056835e+00  -1.02558791e+00
C     6.244183441229448e+00   2.682781250907056e+00   4.468187055579299e+00  5.08844410e-01   7.97922300e-01   3.05479097e+00
C     4.336644273311674e+00   2.614124622116012e+00   6.274064548723332e+00  4.98046805e+00   2.56493340e+00  -1.18196788e+00
C     6.254628983932633e+00   8.053050950180132e-01   6.230929787254458e+00 -2.01004947e+00   4.81443822e+00  -6.23611710e-01
C     7.092838896174400e+00   3.542857239801753e+00   3.530219957152143e+00 -9.21115360e-01   1.83690377e+00   2.22107058e+00
C     1.765365526369260e+00   5.406558765421986e+00   3.479960921280826e+00 -3.45452200e-01  -3.91066787e+00   1.24406290e-01
C     7.092164235783535e+00   5.348940308527956e+00   5.320931133046822e+00 -6.70521000e-03  -1.59343029e+00   7.75666300e-02
C     1.852419961332709e+00   3.539054873458088e+00   5.292811848099305e+00 -1.66719975e+00   2.50250024e+00   9.77470940e-01
C     8.896672859983635e-01   4.502282178170772e+00   4.458485480387523e+00  6.33245910e-01  -2.07786027e+00  -2.52859542e+00
C     2.670936983884933e+00   6.134392574347476e+00   4.321467862102201e+00 -1.52945122e+00   3.92285293e+00   3.56138572e+00
C     8.316244562739203e-01   6.110112335204342e+00   6.240094463285745e+00 -9.40873600e-02   6.10809949e+00  -6.94742570e-01
C     2.612972417893536e+00   4.553955434722337e+00   6.190592687676137e+00  1.64416042e+00  -4.32086388e+00   3.55879430e-01
C     3.582518825978495e+00   3.458304614179412e+00   3.492285077914024e+00  3.43264820e-01   4.68050956e+00   4.88881090e-01
C     5.342181193795503e+00   5.386113093776984e+00   3.592059679734833e+00 -5.55719550e-01  -2.30492421e+00  -1.42180252e+00
C     3.503311449829490e+00   5.306653937298779e+00   5.265915211842428e+00  1.43161834e+00   1.03018154e+00   7.29320830e-01
C     5.298580475223888e+00   3.519063643271183e+00   5.427102959804500e+00  1.40380423e+00   1.74074816e+00  -2.50499510e+00
C     4.435866124189552e+00   4.464875241480641e+00   4.427292726751796e+00  1.88191840e-01  -2.10001533e+00   1.13047280e+00
C     6.305947032605878e+00   6.241559509187727e+00   4.414454488994719e+00 -5.28978676e+00  -7.93279500e-01   1.94089196e+00
C     4.462798160391077e+00   6.223305079899568e+00   6.162682248185195e+00 -7.57142350e-01  -1.06810600e+00   2.36726310e-01
C     6.222947384073329e+00   4.466976420122887e+00   6.172827388948459e+00 -4.78602120e-01  -1.62468411e+00   2.96791037e+00
