64
Lattice="7.10842262195238 0 0 0 7.10842262195238 0 0 0 7.10842262195238 " PBC="1 1 1" Properties=species:S:1:pos:R:3:force:R:3 Energy="-513.24562699"
C     7.095180694922333e+00   7.089942853714786e+00   2.717222980185480e-02 -3.25978180e-01  -2.03111920e-01  -1.03466850e+00
C     1.758434885398987e+00   1.765847406338670e+00   7.089791231060301e+00 -3.24613890e-01   6.76915210e-01   1.67510113e+00
C     7.092683363887474e+00   1.781898153530404e+00   1.814811358692849e+00  9.71148040e-01  -5.46622260e-01  -9.51691010e-01
C     1.795310040992915e+00   7.084218156641995e+00   1.811617828746588e+00 -9.74012020e-01   1.46209659e+00  -1.97392333e+00
C     8.638966238844942e-01   8.768716276927802e-01   8.732373044598528e-01  5.60967300e-01   1.54125000e-03   1.43003527e+00
C     2.661553439521176e+00   2.661894928143841e+00   9.075067966581942e-01  1.71705200e-01  -1.59791010e-01  -1.18567430e+00
C     9.323800915005147e-01   2.647686328674080e+00   2.649344794755552e+00 -1.61374020e+00   1.19942727e+00   5.38075650e-01
C     2.663451104023812e+00   9.174054173249965e-01   2.655903949559705e+00  6.08106250e-01  -1.78559234e+00   1.14635287e+00
C     3.526721973465067e+00   1.643218514952300e-02   7.108124137334186e+00  1.29275045e+00  -2.19092680e-01   4.98696410e-01
C     5.382846915751546e+00   1.808330609790195e+00   7.053226500282188e+00 -1.24735012e+00  -7.64916420e-01   3.05144338e+00
C     3.544287667685575e+00   1.791293355707258e+00   1.812622675368151e+00  7.88836930e-01   1.81640880e-01  -1.72033132e+00
C     5.338843931543865e+00   1.289922802315680e-02   1.780162489979279e+00 -1.30068391e+00  -3.37925000e-02  -5.89111120e-01
C     4.466252711615944e+00   9.164570826632623e-01   8.707335047604102e-01 -9.15962000e-01   6.81495000e-02   3.09978350e-01
C     6.247782577770407e+00   2.663124969594006e+00   9.422654194170177e-01 -9.35848070e-01   7.83996930e-01  -1.83197317e+00
C     4.434887365479004e+00   2.680519208660920e+00   2.677629634865889e+00  3.80640760e-01  -1.49896110e-01   2.19378780e-01
C     6.187593857425437e+00   8.996525583369037e-01   2.689587636649932e+00  1.71309206e+00  -6.25156730e-01  -3.47480700e-01
C     7.074375621429665e+00   3.563041108241659e+00   1.623613485366340e-02  1.75200429e+00  -1.57122280e-01  -3.68527340e-01
C     1.812200079643392e+00   5.313189634308285e+00   7.074863401389849e+00 -1.37157625e+00   8.87658610e-01  -1.92434750e-01
C     7.104152732700618e+00   5.344188683427617e+00   1.809422463504627e+00  1.96643670e-01   1.03764320e-01  -1.83737948e+00
C     1.775939091763832e+00   3.593985138169912e+00   1.755801428070955e+00  3.53836300e-02  -1.79950204e+00   1.70456360e-01
C     8.871973223905922e-01   4.460564480751194e+00   8.369639479249334e-01 -5.88609000e-03   2.51471070e-01   1.94528176e+00
C     2.669801057950258e+00   6.252714330299936e+00   8.702934934002322e-01 -3.91633220e-01  -2.21153747e+00   8.64283550e-01
C     8.777121275833690e-01   6.229988276678439e+00   2.661240455673218e+00  4.94119840e-01  -1.33182820e-01   7.38092120e-01
C     2.663900356333396e+00   4.419305632011738e+00   2.678197171327870e+00 -3.30412570e-01   1.68195532e+00  -6.70082110e-01
C     3.577164264471528e+00   3.501498802061390e+00   7.081795321876195e+00 -4.71654360e-01   4.02993670e-01   5.11727600e-01
C     5.322021565076731e+00   5.288931857780630e+00   7.106631155331307e+00 -3.91571810e-01   1.86899627e+00  -1.77877110e-01
C     3.521526356287882e+00   5.293030361010644e+00   1.766503158325365e+00  1.13704818e+00   1.19268970e+00  -7.23908260e-01
C     5.354983960523707e+00   3.577103629626579e+00   1.786420460917022e+00 -9.42445550e-01  -1.05812902e+00   1.49227070e-01
C     4.419105814251889e+00   4.400734522495857e+00   8.530977214928688e-01  8.72283030e-01   7.59828620e-01   1.08154325e+00
C     6.175440942693154e+00   6.220796375388517e+00   9.046285963393561e-01  1.54462933e+00  -7.42780690e-01  -7.58439000e-03
C     4.424950217161601e+00   6.210228923237398e+00   2.621989594155459e+00 -1.97999970e-01   4.61854210e-01   1.08917018e+00
C     6.245731087002274e+00   4.466515510000206e+00   2.693376496990618e+00 -2.38725310e-01  -5.53068260e-01  -1.27570447e+00
C     1.209114253971520e-02   1.133672564705460e-02   3.574544242062248e+00 -9.28986670e-01  -5.60574850e-01  -8.37043000e-03
C     1.793262175520319e+00   1.753363878870331e+00   3.536557613507456e+00 -3.56815860e-01   1.60680341e+00   6.12524590e-01
C     7.080074230591440e+00   1.758368563815942e+00   5.359757053060358e+00  1.60787763e+00   7.98803900e-01  -1.19797574e+00
C     1.784982000515638e+00   3.777302045506080e-02   5.332927378144561e+00 -1.03076971e+00  -1.69427891e+00   1.73086350e-01
C     9.254927408239968e-01   8.877017360597074e-01   4.430418229093584e+00 -1.62725813e+00   4.05597220e-01   4.81628190e-01
C     2.632464352475612e+00   2.664843644015069e+00   4.461652780254316e+00  2.11220671e+00  -8.24649550e-01  -5.43350380e-01
C     8.718565644501440e-01   2.675966192888584e+00   6.227280962839385e+00 -3.96265040e-01  -9.63211730e-01   2.32725860e-01
C     2.624689586319213e+00   8.776996878437840e-01   6.253142044088982e+00  1.92913122e+00   7.59808880e-01  -1.27521567e+00
C     3.544668181548424e+00   2.545142285400520e-02   3.587909285019694e+00  6.85891790e-01  -1.27288218e+00  -1.27456049e+00
C     5.328181510866544e+00   1.753734440941512e+00   3.558842802758060e+00  4.78044760e-01   2.36100864e+00  -3.41824100e-01
C     3.580115326122220e+00   1.755374282955720e+00   5.355668004032429e+00 -5.64424350e-01   7.41717310e-01  -1.10487839e+00
C     5.328875719419613e+00   3.345479588186320e-02   5.343796156330542e+00 -2.98903680e-01  -1.93373461e+00  -5.18825400e-02
C     4.502838909830371e+00   8.948562212582849e-01   4.410664491306414e+00 -2.93597319e+00  -4.47275170e-01   2.10717890e+00
C     6.231223365108663e+00   2.685873770167887e+00   4.447542348100938e+00  4.38744300e-02  -1.18432237e+00  -4.46875680e-01
C     4.499609624518330e+00   2.667924363294351e+00   6.192266507950468e+00 -1.41199879e+00  -2.78822270e-01   1.51464350e-01
C     6.207080318522096e+00   8.699020325665487e-01   6.243442530339765e+00  1.10533987e+00   5.12050570e-01  -7.64434280e-01
C     2.838997368088700e-02   3.580299505352305e+00   3.561883288365314e+00 -3.94215360e-01  -1.54721316e+00  -1.61601680e-01
C     1.779984068571517e+00   5.354276388136111e+00   3.534388691597642e+00 -3.71600950e-01  -9.54520870e-01   1.58850990e+00
C     9.639731914982000e-04   5.316149510403028e+00   5.347013144071448e+00 -4.73556690e-01   5.46735970e-01  -1.27875191e+00
C     1.772821408686926e+00   3.518332897425847e+00   5.340716858735783e+00 -7.52734380e-01   7.08253690e-01  -5.48587350e-01
C     8.869980022203273e-01   4.426147062278130e+00   4.446049081761155e+00  6.34860250e-01   1.00908050e+00   1.92492700e-02
C     2.645209114475236e+00   6.214066547357258e+00   4.499828279598121e+00  8.59104140e-01   6.75660110e-01  -2.19918535e+00
C     8.579484380045306e-01   6.227104247453052e+00   6.167545333352216e+00  1.37815868e+00  -9.31767000e-02   2.10468327e+00
C     2.674320024378244e+00   4.371841485746153e+00   6.190594393697565e+00  4.60976420e-01   1.58826811e+00   8.39026380e-01
C     3.557803906792148e+00   3.581608379209325e+00   3.567147430736554e+00 -3.38452140e-01  -1.38154271e+00  -6.66182300e-02
C     5.329985628527500e+00   5.345118038600956e+00   3.495865377135040e+00 -2.09230880e-01   2.25707540e-01   2.20665992e+00
C     3.541226212231594e+00   5.307921724473055e+00   5.325267981687285e+00  9.28824650e-01   3.62718860e-01   5.25424700e-02
C     5.343531580840624e+00   3.562499730774920e+00   5.299604656754977e+00  2.93213170e-01   5.84526940e-01   1.37781760e-01
C     4.475360378097819e+00   4.455949337365159e+00   4.401345491420046e+00 -1.36669867e+00   8.93998900e-02   7.79744100e-01
C     6.166698435881269e+00   6.205036647018846e+00   4.482682479901777e+00  2.13460198e+00   7.54009590e-01  -1.59837829e+00
C     4.431656800650893e+00   6.226583768748815e+00   6.224287961495235e+00 -5.17642650e-01  -3.62199450e-01  -1.13182110e-01
C     6.239233064632653e+00   4.455827427917226e+00   6.204537564666696e+00 -1.22944765e+00  -1.04590414e+00   9.68038290e-01
