52
Lattice="8.88768389401873 1.33226762955019e-15 0 4.44384194700937 7.69696003302603 0 0 0 30 " PBC="1 1 1" Properties=species:S:1:pos:R:3:force:R:3 Energy="-416.48160678"
C     1.287876291440877e+01   7.051667913785682e+00  -4.140644999999985e-01  5.71092220e-01   3.42241053e+00  -3.63465050e-01
C     9.158033551436262e+00   6.982143352013900e+00  -4.653138000000006e-01 -1.92345702e+00   1.02991650e-01   1.45705278e+00
C     1.048240088133940e+01   6.576217456380546e+00  -3.860192999999974e-01  7.74605960e-01  -7.42641480e-01  -1.51946055e+00
C     1.085995920193209e+01   5.227297502066937e+00  -4.772834999999986e-01 -1.86692734e+00  -2.59664549e+00   3.91500390e-01
C     6.705007867427913e+00   6.343240482320485e+00  -4.267964999999982e-01  1.99555578e+00  -2.01826020e-01   1.05829808e+00
C     8.154801703071401e+00   6.013563982437123e+00  -3.352506000000020e-01 -2.70446394e+00  -2.21790690e+00  -1.31220219e+00
C     8.455958337765516e+00   4.584045080260569e+00  -3.817334999999993e-01  7.75198680e-01   1.04379966e+00   1.16918120e-01
C     9.828239349271044e+00   4.174607831461530e+00  -4.741278000000015e-01 -1.83867170e-01   8.68511970e-01   2.45223120e-01
C     1.012391294960191e+01   2.776784317962113e+00  -4.723019999999991e-01  2.41296456e+00   1.73584763e+00   1.34258795e+00
C     4.351133318215342e+00   5.710001112786744e+00  -3.807084000000032e-01  4.47319030e-01   5.83657340e-01  -6.94918210e-01
C     5.703008385275660e+00   5.319888159717423e+00  -4.024092000000010e-01  1.29621057e+00   4.11001710e-01  -1.72637310e-01
C     6.094904539697685e+00   3.949241149661531e+00  -4.478955000000013e-01 -8.27725040e-01   2.60587000e-02   3.43433790e-01
C     7.445870885540884e+00   3.593326328792702e+00  -3.641790000000000e-01  1.31318972e+00  -1.93181754e+00  -3.92839460e-01
C     7.887210647416595e+00   2.136767544213156e+00  -3.691484999999979e-01 -8.68252925e+00   3.30352410e+00  -3.19246250e-01
C     9.144385665130345e+00   1.805397944031996e+00  -3.239652000000000e-01  2.69413442e+00  -2.45583599e+00  -1.12379032e+00
C     3.306468820697091e+00   4.808275459851339e+00  -4.772055000000002e-01  3.88416830e-01  -2.69010470e+00   1.01002014e+00
C     3.654964459368259e+00   3.398324847037456e+00  -3.519708000000001e-01  2.04214280e-01  -6.22166680e-01  -1.28116638e+00
C     5.070404419328694e+00   2.954580400114299e+00  -4.758564000000014e-01 -2.02260802e+00   2.13740209e+00   1.09834760e+00
C     5.370726411682481e+00   1.607852001230033e+00  -4.415751000000014e-01  8.01243160e-01  -1.18141392e+00  -9.47613500e-02
C     6.759838830045531e+00   1.172982918917468e+00  -4.633277999999983e-01  9.21474020e-01   1.14099017e+00   2.15376090e-01
C     1.151977059012176e+01   7.491684261148708e+00  -5.030399999999986e-01  7.44256530e-01   9.04114890e-01   1.16683304e+00
C     2.604856166527698e+00   2.399855487728179e+00  -3.295647000000024e-01  8.79644640e-01   3.38365710e-01  -5.78031870e-01
C     2.951225871223908e+00   1.007655296257080e+00  -3.057818999999995e-01 -2.11755540e-01   6.84568000e-01  -3.83800880e-01
C     4.302230700735591e+00   6.474903679988860e-01  -3.905079000000029e-01  1.76821808e+00  -1.95586260e-01  -2.23477170e-01
C     5.466857024328525e-01   4.166907869617118e-01  -4.174269000000024e-01  1.21501041e+00  -1.75417214e+00   8.95854610e-01
C     1.925761481597271e+00   2.222989814104420e-02  -3.643628999999997e-01 -8.17300720e-01  -8.04953000e-02  -3.17367180e-01
C     4.808512506657041e-01   6.105922961590706e-01   3.814293000000000e+00 -1.19556118e+00  -7.55555960e-01   1.09481192e+00
C     7.295357606002661e+00   7.666988760369582e+00   3.767740200000000e+00 -1.27353153e+00   1.31545820e-01   8.35198350e-01
C     4.203177374716100e+00   3.571582647616753e-01   3.805314900000000e+00 -5.70575250e-01   1.14543726e+00  -6.81432980e-01
C     9.631603744479747e+00   7.055470135070901e+00   3.856903800000000e+00  3.94666780e-01  -1.57825991e+00  -8.54030070e-01
C     1.100168900975498e+01   7.435971509302759e+00   3.863376300000000e+00  3.54973340e-01   2.06729000e-01  -2.99271430e-01
C     1.210118527195930e+01   6.518535591250123e+00   3.809368200000000e+00 -1.41511904e+00  -1.44699803e+00   1.42617582e+00
C     4.560096854240491e+00   6.929636076142045e+00   3.860693100000000e+00  5.00023100e-02  -3.75094200e-01  -6.20609360e-01
C     5.539615871887879e+00   5.933431470351995e+00   3.836315700000000e+00  2.00217014e+00  -2.30504988e+00   1.81926410e-01
C     6.948086999407708e+00   6.255599200878090e+00   3.842642700000000e+00 -1.34922041e+00   1.89512146e+00  -9.58145550e-01
C     7.925248381145165e+00   5.252576012136664e+00   3.703572600000000e+00  1.36088820e-01  -1.38054180e-01   8.72908240e-01
C     9.284268168901338e+00   5.622188420044481e+00   3.730225500000000e+00  1.42278519e+00   3.10242974e+00   4.17691540e-01
C     1.039539218796606e+01   4.746504507735378e+00   3.743527800000000e+00 -1.18448152e+00  -1.37941324e+00   9.22688820e-01
C     1.176340333443275e+01   5.097551925020436e+00   3.936241500000000e+00  4.63520100e-02   1.71450894e+00  -2.09945381e+00
C     3.890951886695178e+00   4.103550420099773e+00   3.831940200000000e+00 -4.35612810e-01   1.49067613e+00   6.90212940e-01
C     5.248411263801351e+00   4.489429891213393e+00   3.823668300000000e+00 -1.00610454e+00   2.01546251e+00   7.14608460e-01
C     6.239401126229953e+00   3.504010034908579e+00   3.923831100000000e+00 -6.08528220e-01  -1.63791030e-01  -1.62082509e+00
C     7.559245247678147e+00   3.878851295643176e+00   3.793008300000000e+00  2.29239419e+00   8.43400740e-01  -1.03056630e-01
C     8.625977951987434e+00   2.956899725080139e+00   3.753442800000000e+00  3.27331010e-01  -2.19633013e+00   1.31593037e+00
C     1.001744311858078e+01   3.370136193349987e+00   3.764271600000000e+00 -4.47566600e-02  -7.50544060e-01  -1.26296432e+00
C     2.184645716752892e+00   2.396046339178932e+00   3.646949400000000e+00 -2.56261025e+00  -7.02651630e-01   2.24780942e+00
C     3.506385847804678e+00   2.769867598770354e+00   3.822754499999999e+00  1.01679459e+00  -1.04706028e+00  -1.59698236e+00
C     4.502931756936736e+00   1.779001681426713e+00   3.710496000000000e+00  1.39939071e+00  -1.39440927e+00   1.13607899e+00
C     5.884983310915702e+00   2.145765213518626e+00   3.771061800000000e+00 -5.66813920e-01  -1.06210693e+00   1.01767348e+00
C     6.870649495103340e+00   1.115280964721367e+00   3.867883500000000e+00  2.09065099e+00   1.06868132e+00   1.22964390e-01
C     8.298810397555567e+00   1.502861771880018e+00   3.954398700000000e+00 -1.08937209e+00   2.95985961e+00  -2.09709859e+00
C     1.817177270842004e+00   1.020897069323092e+00   3.807895199999999e+00  1.74760991e+00  -1.29497531e+00  -1.37452900e+00
