52
Lattice="8.88768389401873 1.33226762955019e-15 0 4.44384194700937 7.69696003302603 0 0 0 30 " PBC="1 1 1" Properties=species:S:1:pos:R:3:force:R:3 Energy="-411.85943005"
C     1.238175372120554e+01   6.579239667736325e+00  -1.171769999999839e-02  1.94337925e+00   6.22873979e+00  -1.13759940e-01
C     8.728818588750181e+00   6.337118551221423e+00   6.285510000000000e-02 -2.27662705e+00  -2.25774264e+00  -9.73209650e-01
C     1.002333258840038e+01   5.912396140407607e+00   5.171550000000000e-02  1.29178665e+00   3.44769577e+00   1.66749246e+00
C     1.037540614206611e+01   4.642485865649951e+00   2.457999000000000e-01  7.87244430e-01  -3.82158005e+00  -1.05821203e+00
C     6.284708584906188e+00   5.806125829635004e+00  -1.695446999999994e-01  1.15897113e+00   1.81889070e-01   1.37884642e+00
C     7.701885020538194e+00   5.351825309909103e+00   1.503600000000000e-03 -3.55757767e+00   2.03868930e-01  -4.20314560e-01
C     7.927670318599423e+00   3.953041677615543e+00   8.027490000000001e-02  3.77462498e+00   7.25248620e-01  -4.19601930e-01
C     9.413956006652278e+00   3.626836660644913e+00   1.731957000000000e-01 -3.36937310e+00  -2.27156648e+00  -2.32966580e-01
C     9.713447622643674e+00   2.193057183213353e+00   5.206890000000000e-02  2.83184588e+00   5.54591656e+00  -5.72002630e-01
C     3.834435861081519e+00   5.319240691439699e+00  -1.407509999999945e-02  2.25359959e+00  -5.20677582e+00   1.12045760e+00
C     5.195650506286645e+00   4.878976117115705e+00   3.263970000000000e-02  2.27060464e+00  -1.55299007e+00  -1.45789217e+00
C     5.552347744045437e+00   3.400541263647694e+00   6.001110000000000e-02  9.20889940e-01   6.94936420e-01   7.57551720e-01
C     6.935991926010246e+00   2.953236356953860e+00  -3.639539999999997e-02  4.89766600e-01  -5.71507730e-01   3.95467840e-01
C     7.385211686186520e+00   1.512092582104797e+00  -9.089849999999799e-02 -4.54889113e+00   3.69039172e+00   2.40583236e+00
C     8.764736426805820e+00   1.276464236223201e+00  -8.827110000000005e-02 -3.55701052e+00  -2.53104134e+00   1.73018690e-01
C     2.858354109436143e+00   4.308036172973585e+00   1.649226000000000e-01  4.75732600e-02  -1.70286786e+00  -1.46696349e+00
C     3.187950888239946e+00   2.949148116633925e+00  -1.135052999999999e-01  1.03589497e+00  -3.31148038e+00   3.42304507e+00
C     4.583134661139147e+00   2.386839851347849e+00   2.527188000000000e-01 -2.32382241e+00   1.61733552e+00  -3.68441108e+00
C     4.931044423687013e+00   9.749314397807343e-01   1.374006000000000e-01 -1.07154270e+00   2.20345782e+00   5.76616260e-01
C     6.241345971774103e+00   6.052142762469089e-01   2.560248000000000e-01  4.68918577e+00  -8.18411650e-01  -2.72222511e+00
C     1.101620699660992e+01   6.911105721839420e+00   1.109079000000000e-01  7.99381570e-01   1.62592122e+00  -4.74043700e-02
C     2.178817751018314e+00   1.874239785449117e+00  -1.272978000000009e-01  2.59018988e+00   5.32336640e-01  -4.67838820e-01
C     2.613303375572493e+00   5.039159707448844e-01  -3.307634999999998e-01  1.06739729e+00  -4.38926220e-01   2.12137402e+00
C     8.437890167230492e+00   7.648562853814565e+00  -7.022339999999971e-02 -3.40869455e+00   4.93997211e+00  -5.51958680e-01
C     4.678443742485754e+00   7.656666290303749e+00  -9.355770000000163e-02 -2.02255509e+00  -4.04312820e+00  -3.60114930e-01
C     6.038074957960740e+00   7.265203983171569e+00  -2.110434000000012e-01 -1.80190030e+00  -3.02132834e+00  -2.39848010e-01
C     8.276318785844876e-01   1.000882818096284e+00   3.314809200000000e+00  1.15309326e+00   5.22317150e+00  -3.03990560e-01
C     3.294185594409315e+00   5.478515270793294e-01   3.387808200000000e+00 -1.40714500e+00   1.33262240e-01   3.73458560e-01
C     4.649735897061728e+00   1.004253932650223e+00   3.442868400000000e+00  9.49569420e-01  -3.33179165e+00  -6.52646000e-02
C     1.019577889801112e+01   7.640354892608173e+00   3.468571800000000e+00 -4.15474492e+00   7.14279240e-01   1.24316267e+00
C     7.049207863314815e+00   3.641748135250233e-01   3.485794200000000e+00  8.04957390e-01  -6.65117040e-01  -8.81605980e-01
C     1.244306394231404e+01   6.981276597344921e+00   3.427954200000000e+00  1.98157860e+00   1.18467521e+00  -7.56749720e-01
C     4.947603116127508e+00   7.358198423345228e+00   3.342152700000000e+00 -1.55581800e-01  -1.14598121e+00  -2.10208990e-01
C     6.002258124570226e+00   6.380289568516089e+00   3.285123600000000e+00 -2.53070000e-03   2.46118997e+00   7.36247140e-01
C     7.398047860426013e+00   6.847780368645401e+00   3.424106100000000e+00 -1.23034428e+00   3.77201670e-01  -7.22430100e-01
C     8.408109403781767e+00   5.882952266478446e+00   3.505409100000000e+00  2.37674747e+00   1.77848677e+00   4.75084510e-01
C     9.845444617919725e+00   6.255564333649154e+00   3.627277200000000e+00 -2.84777823e+00   1.22775329e+00  -9.62016400e-01
C     1.081474595422150e+01   5.259525135530150e+00   3.580013700000000e+00 -1.47533235e+00  -1.75926884e+00  -8.28388100e-01
C     1.209489745721128e+01   5.613473229172112e+00   3.337355700000000e+00  4.03072854e+00   3.18215900e-01   4.97616760e-01
C     4.281774987801615e+00   4.578435920638707e+00   3.186461400000000e+00 -8.67006020e-01   6.02210331e+00   9.90536140e-01
C     5.622223204676317e+00   5.040125752902209e+00   3.240949500000000e+00  8.14914140e-01   1.81144200e-02  -1.04627968e+00
C     6.698551185848940e+00   4.149630349498576e+00   3.164479500000000e+00  6.54642310e-01  -1.54256485e+00   2.82700847e+00
C     8.053053097289160e+00   4.574430884456698e+00   3.411433800000000e+00  4.85200290e-01  -3.64563387e+00  -1.36620374e+00
C     9.091522344614274e+00   3.535331736176260e+00   3.350853600000000e+00  1.02421924e+00  -1.39937021e+00   1.24973000e-03
C     1.050743468547989e+01   3.871180813155680e+00   3.443272500000000e+00 -1.35325781e+00  -5.80495450e-01   1.35482634e+00
C     2.690682219347616e+00   2.849357337723377e+00   3.558089100000000e+00 -6.59255576e+00   1.34702583e+00  -2.16175884e+00
C     3.959293642571726e+00   3.304963107931165e+00   3.357471000000000e+00  1.08632242e+00  -3.19167246e+00   4.79434360e-01
C     4.973528086834145e+00   2.347911167512919e+00   3.396803400000000e+00  2.80130829e+00   1.74567640e-01   6.77701180e-01
C     6.391912359283949e+00   2.782063970725091e+00   3.463072500000000e+00 -2.07001148e+00  -1.19786954e+00  -2.80340701e+00
C     7.333602639091137e+00   1.751450412999328e+00   3.302842800000000e+00  3.01555889e+00   1.85211350e-01   9.71982750e-01
C     8.754416315445132e+00   2.110601805560771e+00   3.191535600000000e+00 -1.43301694e+00  -2.22458910e-01   1.62923934e+00
C     2.194730571097018e+00   1.524970135022189e+00   3.378745800000000e+00  2.36337776e+00  -2.54490177e+00   6.26275150e-01
