52
Lattice="8.88768389401873 1.33226762955019e-15 0 4.44384194700937 7.69696003302603 0 0 0 30 " PBC="1 1 1" Properties=species:S:1:pos:R:3:force:R:3 Energy="-416.10451005"
C     1.204723556399601e+01   6.082667135647262e+00  -2.876772000000010e-01  5.45030550e-01   1.04291761e+00  -4.06743770e-01
C     8.197186623003232e+00   5.774365709524014e+00  -2.424540000000022e-01  1.82037763e+00   1.65324097e+00  -1.20962235e+00
C     9.601182756800023e+00   5.409959602350090e+00  -4.453187999999990e-01  3.86886110e-01   1.13340739e+00   1.22326488e+00
C     9.953250044569012e+00   4.017505949985202e+00  -3.715223999999999e-01 -5.31576120e-01   2.85637831e+00  -8.08629410e-01
C     5.826823464956481e+00   5.252308773684423e+00  -3.095447999999976e-01  1.81815556e+00  -1.15507230e-01   6.11676680e-01
C     7.151207814741355e+00   4.795712635629575e+00  -3.156411000000006e-01  1.85971668e+00   9.03727750e-01   7.58433350e-01
C     7.503946300400933e+00   3.408211977043992e+00  -2.742560999999988e-01 -1.58973350e-01   2.49055519e+00  -1.21643718e+00
C     8.856364227242540e+00   3.093971961409597e+00  -4.208910000000010e-01  2.69335723e+00  -1.56605455e+00   1.28754705e+00
C     9.308994236224249e+00   1.742763393000669e+00  -3.471930000000008e-01 -1.19394740e-01  -2.10744620e-01   4.43593040e-01
C     3.542745230569245e+00   4.749272257592565e+00  -3.074784000000008e-01 -2.67687313e+00  -3.38102267e+00  -5.76112700e-02
C     4.874855821678391e+00   4.238824184748622e+00  -3.028881000000005e-01 -2.29031847e+00   2.52407909e+00  -9.72897310e-01
C     5.160450033058519e+00   2.892804675883119e+00  -4.923941999999997e-01  1.15129550e-01   1.47421350e-01   1.54301334e+00
C     6.468709591300652e+00   2.472581215176438e+00  -3.381794999999990e-01  2.29020889e+00  -8.63737360e-01  -1.79030700e-01
C     6.886453041346645e+00   1.132430715303410e+00  -2.900072999999992e-01 -2.80203930e-01  -1.78928610e+00  -7.93406290e-01
C     8.271339099417824e+00   7.411912351640986e-01  -2.812716000000002e-01  7.84274420e-01   3.91919860e-01   2.86933280e-01
C     2.457699541218323e+00   3.726772527252027e+00  -3.519542999999992e-01  6.15275210e-01   8.89016160e-01   5.39581900e-02
C     2.821672281530682e+00   2.375791711890387e+00  -3.117330000000003e-01  7.85646480e-01   5.13152980e-01  -1.46766680e-01
C     4.150467011156430e+00   1.958788659260258e+00  -3.857693999999974e-01  5.05563610e-01  -2.13661628e+00   9.21710700e-02
C     4.508992445549264e+00   5.694370357266620e-01  -3.168804000000023e-01 -9.57052580e-01  -2.25227141e+00  -1.21924570e-01
C     5.870352982063982e+00   9.613287562589160e-02  -3.969435000000026e-01 -1.03345280e-01   3.21350902e+00   5.55282570e-01
C     1.068406198435447e+01   6.476409436279530e+00  -4.518356999999966e-01 -1.74551093e+00  -3.51023851e+00   8.08911970e-01
C     1.857371910376547e+00   1.429110886325363e+00  -2.466977999999997e-01 -4.74607854e+00  -4.32990214e+00  -4.11228300e-02
C     6.548717236060764e+00   7.656669753935762e+00  -1.579239000000001e-01  1.84987322e+00   9.83081580e-01  -5.49035820e-01
C     7.913377458557788e+00   7.218594964740303e+00  -1.930569000000020e-01  1.95253140e-01   4.23831260e-01  -4.05294520e-01
C     4.201076508356040e+00   7.065608339913616e+00  -2.103065999999991e-01 -9.21747390e-01  -4.40388600e-02  -5.35160720e-01
C     5.563722692816455e+00   6.642473504075588e+00  -2.259174000000002e-01 -1.68672720e+00   1.03001414e+00   3.45095110e-01
C     1.307392610450576e+00   1.632545234459078e+00   3.801831000000000e+00 -1.57326105e+00   5.84425460e-01   4.24537550e-01
C     3.673857496308030e+00   1.046418572420966e+00   3.704611200000000e+00  2.20237954e+00   1.44231351e+00   4.94646790e-01
C     5.112579677962055e+00   1.429211485592956e+00   3.660431400000000e+00 -1.55235656e+00   6.66375460e-01   1.69817970e-01
C     6.113835170808225e+00   4.703672310621234e-01   3.643416300000000e+00  1.13311946e+00  -1.14424091e+00  -1.25333627e+00
C     7.501895287947071e+00   8.796573139853899e-01   3.630389100000000e+00 -1.27560250e+00  -1.86881250e-01  -1.66183490e-01
C     1.296212676777441e+01   7.581493006535550e+00   3.590460300000000e+00 -1.57653532e+00  -3.11249870e-01   1.14020125e+00
C     9.380182896274503e-01   2.899296291972421e-01   3.778350900000000e+00  2.10913328e+00  -2.03925372e+00  -2.26909760e-01
C     6.424557091544521e+00   6.941633866528008e+00   3.846638400000000e+00  4.04530620e-01   3.51083748e+00  -1.01509450e-01
C     7.800247419167068e+00   7.420140709791457e+00   3.775682400000000e+00 -1.32992890e-01  -3.83432913e+00  -8.49989760e-01
C     8.854873542619162e+00   6.414550200032024e+00   3.577375200000000e+00 -1.24234122e+00  -1.35868034e+00   9.90540890e-01
C     1.019434998007441e+01   6.779388106663632e+00   3.474656700000000e+00  1.63633293e+00   3.93525220e-01   8.78203280e-01
C     1.123058441930345e+01   5.768098228910786e+00   3.513368400000000e+00 -4.78404090e-01   2.40832490e-01   5.22595290e-01
C     3.730640600952233e+00   6.187878960476541e+00   3.667530600000000e+00 -1.25166590e+00  -7.03994320e-01  -6.70849480e-01
C     4.719407831384327e+00   5.188147222752744e+00   3.832256100000000e+00 -1.18588440e-01  -1.57292780e+00  -2.85372710e-01
C     6.103180752015945e+00   5.611616568473676e+00   3.901687800000000e+00 -3.61679950e-01  -2.33402090e+00  -4.14196730e-01
C     7.154135906527161e+00   4.626113892878939e+00   3.859371000000000e+00  7.65593960e-01   3.88178490e-01  -5.27585240e-01
C     8.550747886383132e+00   4.978305540242055e+00   3.719233800000000e+00 -3.19629676e+00   2.82476075e+00   1.48146130e-01
C     9.495013283737276e+00   3.973348875141094e+00   3.759380100000000e+00  5.94152120e-01   2.09916596e+00  -5.08074980e-01
C     1.080359977597620e+01   4.391931420938979e+00   3.625570800000000e+00  3.79234206e+00  -1.83821880e-01   1.45686340e-01
C     2.928824465500996e+00   3.350351465471273e+00   3.699205800000000e+00  2.48473294e+00   2.50582571e+00   5.83730740e-01
C     4.344101470313548e+00   3.732090818754357e+00   3.796645200000000e+00  1.46529592e+00   1.89699782e+00  -7.64217070e-01
C     5.493735823631523e+00   2.791566637578129e+00   3.707042700000000e+00 -2.52801245e+00   1.52010808e+00   5.89179770e-01
C     6.869372380755782e+00   3.253520706479461e+00   3.750488700000000e+00 -3.50525015e+00   1.29797820e-01   2.28215080e-01
C     7.825050852955544e+00   2.274264267888269e+00   3.710799300000000e+00  1.39627859e+00  -1.89518049e+00   4.30358120e-01
C     9.174119367697084e+00   2.653857323866987e+00   3.842806500000000e+00  2.69706740e-01  -2.87981747e+00  -8.20964950e-01
C     2.641326243849417e+00   1.999826002265007e+00   3.806506800000000e+00  5.64241380e-01   1.92335170e-01  -7.29901480e-01
