52
Lattice="8.88768389401873 1.33226762955019e-15 0 4.44384194700937 7.69696003302603 0 0 0 30 " PBC="1 1 1" Properties=species:S:1:pos:R:3:force:R:3 Energy="-412.64638448"
C     1.207142401783934e+01   6.080850960958585e+00  -3.765749999999990e-01 -3.46966895e+00  -2.92592810e+00  -5.97486060e-01
C     8.252850320638697e+00   5.954684008508431e+00  -2.170221000000012e-01  2.84469380e+00   1.21136970e-01   9.85875020e-01
C     9.772164686135145e+00   5.537745379433753e+00  -9.335639999999756e-02 -5.08934124e+00  -7.65890940e-01  -1.69045727e+00
C     1.005467735973074e+01   4.151408886052708e+00  -3.084951000000018e-01  7.40351930e-01  -2.43940123e+00   1.57256041e+00
C     5.908726360537458e+00   5.309825615991802e+00  -3.538569000000003e-01 -1.34207867e+00  -2.29315085e+00   4.34773830e-01
C     7.240569654652541e+00   4.951667362183030e+00  -2.487134999999974e-01  2.33550014e+00   9.52991930e-01  -1.47273351e+00
C     7.627458310237270e+00   3.611819275869581e+00  -5.287085999999981e-01  2.37951773e+00   8.64227500e-02   2.86947162e+00
C     8.983214495478490e+00   3.131494487616646e+00  -2.092722000000009e-01  2.46535600e-01   2.32311156e+00  -2.08997777e+00
C     9.254020222970068e+00   1.733962150115165e+00  -1.965855000000012e-01 -2.39486800e-01  -5.47631360e-01  -1.61902443e+00
C     3.546539160565917e+00   4.650949827746940e+00  -5.640074999999989e-01 -4.35153600e-01   1.36209811e+00   2.06490048e+00
C     4.915107297728063e+00   4.303220262052415e+00  -4.579206000000013e-01 -1.02209715e+00   4.63572040e-01   9.64783000e-03
C     5.203658930356456e+00   2.950191978353194e+00  -3.290672999999984e-01  3.63076652e+00   1.55599498e+00  -2.07237279e+00
C     6.681963078350417e+00   2.654930357064770e+00  -5.313713999999976e-01 -5.01182450e+00  -3.79556107e+00   7.46284350e-01
C     6.912833909111170e+00   1.221766405526809e+00  -5.195676000000020e-01  1.60712005e+00   7.01014600e-01   1.37628651e+00
C     8.235577192476130e+00   7.220000968428983e-01  -3.680918999999996e-01  1.16450514e+00   4.07359820e-01  -1.45731620e-01
C     2.581637315349655e+00   3.619799714937486e+00  -3.892799999999994e-01 -3.96657034e+00   3.91312473e+00  -5.60235850e-01
C     2.820772403470104e+00   2.273089942696493e+00  -3.952188000000021e-01 -1.32654022e+00  -5.29052680e-01  -1.47639440e-01
C     4.197397048392048e+00   2.028793203459511e+00  -3.907838999999989e-01 -1.59675900e-02  -4.32643110e+00   9.26252450e-01
C     4.579330020281098e+00   6.343688984181433e-01  -2.372679000000026e-01 -3.59360972e+00   1.46976171e+00  -9.15940950e-01
C     5.887087246700936e+00   3.236999643592668e-01  -2.423105999999997e-01  1.92267309e+00  -4.64349419e+00  -4.05710380e-01
C     1.068874010568808e+01   6.539945840117571e+00  -1.717614000000012e-01  2.47047987e+00   1.68099327e+00  -7.84715450e-01
C     1.685569825560180e+00   1.283044675231249e+00  -3.721572000000002e-01  3.31907576e+00   9.82085870e-01   1.56130936e+00
C     6.526479451054813e+00   7.623386251495635e+00  -2.626214999999981e-01 -6.56480570e-01   7.12250610e-01  -4.94055170e-01
C     7.955178413476526e+00   7.374866575138194e+00  -2.847717000000003e-01 -7.21490410e-01  -3.02489203e+00   1.06297669e+00
C     4.172111768694609e+00   6.979374755491109e+00  -4.133645999999978e-01 -1.21858819e+00   4.74596858e+00   8.98164780e-01
C     5.446711535011986e+00   6.575789505402877e+00  -2.364333000000016e-01  5.43615088e+00   3.79733764e+00  -9.20791410e-01
C     1.291211382118519e+00   1.674129369504358e+00   3.546365700000000e+00  2.83101520e-01  -4.13183593e+00   2.72430606e+00
C     3.636877665591826e+00   1.007762360971098e+00   3.520431600000000e+00  1.40916548e+00  -1.64982665e+00   1.51518005e+00
C     4.973953272962116e+00   1.317556227644163e+00   3.675410100000000e+00  2.81961509e+00   3.57784246e+00   2.87047750e-01
C     6.042919096710862e+00   3.729089389190658e-01   3.666736500000000e+00 -1.08581762e+00   8.86086240e-01   8.99042330e-01
C     7.384029446009121e+00   7.941946570794869e-01   3.773653800000000e+00  1.82528353e+00   2.54002810e-01   5.88741500e-01
C     1.288917719164484e+01   7.548436872294709e+00   3.871132800000000e+00  1.04723615e+00  -7.93085050e-01  -9.08235260e-01
C     9.877922078099358e-01   1.378707189629708e-01   3.772487400000000e+00 -1.99582391e+00   5.23695275e+00  -1.56777598e+00
C     6.479741342964069e+00   6.954973006138400e+00   3.617193900000000e+00 -2.10668207e+00  -3.56906520e+00   5.69233550e-01
C     7.805647886897111e+00   7.311679998133516e+00   3.597886200000000e+00  5.15246000e-03   1.46617050e-01   1.77657210e-01
C     8.781158647985539e+00   6.313309775669425e+00   3.824146200000000e+00  1.55254570e-01  -1.05963996e+00  -1.53809276e+00
C     1.013448316349321e+01   6.723921657538644e+00   3.799053900000001e+00  5.31980060e-01  -1.19650552e+00  -5.43168020e-01
C     1.117264160855545e+01   5.750642447197950e+00   3.781100400000001e+00  7.52059500e-02   2.83397590e-01   1.23403962e+00
C     3.646543913962209e+00   6.198005542909611e+00   3.827020500000000e+00  5.41184640e-01  -1.44803811e+00  -9.14146910e-01
C     4.719583852006455e+00   5.253858094768861e+00   3.673148400000000e+00 -9.44151770e-01  -2.34911062e+00   1.08742836e+00
C     6.094449846803922e+00   5.510258842440220e+00   3.656796900000000e+00 -1.66977190e-01   3.29597318e+00   4.90015930e-01
C     7.030696642443671e+00   4.515188537649791e+00   3.801234000000000e+00  3.11811873e+00  -1.20349976e+00  -8.21573740e-01
C     8.464896015054922e+00   4.857326492791323e+00   3.750936600000000e+00 -3.82972761e+00   5.23793722e+00   7.71779290e-01
C     9.474845173716247e+00   3.997728842096919e+00   3.692826900000000e+00  9.93810940e-01  -3.21335334e+00   1.11110651e+00
C     1.080793163309939e+01   4.384548035060602e+00   3.863253300000000e+00  2.98956252e+00  -7.43257890e-01  -2.49432998e+00
C     3.012773305910983e+00   3.404068318611842e+00   3.652545000000000e+00 -2.14851000e-02   3.35358070e-01   2.21329256e+00
C     4.405776219595019e+00   3.854316850699550e+00   3.750578400000000e+00 -1.30454072e+00  -2.45287576e+00  -3.02032600e-01
C     5.406456945827381e+00   2.746701288472060e+00   3.870406800000000e+00 -3.34235130e+00  -9.89577100e-02  -1.72991216e+00
C     6.729840142994711e+00   3.112519249024288e+00   3.842342100000000e+00  1.11048913e+00   8.60974200e-01   4.83680330e-01
C     7.773654221264072e+00   2.142534414546033e+00   3.853144200000000e+00  2.84117640e-01   1.50514785e+00  -1.16471399e+00
C     9.151049295520634e+00   2.601146309463139e+00   3.704508300000000e+00 -9.28035770e-01  -8.28280890e-01  -2.17616740e-01
C     2.675899911867020e+00   1.978350944994105e+00   3.714243900000000e+00 -1.53400515e+00   3.07997306e+00  -2.51352466e+00
