52
Lattice="8.88768389401873 1.33226762955019e-15 0 4.44384194700937 7.69696003302603 0 0 0 30 " PBC="1 1 1" Properties=species:S:1:pos:R:3:force:R:3 Energy="-414.73811371"
C     4.374018749890851e+00   7.505107220653827e+00  -1.754043000000003e-01 -1.32032996e+00  -4.52417020e-01   4.81772600e-01
C     9.395073502518326e+00   7.364826044718260e+00  -2.187057000000010e-01  1.96833029e+00   1.32951249e+00   1.21827239e+00
C     1.083353567450095e+01   7.009938229226234e+00   4.094430000000000e-02 -1.50179980e+00  -3.34941340e+00  -8.06687060e-01
C     1.121581486606162e+01   5.531907158281397e+00   3.241830000000000e-02  5.29088360e-01   4.06439416e+00  -1.12321495e+00
C     7.024519303588233e+00   6.660924810598704e+00  -4.152626999999995e-01  1.03496047e+00   6.54680769e+00   5.42918200e-01
C     8.332401624199377e+00   6.412685842373558e+00  -1.450856999999992e-01  4.05578709e+00  -2.87673528e+00  -9.96533680e-01
C     8.754362413528955e+00   5.014845164653274e+00  -1.046550000000011e-01  3.67248850e-01  -5.53714700e-02  -2.43197270e-01
C     1.018046132839404e+01   4.653906537972865e+00  -1.389834000000008e-01 -2.69868945e+00  -1.61140874e+00   4.27182990e-01
C     1.050341558556212e+01   3.277171001624442e+00  -2.953565999999981e-01 -1.07979716e+00  -2.82852922e+00  -1.75718000e-02
C     4.755591237342742e+00   6.143655922684975e+00  -9.840990000000005e-02 -3.11585353e+00   1.98342600e-01  -1.25920541e+00
C     6.060884797736201e+00   5.752829153542472e+00  -2.744009999999975e-01 -9.84954820e-01  -1.91913622e+00   9.94231620e-01
C     6.380757250530017e+00   4.398557348980805e+00  -8.768609999999910e-02  1.08472459e+00   4.51239760e-01  -1.09955605e+00
C     7.727683921805852e+00   3.969885397066794e+00  -1.639656000000009e-01  8.59085250e-01   5.60020264e+00   7.30100090e-01
C     8.059869283034917e+00   2.693939705040814e+00  -1.478811000000029e-01  3.64977013e+00  -6.12806986e+00  -9.89919900e-02
C     9.472558060415285e+00   2.201061098009349e+00  -2.701548000000003e-01 -2.53518040e-01   1.87305449e+00  -4.82453840e-01
C     3.714213049762292e+00   5.153622431568579e+00  -1.462164000000001e-01 -1.23861384e+00   1.61070502e+00   1.99547728e+00
C     4.035829710525728e+00   3.808905325309752e+00  -1.258473000000002e-01 -1.61065468e+00  -8.13608680e-01  -1.72142694e+00
C     5.378449499126020e+00   3.473693864499217e+00  -1.469249999999995e-01  4.92651700e-02  -3.00307990e+00   7.61513910e-01
C     5.738888540737992e+00   2.085547738845520e+00  -1.268904000000006e-01 -1.69350837e+00  -1.76332326e+00  -9.43040910e-01
C     7.085660255260724e+00   1.680766458138227e+00  -6.215010000000021e-02 -1.80447270e-01  -2.05253735e+00  -1.28415110e-01
C     7.436889301071434e+00   2.079673957737826e-01   3.413400000000000e-03  4.01061650e-01   3.24385092e+00  -7.68766250e-01
C     2.973605238205921e+00   2.844634713957769e+00  -3.633126000000004e-01  1.19885580e-01   1.16278195e+00   1.25798092e+00
C     3.276101469100194e+00   1.485676076494634e+00  -3.963353999999981e-01  7.54061510e-01  -2.34278953e+00  -5.92348080e-01
C     4.668524238656894e+00   1.071684921293845e+00  -3.524225999999970e-01  2.87009540e-01   4.59222810e-01   1.41197098e+00
C     9.295871219217100e-01   7.536713940351417e-01  -4.087803000000001e-01 -1.81080759e+00   4.32885464e+00   1.21930526e+00
C     2.253266500714643e+00   4.421078423119784e-01  -4.489991999999994e-01  2.38136898e+00  -1.64662262e+00  -3.75718470e-01
C     9.260655554669821e-02   1.574177647159582e-01   3.512060400000000e+00  1.00719531e+00  -1.04924309e+00   1.41788700e-02
C     6.915345083641546e+00   7.203343053592857e+00   3.702380400000000e+00  1.06088845e+00   1.56379819e+00   2.30017160e-01
C     8.288704616109900e+00   7.598663000122473e+00   3.764872800000000e+00  8.00075410e-01  -1.92053668e+00   1.76623340e-01
C     9.345566880815101e+00   6.572112436687746e+00   3.858001200000000e+00 -3.14590560e-01   4.39501266e+00  -2.43569090e+00
C     1.069001571084257e+01   7.038973856395405e+00   3.506500800000000e+00 -9.49792580e-01   3.90334760e-01   1.46471730e+00
C     1.168120776808902e+01   6.067949778373900e+00   3.426299700000000e+00  3.49337615e+00   1.14518803e+00   1.53965380e-01
C     4.246392808379449e+00   6.445501446613461e+00   3.369926400000000e+00 -1.12674171e+00   6.68462240e-01   1.15995936e+00
C     5.317608682588517e+00   5.452073519154234e+00   3.527214900000000e+00 -3.45217867e+00   1.20079431e+00  -1.77278493e+00
C     6.617548613780619e+00   5.838705214171587e+00   3.624069300000000e+00  1.50195666e+00   4.19224690e-01   7.07717230e-01
C     7.641838672455101e+00   4.854067830823421e+00   3.697282500000000e+00 -1.96197926e+00   1.16590148e+00  -6.42188500e-01
C     8.958117721725317e+00   5.263387700982004e+00   3.750311100000000e+00  1.42909806e+00  -1.15571740e+00   7.89133360e-01
C     9.962351744069956e+00   4.299020261872845e+00   3.756804600000000e+00  2.90378721e+00  -4.89631280e-01  -3.17246840e-01
C     1.140186141899445e+01   4.742459755239614e+00   3.617621100000000e+00 -2.10778951e+00  -3.25021718e+00  -4.56572880e-01
C     3.560298361175683e+00   3.767304333922006e+00   3.479799000000000e+00  1.85654870e-01  -1.90777335e+00   1.86377010e-01
C     4.967622488670402e+00   4.119204728317588e+00   3.350021400000000e+00 -1.61597870e+00  -2.24598852e+00   2.30557259e+00
C     5.934475490207960e+00   3.054480244948472e+00   3.574564800000000e+00 -1.35704046e+00   1.98713589e+00  -2.70825349e+00
C     7.276176559447732e+00   3.524661286547470e+00   3.545571000000000e+00 -6.58285700e-02  -2.30126568e+00   1.22801770e+00
C     8.269419449734357e+00   2.526783284677298e+00   3.628413000000000e+00  6.39478190e-01  -2.75630850e-01  -4.67775400e-02
C     9.616853830488127e+00   2.922794495187208e+00   3.776941500000000e+00  1.40015348e+00   6.94528600e-02  -1.05105308e+00
C     1.779223883872149e+00   1.966926962978379e+00   3.677471100000000e+00  2.49496261e+00  -1.46580029e+00   4.72785100e-01
C     3.231700733984603e+00   2.339601606434131e+00   3.594816600000000e+00 -1.93882659e+00  -5.83466800e-01   2.26873900e-02
C     4.217705405553303e+00   1.216926172211943e+00   3.606905700000000e+00 -8.29840430e-01   4.58647105e+00  -7.23215000e-01
C     5.559930403756908e+00   1.684826758493253e+00   3.412558500000000e+00  4.46868560e-01  -4.32653200e-02   2.11015247e+00
C     6.599439643478506e+00   7.474738018189857e-01   3.492352500000000e+00 -3.51354590e-01  -1.47520595e+00  -7.40406880e-01
C     7.955223603307784e+00   1.153687717696662e+00   3.512835000000000e+00  5.55204100e-02  -6.31407640e-01   8.35718000e-02
C     1.486631419511561e+00   5.287485189504727e-01   3.671459700000000e+00 -1.32900176e+00   1.19895180e+00  -5.98778470e-01
