32
Lattice="9.86 0 0 4.93 8.53901048131456 0 0 0 30 " PBC="1 1 1" Properties=species:S:1:pos:R:3:force:R:3 Energy="-256.95938369"
C     1.282649932000000e+00   1.890424205333664e-01   3.168913200000000e+00 -8.27842490e-01  -9.47530810e-01  -1.77675600e-01
C     2.493022563700000e+00   9.108366935676008e-01   3.263066400000000e+00  1.11667430e-01   4.50453300e-01   6.41000570e-01
C     3.735291210800000e+00   2.002047858130320e-01   3.278944500000000e+00 -8.74698950e-01  -1.49755561e+00  -1.05538550e-01
C     4.969834646499999e+00   8.674199240018312e-01   3.322533900000000e+00 -3.36905590e-01   1.61784927e+00   2.99158300e-01
C     6.196814032499999e+00   1.684641737875096e-01   3.328426200000000e+00  5.37763110e-01   3.40378770e-01   3.20314040e-01
C     7.424361699600000e+00   9.001961472183680e-01   3.326141700000000e+00  5.25827300e-02  -3.30710800e-01  -3.00890370e-01
C     8.658074578200001e+00   1.694643480850320e-01   3.268706700000000e+00 -1.24604810e-01   5.62216950e-01   2.64290630e-01
C     9.889369193199999e+00   8.950595908542288e-01   3.252314100000000e+00  5.63209380e-01  -6.58090630e-01   2.54447700e-02
C     2.457460255200000e+00   2.327420192042545e+00   3.536583600000000e+00  1.54023321e+00  -3.56173350e-01   1.45577350e-01
C     3.736894742600000e+00   3.004876763230742e+00   3.639912300000000e+00 -1.16322405e+00   3.03122180e-01  -8.86461480e-01
C     4.942673945400000e+00   2.331025533047411e+00   3.433104300000000e+00  8.54478990e-01  -1.84082242e+00   3.50911400e-02
C     6.168373897800000e+00   3.040966037123415e+00   3.388029600000000e+00  6.47329970e-01  -5.18034720e-01  -1.28157200e-01
C     7.411629580200000e+00   2.328192630930566e+00   3.322833900000000e+00  3.47326800e-02  -7.88976440e-01   2.51902110e-01
C     8.661936888099998e+00   2.990249011327978e+00   3.396661200000000e+00 -5.08139100e-01   1.95941270e+00  -1.37094380e-01
C     9.887044106599999e+00   2.297760109920475e+00   3.410008800000000e+00  7.52537000e-01   9.32019530e-01   5.50625090e-01
C     1.112026004120000e+01   3.056560490402619e+00   3.653897400000000e+00 -1.04743869e+00  -8.55575450e-01  -7.16070330e-01
C     3.749609705599999e+00   4.418772437376897e+00   3.636906900000000e+00 -8.52514060e-01   1.83703950e+00   4.78587250e-01
C     4.944434251200000e+00   5.189922276375637e+00   3.447804600000000e+00  6.74847850e-01  -2.44694052e+00  -2.15303150e-01
C     6.199043082699999e+00   4.444257711885191e+00   3.361244100000000e+00 -1.54382171e+00   9.08795580e-01   3.48396600e-02
C     7.408135689200000e+00   5.145270936674669e+00   3.277394700000000e+00  1.52360330e+00  -2.83954390e-01  -8.26002000e-02
C     8.663815070200000e+00   4.450630119236100e+00   3.398876400000000e+00 -3.86331610e-01  -9.12066080e-01   4.10921510e-01
C     9.881737355999999e+00   5.170089229074369e+00   3.580735800000000e+00 -8.54139100e-02   5.85128000e-02  -3.35614320e-01
C     1.111499889310000e+01   4.485721951314604e+00   3.790888500000000e+00  2.33984500e-02  -8.32886380e-01  -8.96674630e-01
C     1.236357197490000e+01   5.177124605198946e+00   3.749085600000000e+00  4.65332320e-01  -1.22719339e+00  -1.82085230e-01
C     4.925134582999999e+00   6.571670796207316e+00   3.274959300000000e+00  2.38871045e+00   9.56489750e-01  -2.54585890e-01
C     6.201318425600000e+00   7.279198175921673e+00   3.072760500000000e+00 -9.59428430e-01   4.23767260e-01   9.69211760e-01
C     7.427117421700000e+00   6.554729997145730e+00   3.141571500000000e+00 -1.00299767e+00   5.30406020e-01   5.82951810e-01
C     8.619767097800000e+00   7.273885032820806e+00   3.294464100000000e+00  2.02690519e+00   1.27176228e+00  -6.58224200e-01
C     9.880101236900000e+00   6.581824618959189e+00   3.424404000000000e+00  3.37353710e-01   6.96210180e-01   5.78256500e-01
C     1.115052343780000e+01   7.303681397550138e+00   3.464720700000000e+00 -1.28549523e+00  -1.09221608e+00   8.71275300e-02
C     1.237629221300000e+01   6.572796920909419e+00   3.606559500000000e+00 -1.34152080e-01   1.18185086e+00  -7.64679310e-01
C     1.360220381030000e+01   7.284719073147516e+00   3.372917700000000e+00 -1.40167740e+00   5.58440160e-01   1.66354830e-01
