32
Lattice="9.86 0 0 4.93 8.53901048131456 0 0 0 30 " PBC="1 1 1" Properties=species:S:1:pos:R:3:force:R:3 Energy="-257.40947907"
C     9.830467919600000e+00   4.793224954165648e-01   3.128549999999999e-02  8.06186430e-01   1.74935770e-01  -3.71354000e-03
C     1.204107587700000e+00   1.188724102541175e+00   6.402420000000000e-02  3.72291650e-01   8.88035730e-01   4.47646370e-01
C     2.432342398200000e+00   4.868194050575856e-01   9.444000000000001e-03  9.87418060e-01  -7.60473960e-01  -3.71308700e-02
C     3.675803168600000e+00   1.182594373868107e+00   4.478250000000000e-02  9.46763000e-02   1.31533705e+00   4.78144060e-01
C     4.923058510700000e+00   5.118184683091480e-01   7.248900000000000e-03 -5.00592370e-01  -1.41695638e+00   2.03392000e-02
C     6.145773791800000e+00   1.227488392246917e+00   4.041000000000000e-04  2.13592200e-01  -3.09512490e-01  -3.75271000e-02
C     7.358162004700000e+00   4.664372139923496e-01  -1.163100000000128e-02  8.18768990e-01   1.60679005e+00   5.22607110e-01
C     8.610542328299999e+00   1.195677931115668e+00   3.391260000000000e-02 -5.57044580e-01  -6.12514760e-01  -1.70688790e-01
C     1.109437621010000e+01   2.628836759003655e+00   2.101557000000000e-01 -4.13050230e-01  -4.32269260e-01  -1.04852236e+00
C     2.460085825300000e+00   3.363715784746918e+00   2.255004000000000e-01  6.32492900e-01  -2.09804196e+00   2.80844000e-01
C     3.721924255299999e+00   2.619162914030863e+00   1.937364000000000e-01 -2.13567498e+00  -3.75819040e-01  -7.71654100e-01
C     4.917841042399999e+00   3.327323119811891e+00   8.367990000000000e-02  7.08825150e-01   1.02203749e+00  -7.54068000e-02
C     6.162437635499999e+00   2.663046596689679e+00  -1.488300000001885e-03  1.51599290e-01  -1.58082421e+00  -3.13046000e-02
C     7.409250263600000e+00   3.342042666077315e+00  -4.812330000000031e-02 -8.31499610e-01  -1.06735785e+00   2.53848090e-01
C     8.633903823499999e+00   2.613135568093450e+00   4.297110000000001e-02 -6.91738030e-01   1.22433280e-01  -5.32765830e-01
C     9.848110368299999e+00   3.332570768702375e+00   8.379540000000001e-02  9.80440390e-01  -7.97198600e-01   9.44436470e-01
C     1.231609183510000e+01   4.757203736186502e+00   2.357628000000000e-01  4.97862960e-01   7.20026950e-01  -2.00366550e-01
C     3.701319320300000e+00   5.464230046765890e+00   1.736352000000000e-01 -6.75471900e-01   4.31015790e-01  -2.59551240e-01
C     4.899443613500000e+00   4.760579548589665e+00   4.451100000000000e-02  1.31567173e+00  -3.01433800e-01   4.54545500e-01
C     6.150851987599999e+00   5.469072946559622e+00  -3.231239999999858e-02 -7.49403130e-01  -5.05055070e-01  -1.08748330e-01
C     7.360640907300001e+00   4.730600449036062e+00  -9.076469999999759e-02  9.88060330e-01   1.14467175e+00   3.64433320e-01
C     8.598157132999999e+00   5.427015416682059e+00  -3.993180000000152e-02  8.53306730e-01   4.46229760e-01   2.61057440e-01
C     9.850463851700001e+00   4.730650999978104e+00   1.257285000000000e-01 -9.33728200e-02   1.29398102e+00  -7.60191250e-01
C     1.110219376040000e+01   5.461993252970655e+00   1.691781000000000e-01 -1.54588061e+00  -2.59673200e-02   1.19204170e-01
C     1.358063614490000e+01   6.878333048086500e+00   1.168326000000000e-01 -8.56025320e-01   1.01927467e+00  -2.66397930e-01
C     4.965381722599999e+00   7.597747669680167e+00   1.630980000000000e-02 -2.01933933e+00  -7.47514200e-02   4.02808210e-01
C     6.172758984900000e+00   6.889786764403744e+00  -7.657500000000539e-03  5.07832610e-01  -3.91561160e-01  -4.41640010e-01
C     7.412145208900000e+00   7.585227516344077e+00  -6.551009999999735e-02 -1.18256187e+00   6.07738160e-01   2.16688720e-01
C     8.605735578299999e+00   6.845859362011270e+00  -6.477629999999834e-02  1.32221909e+00   1.17271013e+00   3.40127450e-01
C     9.848160654299999e+00   7.598982154425261e+00   1.512210000000000e-02 -2.46885680e-01  -1.59744470e-01  -1.86387870e-01
C     1.107417307010000e+01   6.885917738755255e+00   1.039677000000000e-01  2.92821050e-01   1.05121960e-01  -1.05399200e-01
C     1.230487090860000e+01   7.608724567652208e+00   8.678820000000001e-02  9.54474600e-01  -1.16085779e+00  -6.93337300e-02
