32
Lattice="9.86 0 0 4.93 8.53901048131456 0 0 0 30 " PBC="1 1 1" Properties=species:S:1:pos:R:3:force:R:3 Energy="-257.62805073"
C     1.220257676100000e+00   8.339686920068504e-01   3.580992900000000e+00 -1.57725338e+00   9.93976110e-01   1.68192460e-01
C     2.416257435100000e+00   1.562041443276714e+00   3.593600100000000e+00  1.16168622e+00  -1.43836246e+00  -1.07119370e-01
C     3.649204043800000e+00   8.288899447436607e-01   3.548961300000000e+00  1.32668008e+00   1.16681841e+00   1.24695270e-01
C     4.901579881100000e+00   1.570370906439535e+00   3.551577300000000e+00 -4.08639490e-01  -1.10597664e+00  -1.39702530e-01
C     6.140486859800000e+00   8.245418806072448e-01   3.513607500000000e+00 -1.00195163e+00   1.31358610e+00   3.08048570e-01
C     7.357511293999999e+00   1.554794299692233e+00   3.543489000000000e+00  5.28322580e-01  -3.12479140e-01   2.45456500e-02
C     8.593820557100001e+00   8.522476394007577e-01   3.547991100000000e+00  3.13865060e-01  -1.04734137e+00   4.45359550e-01
C     9.831934841099999e+00   1.541976476450810e+00   3.615902100000000e+00 -1.90406990e-01   9.35615650e-01  -5.07781130e-01
C     2.413665191800000e+00   2.951556790870688e+00   3.614624700000000e+00  1.23608873e+00   1.33037594e+00   6.34638000e-02
C     3.662892188800000e+00   3.688847062393293e+00   3.614678100000000e+00 -4.45244620e-01   8.51379900e-02  -2.73879090e-01
C     4.894679557300000e+00   2.992151332082713e+00   3.570020100000000e+00  5.57512150e-01  -4.97417570e-01   4.85304100e-02
C     6.153218732699999e+00   3.688489021683866e+00   3.542950200000000e+00 -1.09080058e+00  -2.23905530e-01   2.66007920e-01
C     7.374458711300000e+00   2.971204968595063e+00   3.576134100000000e+00 -3.01867770e-01   3.16045040e-01  -4.03100440e-01
C     8.598142836000001e+00   3.698186690495898e+00   3.561978600000000e+00 -1.34459800e-02  -1.12010088e+00   2.52393360e-01
C     9.819401893699998e+00   2.997873835345990e+00   3.593219700000000e+00  3.00341300e-01  -2.02031396e+00   1.26266840e-01
C     1.105880004830000e+01   3.655543469889512e+00   3.604806600000000e+00 -2.86499110e-01   1.63555328e+00   6.28740000e-04
C     3.673039361300000e+00   5.122700880344247e+00   3.579482400000000e+00 -1.04152272e+00  -7.99235230e-01   1.28838690e-01
C     4.896800443300000e+00   5.815575488855132e+00   3.557778900000000e+00  3.82343320e-01   3.93599050e-01  -2.02674320e-01
C     6.122670086299999e+00   5.099831531696502e+00   3.536160900000000e+00  1.00998468e+00   2.62734290e-01  -2.75977400e-02
C     7.376685888100000e+00   5.797569619016375e+00   3.509760300000000e+00 -1.04433501e+00   1.14512167e+00   2.95095910e-01
C     8.607309382200000e+00   5.089689151218672e+00   3.547941600000000e+00 -8.35298500e-01   1.26970427e+00  -4.49620120e-01
C     9.808373976700000e+00   5.820426842269239e+00   3.502611300000000e+00  1.62464258e+00  -7.28250620e-01   4.29337400e-01
C     1.105692354240000e+01   5.095134136641349e+00   3.576212700000000e+00 -2.40471490e-01   1.04788510e-01  -3.13673900e-01
C     1.227982286040000e+01   5.815800321001070e+00   3.558889500000000e+00  3.33486760e-01   5.93095260e-01  -1.58262680e-01
C     4.896604623699999e+00   7.237861253138516e+00   3.535194000000000e+00  2.05960440e-01   4.56115780e-01   3.10387720e-01
C     6.131533684000000e+00   7.981801449852631e+00   3.542128800000000e+00  1.72884000e-02  -1.99356052e+00  -1.76016600e-02
C     7.350169587299999e+00   7.243211113984446e+00   3.524678400000000e+00  1.53048791e+00  -2.60434650e-01  -1.21888490e-01
C     8.634024657800000e+00   7.956309771086477e+00   3.519723600000000e+00 -2.26379594e+00  -4.55137660e-01  -8.05157000e-02
C     9.844711034699998e+00   7.232090077515504e+00   3.485098500000000e+00 -5.23369810e-01   3.00910370e-01   2.68778840e-01
C     1.105837518090000e+01   7.953474392656593e+00   3.522388800000000e+00  1.95505350e-01   6.08035300e-02  -5.05101340e-01
C     1.227954939330000e+01   7.262834101627904e+00   3.498712200000000e+00  6.31878450e-01  -1.54304152e+00   6.83624350e-01
C     1.352364253480000e+01   7.938512253103432e+00   3.564812100000000e+00 -9.11709700e-02   1.18157650e+00  -6.35676950e-01
