32
Lattice="9.86 0 0 4.93 8.53901048131456 0 0 0 30 " PBC="1 1 1" Properties=species:S:1:pos:R:3:force:R:3 Energy="-256.1542832"
C     1.238888836300000e+00   8.186348493274952e-01   3.419037300000000e+00  4.43823190e-01   1.66527450e-01   2.89153080e-01
C     2.488531481600000e+00   1.516110532855318e+00   3.532131000000000e+00 -5.07079170e-01   2.29116496e+00  -3.85876860e-01
C     3.729878958200000e+00   8.415703753064607e-01   3.353298000000000e+00 -1.85558227e+00  -7.95077610e-01   3.59157760e-01
C     4.923472482800000e+00   1.560069700366778e+00   3.417915600000000e+00  1.76657218e+00  -2.63701400e-01  -6.42012050e-01
C     6.177504504299999e+00   8.786123465983864e-01   3.308030700000000e+00  6.45374790e-01  -2.67141458e+00   5.88376060e-01
C     7.440953811800000e+00   1.524077600413368e+00   3.273816900000000e+00 -1.55287436e+00   1.69015279e+00   6.40890600e-02
C     8.669105502500001e+00   8.481900724008712e-01   3.256607400000000e+00 -3.82008220e-01   4.65263470e-01   1.19002379e+00
C     9.863252813999999e+00   1.543351854868824e+00   3.498642900000000e+00  1.41829611e+00   1.48203072e+00  -1.43674239e+00
C     2.481499378900000e+00   3.024052221334945e+00   3.674560800000000e+00  1.09776692e+00  -2.75077194e+00  -3.20190850e-01
C     3.757754410700000e+00   3.704628093051486e+00   3.660041100000000e+00 -1.63787893e+00  -1.42883677e+00  -5.10293710e-01
C     4.968247285099999e+00   2.971178668442785e+00   3.461688000000000e+00 -1.94164273e+00  -4.48451870e-01   3.38237420e-01
C     6.159789436699999e+00   3.624608001162148e+00   3.299725800000000e+00  2.07959855e+00   2.87663323e+00   6.21030250e-01
C     7.395967660399999e+00   2.939785423363589e+00   3.312663300000000e+00  2.07741677e+00   1.22521596e+00  -7.62332400e-01
C     8.685719109499999e+00   3.720771775484764e+00   3.322481400000000e+00 -2.58130626e+00  -5.87556080e-01   7.83676860e-01
C     9.873790491799999e+00   3.008899149507451e+00   3.493640700000000e+00  1.03230477e+00  -1.01226480e+00   1.96697020e-01
C     1.112200018330000e+01   3.736363496280615e+00   3.637059000000000e+00 -3.11588530e-01  -1.80128612e+00   4.90577370e-01
C     3.707386326200000e+00   5.085034195045604e+00   3.613779900000000e+00  2.29055295e+00   1.89468261e+00   1.12457810e-01
C     4.959900006300000e+00   5.828838279932668e+00   3.466484700000000e+00 -7.40558420e-01  -1.46400611e+00  -7.30686750e-01
C     6.190458276499999e+00   5.113363472384368e+00   3.303131100000000e+00 -1.70734022e+00  -1.48322555e+00   2.75183480e-01
C     7.365818048200000e+00   5.838957263521782e+00   3.216004200000000e+00  2.88141808e+00  -8.77407890e-01   5.23671260e-01
C     8.650549376899999e+00   5.152404340639556e+00   3.356406600000000e+00 -2.58830280e-01  -7.37548820e-01  -5.97993730e-01
C     9.885188109500000e+00   5.859460196195205e+00   3.472783800000000e+00  1.82329640e-01  -1.01917421e+00   8.08828000e-03
C     1.115608413270000e+01   5.119725718312806e+00   3.715422900000000e+00 -2.52210071e+00   1.87699026e+00  -1.31330929e+00
C     1.237280995680000e+01   5.817964447817122e+00   3.660376800000000e+00 -1.82350460e-01  -1.84413790e-01  -2.31188680e-01
C     4.950226508200000e+00   7.221196776456062e+00   3.333458100000000e+00 -3.52011360e-01   1.72039135e+00   3.01499290e-01
C     6.182961619900000e+00   7.922729002302514e+00   3.254253000000000e+00 -6.86374630e-01   1.44003295e+00   5.67068490e-01
C     7.408258939200000e+00   7.244102159728034e+00   3.221266800000000e+00 -9.76649360e-01  -1.67399430e-01  -4.06350660e-01
C     8.611607701299999e+00   7.942060980468815e+00   3.199446900000000e+00  1.52428853e+00   1.45508789e+00   6.41533870e-01
C     9.839312734000000e+00   7.258138243594638e+00   3.291570000000000e+00  2.62985321e+00   2.45107000e-03   1.16133917e+00
C     1.114647428090000e+01   7.945001644897918e+00   3.426199200000000e+00 -2.28946052e+00   9.44210360e-01  -1.28255382e+00
C     1.236269404050000e+01   7.209235074405363e+00   3.464288700000000e+00  4.10835570e-01   2.79778992e+00   1.61216170e-01
C     1.358776773500000e+01   8.019288730541088e+00   3.356826900000000e+00  5.20519000e-03  -4.63608799e+00  -5.35453000e-02
