32
Lattice="9.86 0 0 4.93 8.53901048131456 0 0 0 30 " PBC="1 1 1" Properties=species:S:1:pos:R:3:force:R:3 Energy="-256.02822431"
C     1.246654868100000e+00   7.713661321341976e-01   3.703680900000000e+00 -4.75321610e-01  -3.48816380e-01  -9.99742800e-01
C     2.466129956000000e+00   1.432661003577003e+00   3.425364300000000e+00  5.01910430e-01  -1.60516245e+00   1.36369428e+00
C     3.692136307900000e+00   7.343382502095640e-01   3.622951200000000e+00  9.75637030e-01  -1.48083975e+00  -6.55648400e-01
C     4.931200898699999e+00   1.410052521699422e+00   3.585694800000000e+00  9.94361610e-01   6.02390410e-01   7.33086100e-01
C     6.202359690900000e+00   7.090161561915432e-01   3.764278200000000e+00 -1.62889378e+00   1.30253642e+00  -1.53773780e+00
C     7.417737652999999e+00   1.458965425360643e+00   3.770207100000000e+00  3.92815440e-01  -1.91064297e+00   1.95207100e-01
C     8.623985994600000e+00   6.913179469003807e-01   3.756602700000000e+00  2.04352150e+00   1.70663816e+00  -3.29736930e-01
C     9.894864466999998e+00   1.488485126150422e+00   3.701076600000000e+00 -1.62315410e+00  -1.96227717e+00  -4.53045290e-01
C     2.479695984900000e+00   2.792668263435450e+00   3.216450600000000e+00  5.99813130e-01   2.54791509e+00   1.14726620e-01
C     3.704724964300000e+00   3.526011975094409e+00   3.304324500000000e+00  8.86521570e-01   1.78282055e+00  -2.82533760e-01
C     4.952757175800000e+00   2.843111357774688e+00   3.495399000000000e+00 -2.60832970e-01  -2.33042860e-01   2.62172190e-01
C     6.185019056800000e+00   3.547532928597257e+00   3.669839400000000e+00  5.85947990e-01   7.00548090e-01   7.50436200e-02
C     7.457766344300000e+00   2.864993852981260e+00   3.777466800000000e+00 -1.82375837e+00   2.44614800e-01  -1.08347220e-01
C     8.668763113999999e+00   3.591430444453052e+00   3.716462700000000e+00  4.83731150e-01  -1.59926542e+00  -9.14025040e-01
C     9.882852768499999e+00   2.872200094705542e+00   3.468180000000000e+00  6.64721850e-01   5.02161500e-01   7.69432790e-01
C     1.113934712780000e+01   3.541484405913855e+00   3.202389000000000e+00 -1.98850645e+00   1.37896994e+00   7.21109530e-01
C     3.732625165400000e+00   5.014909962401539e+00   3.295224300000000e+00 -9.37260400e-01  -1.32083252e+00   8.01912300e-02
C     4.957180519700000e+00   5.670960685948157e+00   3.590282100000000e+00  3.71874280e-01   8.55431550e-01  -1.79431320e-01
C     6.192921452400000e+00   4.995179212445823e+00   3.715926900000000e+00 -3.40846720e-01  -2.26880797e+00   1.56633780e-01
C     7.424215623700000e+00   5.650798374402782e+00   3.851285100000000e+00 -5.73384190e-01   3.37297161e+00  -8.02993910e-01
C     8.653188603099998e+00   4.966130096523597e+00   3.696744600000000e+00  1.85819200e-01   2.02493716e+00   8.96628500e-02
C     9.861570007799999e+00   5.707821971778326e+00   3.479028900000000e+00  8.44576340e-01  -5.17316920e-01  -5.28450010e-01
C     1.107875688550000e+01   5.005567687205685e+00   3.216311400000000e+00  1.82164816e+00  -2.19716090e-01  -6.69180900e-02
C     1.235685292720000e+01   5.781232357215516e+00   3.165631800000000e+00 -9.44469110e-01  -2.87575794e+00   1.02250575e+00
C     4.997295288799999e+00   7.086494227694481e+00   3.702543000000000e+00 -2.18895669e+00   1.63625138e+00  -6.25537530e-01
C     6.156325421500000e+00   7.896152356864772e+00   3.771636000000000e+00  1.65543404e+00  -1.94563752e+00   4.69468000e-01
C     7.393862451800000e+00   7.162251303991784e+00   3.809919600000000e+00  1.45115331e+00  -1.95800390e+00  -1.80900000e-03
C     8.683088757300000e+00   7.809070674088685e+00   3.723247200000000e+00 -2.37217092e+00   1.83954019e+00  -4.91799950e-01
C     9.896512664599999e+00   7.135833996489598e+00   3.492464100000000e+00 -8.72528710e-01  -6.12481140e-01   1.05883484e+00
C     1.110503482080000e+01   7.860254612977166e+00   3.518076900000000e+00  9.32578430e-01  -2.55886200e-01   3.86462570e-01
C     1.232706655740000e+01   7.151301901633490e+00   3.420805500000000e+00  1.63766289e+00   4.21853410e-01  -1.95980610e-01
C     1.360945445990000e+01   7.817036204624847e+00   3.592193700000000e+00 -9.99644320e-01   1.94906940e-01   6.75506430e-01
