32
Lattice="9.86 0 0 4.93 8.53901048131456 0 0 0 30 " PBC="1 1 1" Properties=species:S:1:pos:R:3:force:R:3 Energy="-257.46673197"
C     9.851373979000000e+00   2.351839883433040e-01   6.482580000000000e-02  5.04290700e-01  -1.94186430e-01  -6.33469000e-02
C     1.238166591300000e+00   9.599838222862888e-01   1.666590000000000e-02 -1.23995911e+00  -3.30474220e-01  -6.20546100e-02
C     2.441733653800000e+00   2.171033167727424e-01   9.589199999999999e-03  5.26611270e-01   1.06421053e+00   4.33099420e-01
C     3.689143403500000e+00   9.451032302832121e-01   6.604860000000000e-02 -8.34219500e-01  -7.85905560e-01  -8.34483540e-01
C     4.896877400600000e+00   2.380051066256864e-01  -1.575000000000060e-02  1.40985842e+00  -1.16293653e+00   5.71911270e-01
C     6.165291612499999e+00   9.221821352319576e-01   1.733790000000000e-02 -1.00691768e+00   1.41322000e-01   4.49916200e-02
C     7.389616144199999e+00   2.007038055854832e-01   4.394910000000000e-02  2.71665130e-01   7.29000380e-01  -8.13811400e-02
C     8.621506303200000e+00   9.425674003409664e-01   8.572080000000000e-02 -1.53008490e-01  -1.52996440e-01  -2.22774870e-01
C     1.108728746170000e+01   2.388693142593358e+00  -3.588599999999786e-02 -3.69921770e-01  -5.95564570e-01   7.32645280e-01
C     2.473377647600000e+00   3.054599933596411e+00  -1.887539999999888e-02 -1.12140076e+00   1.61264103e+00   2.48727300e-02
C     3.674125243100000e+00   2.347116359005818e+00   4.604040000000000e-02  1.44488448e+00   1.11565735e+00  -3.60418180e-01
C     4.928349633200000e+00   3.098040612391525e+00   1.681020000000000e-02 -6.47960460e-01  -2.28593285e+00   5.02606430e-01
C     6.147608688500000e+00   2.354893689751003e+00   4.553250000000000e-02 -1.90927830e-01  -3.41547060e-01  -3.27329730e-01
C     7.360020565400000e+00   3.059322177172061e+00   3.490440000000000e-02  1.10780032e+00   4.45330950e-01   6.34576740e-01
C     8.609719905700000e+00   2.371596335810302e+00   8.369789999999999e-02  2.85287180e-01   2.06557800e-02  -3.37168450e-01
C     9.846317524500000e+00   3.113893712298169e+00   4.661550000000000e-02 -3.23774200e-02  -1.22214468e+00  -7.59575720e-01
C     1.230774889470000e+01   4.507644665260536e+00  -9.469800000001527e-03  5.22851980e-01  -1.25779524e+00   3.36239020e-01
C     3.674390526400000e+00   5.188282615583268e+00   1.682880000000000e-02  1.32040082e+00   6.27061840e-01   2.74000920e-01
C     4.934137749000000e+00   4.481188846821087e+00   5.337030000000000e-02 -3.07603320e-01   1.38382412e+00  -3.93110600e-01
C     6.182951611999999e+00   5.209924054523989e+00   5.856900000000000e-02 -1.85051648e+00  -5.60833900e-01   3.59045730e-01
C     7.378488345399999e+00   4.484657734438482e+00   8.496479999999999e-02  4.94339430e-01   1.00408500e-01  -5.99012330e-01
C     8.599713583300000e+00   5.213202266037365e+00   4.026360000000000e-02  5.55279440e-01  -2.52193330e-01   1.47153060e-01
C     9.847093161400000e+00   4.522458396811555e+00  -3.266670000000005e-02 -3.58950540e-01  -9.74068900e-02   1.16065373e+00
C     1.108675802900000e+01   5.219210569981407e+00   6.431429999999999e-02 -3.92322250e-01  -1.07200473e+00  -6.90357310e-01
C     1.357609975610000e+01   6.619932344149124e+00   4.546920000000000e-02 -1.26770496e+00  -4.03199580e-01  -1.63855240e-01
C     4.924460504100000e+00   7.330673636627941e+00   6.261840000000000e-02 -1.22889260e-01   9.34746820e-01   5.97481500e-02
C     6.133226251599999e+00   6.619852333620926e+00   7.949009999999999e-02  1.03856266e+00   4.36967480e-01  -3.85229760e-01
C     7.347663027399999e+00   7.353173673072427e+00   3.890039999999999e-02  1.08639070e+00  -8.42934730e-01   3.03672740e-01
C     8.601881452200001e+00   6.630221766387420e+00   7.145609999999999e-02 -7.90667630e-01   2.88779710e-01  -5.82037400e-01
C     9.824979153399999e+00   7.328852180302452e+00   7.713300000000000e-03  1.05271644e+00   5.46321970e-01   6.89204570e-01
C     1.108537407940000e+01   6.600733489156206e+00   1.088448000000000e-01 -1.04766110e-01   2.32160895e+00  -1.17355984e+00
C     1.233936528050000e+01   7.322916799507909e+00   1.813830000000000e-02 -8.28825400e-01  -2.10480670e-01   7.61274230e-01
