32
Lattice="9.86 0 0 4.93 8.53901048131456 0 0 0 30 " PBC="1 1 1" Properties=species:S:1:pos:R:3:force:R:3 Energy="-256.56504738"
C     9.829645151899999e+00   1.083022338902504e-01  -1.266579000000014e-01  3.06621010e-01   1.52685410e-01  -2.71271090e-01
C     1.220656069400000e+00   8.696753328399136e-01  -1.664318999999992e-01 -1.48040450e+00  -2.94536114e+00   8.28996170e-01
C     2.427271893200000e+00   1.522334788374400e-01  -2.045223000000007e-01  4.63457480e-01  -9.77261260e-01  -1.07923130e-01
C     3.680648126099999e+00   8.461536891816008e-01  -8.400569999999874e-02 -1.08756599e+00  -2.09351812e+00  -4.78963140e-01
C     4.888726828799999e+00   5.851835116006880e-02  -1.961151000000001e-01  1.06847340e-01   2.66582205e+00   6.71860430e-01
C     6.106447576199999e+00   7.650067040792176e-01  -1.245021000000008e-01  1.66571792e+00   1.03660823e+00  -5.78107460e-01
C     7.396433791900000e+00   1.156474907051464e-01  -1.271259000000029e-01 -1.80552398e+00  -1.09013452e+00   1.37837540e-01
C     8.607766442499999e+00   8.127287573388985e-01  -1.480322999999970e-01 -2.26759400e-02   1.00034367e+00   5.94891810e-01
C     1.103807925830000e+01   2.206144297969612e+00   9.328170000000000e-02 -1.28425550e-01   3.32091328e+00  -5.51551570e-01
C     2.418019959400000e+00   2.939045945056021e+00   1.434198000000000e-01 -4.79141710e-01   8.72660070e-01   6.53951060e-01
C     3.633715413500000e+00   2.234763303933961e+00   9.515970000000000e-02  2.05308634e+00   3.90471380e-01  -1.08581554e+00
C     4.915492094599999e+00   2.910061640223337e+00  -6.275430000000171e-02 -1.65824866e+00   1.59661412e+00   6.83364220e-01
C     6.115996049500000e+00   2.201128483213660e+00  -1.655844000000002e-01 -1.12000300e-01  -2.37582530e-01   3.00379230e-01
C     7.327126816599999e+00   2.955259135034606e+00  -1.735523999999984e-01  1.01797825e+00  -2.59658967e+00   3.54792740e-01
C     8.575844495300000e+00   2.245560882685921e+00  -7.382400000000189e-02 -1.31035580e-01  -2.44575360e-01  -4.89106150e-01
C     9.784696172700000e+00   2.942720537435879e+00   5.751240000000000e-02  1.08730108e+00   8.77926500e-01  -2.36158900e-02
C     1.229595806020000e+01   4.382747376843035e+00   2.325732000000000e-01  3.24183300e-01  -1.45825510e-01  -7.83431440e-01
C     3.695207747200000e+00   5.116790775020725e+00   1.301028000000000e-01 -1.21127044e+00  -2.32628582e+00  -2.79250580e-01
C     4.932906580099999e+00   4.362469532485865e+00  -4.159650000000070e-02 -1.04500781e+00  -4.24632400e-02   2.31766700e-01
C     6.149883193300000e+00   5.067165205544843e+00  -1.874255999999974e-01 -2.56783770e-01   4.53924290e-01  -6.25276700e-02
C     7.367442384599999e+00   4.316620596565077e+00  -1.870452000000000e-01  3.79628810e-01   3.39305933e+00  -2.12205670e-01
C     8.626995611700000e+00   5.079288038723298e+00  -1.567694999999993e-01 -2.85802546e+00   9.52175890e-01  -1.35935970e-01
C     9.812121318999999e+00   4.412703250288133e+00   3.423600000000000e-02  9.00461380e-01  -2.52695806e+00   1.59198340e-01
C     1.104222888860000e+01   5.095118254081855e+00   1.286997000000000e-01  1.09919238e+00  -1.91953720e-01   1.36362080e-01
C     1.346887477040000e+01   6.517800740792141e+00   3.361410000000000e-02  3.28889926e+00  -4.13858310e-01   1.19474510e-01
C     4.844496347800000e+00   7.225581899897962e+00  -6.371850000000023e-02  1.68349849e+00  -4.93760000e-02  -1.00766836e+00
C     6.098840684800000e+00   6.511596978898210e+00  -2.499906000000003e-01 -9.01447500e-01  -3.17055300e-01   8.21074180e-01
C     7.291057753399999e+00   7.245158776884828e+00  -3.139611000000002e-01  2.33907138e+00   2.40981520e-01   3.99824730e-01
C     8.558633668100001e+00   6.523809898637231e+00  -2.500926000000021e-01  4.37467180e-01  -4.34868840e-01  -1.82886400e-02
C     9.830628884099999e+00   7.221871102113668e+00  -2.059356000000001e-01 -1.31342076e+00  -2.12662580e+00   5.65514020e-01
C     1.104629480750000e+01   6.494522458932508e+00   1.853790000000000e-02  6.55043570e-01   1.52947545e+00  -7.85272680e-01
C     1.231681191090000e+01   7.230044301384705e+00  -2.384789999999981e-02 -3.31747723e+00   2.76632020e-01   2.11647200e-01
