32
Lattice="9.86 0 0 4.93 8.53901048131456 0 0 0 30 " PBC="1 1 1" Properties=species:S:1:pos:R:3:force:R:3 Energy="-256.92658457"
C     9.867946124700000e+00   3.173283298697512e-01  -1.081452000000027e-01  8.45909700e-01   4.43131410e-01  -1.99048420e-01
C     1.233689806200000e+00   1.025713794747242e+00  -2.439497999999993e-01  9.12305140e-01   8.41545920e-01   7.84399170e-01
C     2.490461182200000e+00   3.230155670197456e-01  -7.734089999999938e-02 -1.27874659e+00  -5.49235780e-01  -3.67132950e-01
C     3.700947302500000e+00   1.003128538978166e+00  -1.467084000000014e-01  1.17271791e+00   1.27421132e+00  -2.67091230e-01
C     4.951464086100000e+00   3.419814778067688e-01  -1.109192999999991e-01  5.22823030e-01  -1.92293348e+00   4.98264950e-01
C     6.211288463199999e+00   1.026810203692874e+00  -5.551019999999696e-02 -1.16239065e+00  -8.66065270e-01  -7.54593150e-01
C     7.417239673699999e+00   2.877778886422440e-01  -1.120067999999996e-01 -3.09105300e-02   7.97785920e-01   2.30371820e-01
C     8.632181577299999e+00   1.020100163867585e+00  -9.848159999999950e-02  8.68402040e-01  -1.18698661e+00  -1.31721110e-01
C     1.112413142230000e+01   2.478426529683905e+00  -3.953115000000018e-01 -8.00168500e-02  -1.52107542e+00  -5.87945300e-02
C     2.516194845500000e+00   3.152554423806788e+00  -5.302493999999989e-01 -8.17211920e-01   4.89372460e-01   6.97106530e-01
C     3.722374315000000e+00   2.414076461316520e+00  -3.228267000000002e-01  3.91191030e-01   1.30054391e+00  -4.21485340e-01
C     4.963750139099999e+00   3.151748170437267e+00  -2.615207999999996e-01  4.12446260e-01  -1.27653085e+00   2.79425970e-01
C     6.228312936400000e+00   2.426842623544539e+00  -1.051119000000007e-01 -1.77040397e+00   6.71572680e-01   1.24435490e-01
C     7.433623493399999e+00   3.115181651248867e+00  -4.951739999999916e-02  4.88082310e-01   2.07075532e+00   2.69796000e-03
C     8.676999418499999e+00   2.406912146133695e+00  -9.974940000000032e-02 -6.01698910e-01   2.13526343e+00  -4.58160930e-01
C     9.883537298999999e+00   3.173727498022682e+00  -3.077100000000002e-01  2.65445850e-01  -1.25550569e+00   1.51188890e-01
C     1.234555006410000e+01   4.607303456572616e+00  -5.753346000000015e-01  9.34138690e-01  -9.26654110e-01   6.28405620e-01
C     3.725037747500000e+00   5.285944046953970e+00  -4.345362000000002e-01  6.40361950e-01   1.06764390e+00   4.40643410e-01
C     4.952219855099999e+00   4.557193981372833e+00  -2.665713000000025e-01  2.77068060e-01   1.26412239e+00   4.58557140e-01
C     6.176930110000000e+00   5.304838059272752e+00   1.776240000000000e-02 -7.59507860e-01  -5.49906770e-01  -9.78518480e-01
C     7.389401097599999e+00   4.586267518865031e+00   1.064430000000000e-02  1.73031396e+00  -1.07873056e+00  -2.26690500e-01
C     8.657721590200000e+00   5.285445454132043e+00  -6.238199999999949e-02 -3.47492610e-01  -3.99872130e-01  -1.12902010e-01
C     9.884602721299999e+00   4.570827023944782e+00  -3.287867999999996e-01 -1.63659960e-01   1.65580327e+00   6.96501400e-01
C     1.113700089150000e+01   5.326826096648857e+00  -4.189992000000018e-01 -1.56047713e+00  -2.01011454e+00  -1.64717440e-01
C     1.360917611210000e+01   6.733591355483793e+00  -2.784762000000001e-01 -1.77946690e-01  -7.68053060e-01   3.34439910e-01
C     4.994686579300000e+00   7.448922707656029e+00  -5.061990000000094e-02 -2.27672044e+00  -5.81817830e-01  -8.40951750e-01
C     6.185145954999999e+00   6.737944457636392e+00   3.130770000000000e-02  1.55135590e+00  -5.14814820e-01   2.52183530e-01
C     7.445622521799999e+00   7.448712221047697e+00   7.262399999999999e-02 -9.41098990e-01  -8.19536330e-01  -3.09651060e-01
C     8.667210311900000e+00   6.704896864666801e+00   2.215290000000000e-02 -9.26500300e-02   4.97832360e-01  -4.00729230e-01
C     9.891126048000000e+00   7.417753696992039e+00  -1.055208000000007e-01 -1.48864810e-01   1.10445372e+00   1.47054930e-01
C     1.110854409340000e+01   6.706447975920493e+00  -2.506788000000029e-01  8.81413860e-01   1.23933443e+00  -2.53894260e-01
C     1.235402853020000e+01   7.428115444649100e+00  -2.512232999999995e-01  3.15822240e-01  -6.25539190e-01   2.20405680e-01
