32
Lattice="9.86 0 0 4.93 8.53901048131456 0 0 0 30 " PBC="1 1 1" Properties=species:S:1:pos:R:3:force:R:3 Energy="-255.80336132"
C     1.234483930600000e+00   6.780795773928175e-01   3.475908000000000e+00  4.83908470e-01   2.21632128e+00  -8.93534000e-02
C     2.479555825000000e+00   1.444569166031992e+00   3.504051600000000e+00 -1.45208477e+00  -9.23886010e-01   8.41005300e-02
C     3.731450494300000e+00   7.463917466229224e-01   3.468312900000000e+00 -4.49232741e+00  -2.03838727e+00  -4.06929780e-01
C     4.875417505000000e+00   1.435231587291902e+00   3.454637400000000e+00  4.22749984e+00  -4.39845270e-01  -5.24248400e-02
C     6.115806343099999e+00   6.891682510120408e-01   3.419097900000000e+00  2.27152090e+00   6.05189910e-01  -4.78635590e-01
C     7.405361726100000e+00   1.390434486682041e+00   3.443720400000000e+00 -1.68150636e+00   9.18613140e-01  -2.40125480e-01
C     8.646365384499999e+00   7.662487031535336e-01   3.491313000000000e+00 -6.15566580e-01  -1.55681402e+00  -8.83315170e-01
C     9.863033823400000e+00   1.457671594492714e+00   3.496169100000000e+00  9.67307560e-01  -1.11276501e+00   2.08342760e-01
C     2.427408503500000e+00   2.858005014463799e+00   3.567619800000000e+00  2.55415359e+00   2.01421580e-01   8.84885000e-02
C     3.756533496199999e+00   3.525779799399458e+00   3.584113500000000e+00 -4.41150315e+00   3.06528854e+00  -4.71227700e-02
C     4.913850552500000e+00   2.842182569604778e+00   3.479984700000000e+00  1.71583505e+00  -4.90824770e-01  -1.13383860e-01
C     6.148202753500000e+00   3.532581889757721e+00   3.386091000000000e+00  1.50289571e+00  -5.06848700e-02  -1.52524020e-01
C     7.417145510699999e+00   2.792946635177098e+00   3.353923800000000e+00 -1.39229009e+00   2.71493512e+00   1.36149174e+00
C     8.603184747000000e+00   3.608410266792531e+00   3.517337700000000e+00  3.02836150e-01  -1.11235121e+00  -1.49253316e+00
C     9.845241798500000e+00   2.852867774978822e+00   3.524876400000000e+00  3.92766510e-01   2.46358603e+00   2.96635490e-01
C     1.108485958460000e+01   3.592241821228861e+00   3.558889800000000e+00 -4.68159970e-01  -1.77713250e-01  -5.02943410e-01
C     3.729381422599999e+00   5.016179030139077e+00   3.588941700000000e+00 -4.71513660e-01  -3.12786074e+00  -3.13168430e-01
C     4.910656898500000e+00   5.706036208516644e+00   3.485947200000000e+00  1.56006386e+00   5.45804630e-01  -4.84138210e-01
C     6.180498443999999e+00   4.958339359531958e+00   3.371066400000000e+00 -3.46937785e+00  -3.85496300e-01   9.37464130e-01
C     7.330828556400000e+00   5.683904715764475e+00   3.427378200000000e+00  2.25173039e+00   2.17196242e+00  -1.35342395e+00
C     8.565437265300000e+00   5.060284812460478e+00   3.397653900000000e+00  3.51313206e+00  -2.04509611e+00   1.23877054e+00
C     9.896393506499999e+00   5.780445145839364e+00   3.451326300000000e+00 -2.31801698e+00  -1.90220487e+00  -8.54906550e-01
C     1.112700649970000e+01   5.020333685688120e+00   3.447376500000000e+00 -1.97562303e+00  -3.14581320e-01   1.08674625e+00
C     1.235334069660000e+01   5.696411975194741e+00   3.530506200000000e+00  5.38395460e-01  -1.00179295e+00  -2.75898500e-01
C     4.886113189300000e+00   7.151321285187279e+00   3.427783800000000e+00  2.09225021e+00  -9.70883240e-01  -1.60524460e-01
C     6.163934975099999e+00   7.805525789278017e+00   3.416646000000000e+00 -1.69297890e+00   1.38184665e+00  -2.54881460e-01
C     7.360566809400000e+00   7.123966992065124e+00   3.322815900000000e+00  6.41213360e-01  -8.44941520e-01   1.11115942e+00
C     8.582013798700000e+00   7.836541012363263e+00   3.368122800000000e+00  1.04604290e+00   1.32158627e+00   1.48560250e-01
C     9.837340487500001e+00   7.192868865358977e+00   3.374796600000000e+00  9.66563300e-01  -2.24417799e+00  -8.18215100e-02
C     1.111390817990000e+01   7.809136595249590e+00   3.329697300000000e+00 -4.83993460e-01   8.66726510e-01   1.13291481e+00
C     1.237124448460000e+01   7.055090991973024e+00   3.442379700000000e+00 -1.15814003e+00   5.04233878e+00  -9.67325090e-01
C     1.357319712000000e+01   7.902207796146664e+00   3.361825800000000e+00 -9.45033070e-01  -2.77531415e+00   1.51070522e+00
