32
Lattice="9.86 0 0 4.93 8.53901048131456 0 0 0 30 " PBC="1 1 1" Properties=species:S:1:pos:R:3:force:R:3 Energy="-257.46983725"
C     9.877389441100000e+00   4.049718795354232e-01  -1.103843999999974e-01 -6.86760610e-01   3.12694730e-01  -1.12275460e-01
C     1.217361301100000e+00   1.131231286539754e+00  -1.665923999999990e-01  1.66694820e+00  -1.46246920e-01   9.33788590e-01
C     2.455061366500000e+00   4.143442974382712e-01  -5.113710000000182e-02  1.08878814e+00   5.13063900e-02  -3.20948470e-01
C     3.712535612600000e+00   1.109211654824874e+00  -2.971259999999987e-02  2.86031630e-01   7.03578740e-01  -6.05340520e-01
C     4.988171189899999e+00   4.337543221603592e-01  -7.180680000000095e-02 -2.14860588e+00  -8.99947850e-01   5.72749160e-01
C     6.199522673099999e+00   1.141049440789658e+00  -7.753830000000050e-02  2.92617010e-01  -8.04907510e-01  -1.12140200e-02
C     7.403387951299999e+00   3.815141930656056e-01  -7.749270000000053e-02  1.12518900e+00   1.43928985e+00  -1.00921400e-01
C     8.641376766799999e+00   1.094324060833203e+00  -9.890010000000160e-02 -8.96731800e-02   1.16609118e+00   1.46248690e-01
C     1.112030692550000e+01   2.552569391440068e+00  -1.498107000000033e-01 -5.02510680e-01   1.74780910e-01  -7.67093010e-01
C     2.482714328100000e+00   3.278862442145690e+00  -2.189735999999982e-01  1.22201457e+00  -1.17693620e+00   9.74734320e-01
C     3.743789742000000e+00   2.539300366884881e+00  -1.069772999999969e-01 -1.37573283e+00  -1.77929760e-01  -3.62120110e-01
C     4.977162253400000e+00   3.220629891666387e+00  -1.066785000000010e-01 -3.24600310e-01   1.69967169e+00   2.71874200e-02
C     6.222889246200000e+00   2.554020254710725e+00  -8.328930000000057e-02 -1.21259051e+00  -7.42254520e-01   2.12126620e-01
C     7.421964092700000e+00   3.259088826357364e+00  -4.588379999999859e-02  8.98991480e-01  -7.70679710e-01  -1.88433230e-01
C     8.657198467900001e+00   2.546196044798006e+00  -7.070219999999949e-02 -4.60366520e-01  -1.17733516e+00  -4.06528330e-01
C     9.873238331800000e+00   3.248833389380779e+00  -1.556129999999989e-01  4.79974250e-01   5.93259740e-01   4.79202440e-01
C     1.236418595710000e+01   4.692410920125728e+00  -1.799813999999991e-01 -3.08611200e-02  -7.40494000e-02  -2.55173630e-01
C     3.739087015000000e+00   5.401283279380789e+00  -1.667606999999975e-01 -2.87798600e-02  -3.95540520e-01   1.03890730e-01
C     4.949520482900001e+00   4.672316920664193e+00  -1.105248000000003e-01  7.92871150e-01  -3.07762200e-01   1.20426350e-01
C     6.184614550299999e+00   5.387704971866016e+00  -2.262210000000309e-02 -2.40793500e-02   1.64768560e-01  -5.07036050e-01
C     7.414909854299999e+00   4.645229642399747e+00  -3.719219999999979e-02 -6.37871190e-01   1.62192833e+00   2.08744620e-01
C     8.632019084500000e+00   5.353328794255842e+00  -4.177110000000184e-02  5.06548250e-01   1.40486570e+00   2.97953600e-02
C     9.859534755900000e+00   4.679867284510818e+00  -1.210137000000024e-01  1.89666242e+00  -4.08843910e-01  -2.43665000e-03
C     1.114824587640000e+01   5.389990438020989e+00  -1.345902000000017e-01 -2.37153605e+00   7.46886670e-01   1.75558980e-01
C     1.361657821130000e+01   6.818072738788511e+00  -1.569342000000020e-01 -1.14684460e+00  -1.26937780e-01   5.72289180e-01
C     4.956282816000000e+00   7.532334409117919e+00  -7.382279999999852e-02  9.01483890e-01  -1.36457500e-01  -4.37210620e-01
C     6.193982043300000e+00   6.835893824440481e+00  -4.436909999999727e-02 -1.61907460e-01  -1.39684269e+00   1.26663930e-01
C     7.427495207600000e+00   7.528402024011668e+00  -2.615310000000193e-02 -4.55118620e-01  -3.03861900e-02   1.30264110e-01
C     8.643909899400001e+00   6.787954026413560e+00  -1.244400000000923e-03  2.94747290e-01   8.54404520e-01  -2.50661770e-01
C     9.877129137099999e+00   7.532884748343355e+00  -3.257159999999715e-02  3.19703300e-01  -1.82118490e-01  -4.71383900e-02
C     1.110868075300000e+01   6.832937533622200e+00  -6.294180000000082e-02  1.19290525e+00  -1.09215523e+00  -3.98109950e-01
C     1.237712627040000e+01   7.527994371651354e+00  -1.021128000000004e-01 -1.30763707e+00  -8.86195480e-01  -4.10288900e-02
