32
Lattice="9.86 0 0 4.93 8.53901048131456 0 0 0 30 " PBC="1 1 1" Properties=species:S:1:pos:R:3:force:R:3 Energy="-257.02382493"
C     9.842045679500000e+00   5.585914105539768e-01  -1.534215000000003e-01  7.58640800e-02  -1.23782240e-01   1.99654200e-02
C     1.207879481400000e+00   1.295537474564133e+00  -2.012183999999984e-01  1.63376780e-01  -6.73383620e-01   1.23217890e+00
C     2.428828195600000e+00   5.461392277413072e-01  -9.923489999999902e-02  1.12290331e+00   1.32012959e+00  -1.01542480e-01
C     3.691465532100000e+00   1.274244341860890e+00  -2.180639999999912e-02 -1.85417868e+00  -1.09830650e-01  -2.36572010e-01
C     4.909416855600000e+00   5.576021661898688e-01  -5.705729999999676e-02 -1.61633272e+00  -7.03122570e-01   2.45122940e-01
C     6.099701955800000e+00   1.293495967938574e+00  -1.030866000000010e-01  1.29314855e+00  -4.11254860e-01   5.89401760e-01
C     7.339265018900000e+00   5.459996149199592e-01  -5.744999999999933e-02  9.56106940e-01   1.56694696e+00  -3.05578930e-01
C     8.628781109800000e+00   1.258085033038434e+00  -1.374180000000003e-01 -2.16076510e+00   1.07890825e+00   5.98314220e-01
C     1.106144430310000e+01   2.723083696253721e+00  -5.318790000000106e-02 -2.03700660e-01  -1.21411086e+00  -8.01535780e-01
C     2.420491368400000e+00   3.417620593934747e+00  -1.659989999999922e-02  7.70881800e-02  -4.48413700e-02   6.02850950e-01
C     3.613632072500000e+00   2.694137646187988e+00   2.697990000000000e-02  2.51748146e+00   2.27452410e-01  -5.09765370e-01
C     4.876478293100000e+00   3.445173846001087e+00   4.695000000000000e-04 -1.23546621e+00  -1.81840671e+00  -1.86036140e-01
C     6.077185610500000e+00   2.729903291583468e+00  -6.653279999999739e-02  1.57714146e+00  -7.11832270e-01   1.77318710e-01
C     7.338259446800000e+00   3.435999789311690e+00  -3.308129999999920e-02  5.30979060e-01  -2.16667765e+00  -1.70112310e-01
C     8.604241393899999e+00   2.723993613210470e+00  -6.375390000000181e-02 -9.13749330e-01  -1.51619218e+00  -4.00381080e-01
C     9.836219799899999e+00   3.417557149086881e+00  -5.089079999999768e-02 -3.79444150e-01  -1.66859690e-01   3.27052770e-01
C     1.233905508490000e+01   4.831748785336273e+00   4.075500000000000e-02 -2.18339455e+00   8.30371500e-02  -8.91099120e-01
C     3.673437705300000e+00   5.513763309538484e+00  -7.876770000000022e-02  4.67546770e-01   2.30434564e+00   6.32086450e-01
C     4.886660764400000e+00   4.833334735752723e+00  -5.094150000000042e-02  1.47010637e+00   5.80621090e-01  -4.81136300e-02
C     6.143973898100000e+00   5.536730515246330e+00  -6.208529999999968e-02 -7.53400420e-01   3.84929690e-01   1.61391060e-01
C     7.368651713600000e+00   4.818188068183090e+00  -2.794500000000255e-03 -9.02173390e-01   5.59243670e-01  -2.26182530e-01
C     8.589509863699998e+00   5.496843943393202e+00   1.043580000000000e-02  1.04693384e+00   4.75657900e-01   2.25654950e-01
C     9.838960781299999e+00   4.818201815989962e+00   2.259000000000000e-02  8.67195320e-01   9.73130800e-01  -3.21973750e-01
C     1.110390520990000e+01   5.557862687602025e+00  -7.824000000020703e-04 -1.79398692e+00  -7.26699860e-01   5.27188640e-01
C     1.353539023180000e+01   6.959207297194152e+00  -8.137229999999818e-02 -1.91256674e+00  -2.29204620e-01   6.45662690e-01
C     4.889269326000000e+00   7.659120270483282e+00  -7.019760000000019e-02  6.95442130e-01   7.51605540e-01  -7.63232860e-01
C     6.131100336999999e+00   6.961663970509249e+00  -8.622330000000034e-02  4.88121940e-01  -7.29726000e-02   1.02517670e-01
C     7.382439000900000e+00   7.683776236293758e+00  -7.440420000000003e-02 -1.25865663e+00  -1.64605969e+00   1.11417760e-01
C     8.589861323399999e+00   6.899406899000615e+00   6.489000000000000e-03 -1.54593854e+00   1.72769047e+00  -3.33057560e-01
C     9.754138356499999e+00   7.637207547179610e+00  -9.560099999998073e-03  2.81351654e+00   1.58640357e+00  -1.00137210e-01
C     1.100855891130000e+01   6.978903805717844e+00   4.500600000000000e-03  1.16513329e+00  -9.81947840e-01   9.50795800e-02
C     1.224706508100000e+01   7.679994906282899e+00   1.734960000000000e-02  1.38566804e+00  -3.02923450e-01  -8.97883710e-01
