32
Lattice="9.86 0 0 4.93 8.53901048131456 0 0 0 30 " PBC="1 1 1" Properties=species:S:1:pos:R:3:force:R:3 Energy="-257.29617213"
C     4.914522708700001e+00   8.343991008300948e+00   9.931500000000000e-02  1.59972421e+00   1.75751281e+00   1.20912700e-02
C     1.241381296400000e+00   5.238141556215568e-01   1.026411000000000e-01 -1.99092560e-01   5.02271670e-01   6.73775800e-02
C     7.427866387300000e+00   8.385868706617803e+00   9.089790000000000e-02 -1.45499822e+00  -1.13391125e+00   1.78408200e-01
C     3.704821592300000e+00   5.549078522131143e-01   8.068650000000001e-02  9.24222850e-01  -4.92628900e-02  -8.65806060e-01
C     9.877928881700001e+00   8.368361685771287e+00  -1.168919999999929e-02 -3.26025230e-01  -3.67376850e-01   3.25810060e-01
C     6.180493119599999e+00   5.483281176877505e-01   1.269720000000000e-02 -4.63473960e-01  -8.46363620e-01   2.14962710e-01
C     1.235418052210000e+01   8.409477021232487e+00   1.811370000000000e-02 -1.15939448e+00  -1.76705387e+00  -4.90952680e-01
C     8.643194457800000e+00   5.479004840429119e-01   8.612460000000000e-02 -1.79603470e-01   1.89528670e-01  -1.74201810e-01
C     1.213964136700000e+00   1.951088665997671e+00   5.752860000000000e-02  1.00443270e+00  -4.24342100e-02  -7.28878570e-01
C     2.466663086200000e+00   2.686593003478384e+00  -1.203962999999995e-01 -4.38513700e-01  -1.54470407e+00   8.83165290e-01
C     3.691564033500000e+00   1.974883814161658e+00  -4.447919999999783e-02  8.51821320e-01  -1.08117790e-01   4.23080770e-01
C     4.964024690800000e+00   2.666063002141740e+00  -9.027000000010332e-04 -1.79228955e+00   4.49114000e-02  -1.85794000e-01
C     6.150502351999999e+00   1.938956696078002e+00   8.771250000000000e-02  1.52173169e+00   1.11922971e+00  -4.07350450e-01
C     7.401239062899999e+00   2.661280558542205e+00   9.071340000000000e-02 -7.92868890e-01   2.48047630e-01   3.34639000e-02
C     8.634246409199999e+00   1.979877683660677e+00   6.720630000000000e-02 -1.34448416e+00  -1.94054474e+00   5.53376150e-01
C     9.829088949299999e+00   2.630548830604895e+00   5.336580000000000e-02  2.21015247e+00   2.49621849e+00  -6.38296520e-01
C     2.502067191000000e+00   4.084109318502013e+00  -1.748478000000020e-01 -1.15590487e+00   5.41928650e-01  -2.85526000e-03
C     3.716535469500000e+00   4.799152137510131e+00  -1.155378000000020e-01  4.64492050e-01   9.87357540e-01  -2.72710640e-01
C     4.972578931000000e+00   4.084220154858043e+00  -4.690919999999821e-02 -2.17771108e+00  -1.11199260e-01   2.49256500e-02
C     6.154896165200000e+00   4.782426521512640e+00   1.944870000000000e-02  1.65782935e+00   1.49309857e+00   6.90903010e-01
C     7.386808410599999e+00   4.079540947895213e+00   9.892650000000000e-02  6.33888380e-01   1.90170820e-01  -3.98611690e-01
C     8.630519033399999e+00   4.804048833069887e+00   4.841760000000000e-02 -1.11724250e-01  -6.74797230e-01  -2.89815090e-01
C     9.855642471600000e+00   4.072879495039555e+00  -7.889039999999881e-02  1.55214860e-01  -1.45658000e-03   6.48068000e-01
C     1.110227387290000e+01   4.768360636499460e+00  -1.807611000000016e-01  1.66462750e-01   1.22968547e+00   3.33649180e-01
C     3.685913957700000e+00   6.259060098847556e+00  -1.037475000000008e-01  1.02286565e+00  -1.20635925e+00   3.88480580e-01
C     4.942780778500000e+00   6.964205094637991e+00   4.869450000000000e-02 -8.15188620e-01  -2.14070092e+00  -2.23935160e-01
C     6.175174290499999e+00   6.220509199013709e+00   9.901680000000000e-02 -5.85650260e-01   4.03347800e-01  -5.54124000e-01
C     7.397096679699999e+00   6.945357449146115e+00   9.489630000000000e-02  5.34993880e-01  -8.68803400e-02   1.66644890e-01
C     8.627949270899999e+00   6.218529856384445e+00   4.914090000000000e-02  2.80081400e-01   5.00368770e-01  -3.28986490e-01
C     9.865945432100000e+00   6.928018646806057e+00  -5.943990000000099e-02  2.43837920e-01   4.12462390e-01   2.72478220e-01
C     1.111880362060000e+01   6.222948367357321e+00  -1.421472000000001e-01 -1.60418876e+00  -6.16924490e-01  -1.23787190e-01
C     1.231142061080000e+01   6.961736893658747e+00  -1.252653000000024e-01  1.32936057e+00   5.21946970e-01   4.69220170e-01
