32
Lattice="9.86 0 0 4.93 8.53901048131456 0 0 0 30 " PBC="1 1 1" Properties=species:S:1:pos:R:3:force:R:3 Energy="-256.85657001"
C     4.930483041400000e+00   8.335922924248921e+00   1.367253000000000e-01  2.58676680e-01   2.70482508e+00  -2.52256560e-01
C     1.259572059700000e+00   5.491540961714807e-01   1.250961000000000e-01 -1.14977910e+00  -1.00132851e+00  -4.41662200e-02
C     7.411396046099999e+00   8.360796805606846e+00   1.635930000000000e-01 -3.16605100e-01   4.04868550e-01  -4.05424650e-01
C     3.686803231100000e+00   5.403414957957016e-01   3.643410000000000e-02  7.46566900e-01   1.79901660e-01   7.28277090e-01
C     9.877879137999999e+00   8.352288962515097e+00   9.361680000000000e-02 -1.91255271e+00   4.13950510e-01  -6.21495800e-02
C     6.138256429200000e+00   5.555142073472992e-01   1.225923000000000e-01  4.19074970e-01  -1.55058224e+00  -7.46057480e-01
C     1.230229237070000e+01   8.374812395848299e+00   1.919820000000000e-02  8.87963730e-01   5.86827500e-02   9.28255990e-01
C     8.632982061399998e+00   5.088160668342752e-01   1.096527000000000e-01 -7.81311980e-01   2.18934425e+00  -1.49440730e-01
C     1.223070241100000e+00   1.952222134248786e+00  -1.617419999999825e-02  1.88332650e-01   9.44971490e-01  -4.78903950e-01
C     2.445765259900000e+00   2.714913058685828e+00  -1.328700000000005e-01 -3.58927100e-01  -2.42462118e+00   5.46563160e-01
C     3.638438107000000e+00   1.972411514457384e+00  -2.609909999999971e-02  2.46971719e+00   5.01505430e-01  -1.81447900e-02
C     4.936756417100000e+00   2.703160818562204e+00   4.828050000000000e-02 -3.22254381e+00  -3.23914820e-01  -7.10235920e-01
C     6.090762436099999e+00   1.946474355514489e+00   1.092285000000000e-01  2.23622472e+00   1.66147439e+00   3.76924820e-01
C     7.330727787200000e+00   2.685243669042334e+00   1.398165000000000e-01  1.94637619e+00  -8.67624000e-03  -3.71554370e-01
C     8.612601540000000e+00   2.008730487731968e+00   1.184247000000000e-01 -7.79692150e-01  -2.71518440e+00  -4.89286040e-01
C     9.845247418700000e+00   2.662474653767729e+00  -5.651250000000019e-02 -4.07425300e-01   1.58330930e+00   1.07151903e+00
C     2.469370888700000e+00   4.104403045418676e+00  -1.887471000000005e-01 -8.13533840e-01   5.54819270e-01   2.14753080e-01
C     3.645352925000000e+00   4.830285284330106e+00  -1.092680999999978e-01  2.96636200e+00   1.35554390e-01  -3.17762700e-02
C     4.925095783900000e+00   4.136194122996135e+00  -2.653979999999834e-02 -8.72406450e-01  -7.21358200e-01   7.12936400e-01
C     6.138085752599999e+00   4.828802228989939e+00   1.459458000000000e-01  1.39490486e+00   6.65083500e-01  -1.00708205e+00
C     7.410707818100001e+00   4.108807979364889e+00   1.071117000000000e-01 -1.78963079e+00   2.87548480e-01   6.97447340e-01
C     8.651989922900000e+00   4.849265540654735e+00   1.083804000000000e-01 -1.51234132e+00  -2.85475838e+00  -3.30467360e-01
C     9.842499831100000e+00   4.126222437337801e+00  -2.321189999999973e-02  2.07083854e+00  -1.22974188e+00  -5.15102400e-01
C     1.112102788870000e+01   4.811104702819615e+00  -1.329902999999995e-01 -2.57897172e+00   3.48795230e-01   1.97736280e-01
C     3.680260628100000e+00   6.252389936201209e+00  -5.330400000000068e-02 -1.41822340e-01  -3.80292260e-01   1.50377040e-01
C     4.909826390700000e+00   6.963927064456763e+00   6.751560000000001e-02  5.69119370e-01  -1.60112685e+00   7.58517200e-02
C     6.150505260699999e+00   6.270045365049866e+00   1.305459000000000e-01  1.10830660e-01  -1.19005314e+00   4.52399620e-01
C     7.402659642400000e+00   6.944129112488568e+00   2.198187000000000e-01 -1.09573971e+00   6.05366800e-02  -4.76714630e-01
C     8.605692835199999e+00   6.214673041520944e+00   1.477122000000000e-01  6.12675080e-01   2.05166120e+00   1.34922610e-01
C     9.827806163300000e+00   6.921471958251250e+00   8.238270000000000e-02  1.08759708e+00   7.40477840e-01  -3.66366320e-01
C     1.106135226000000e+01   6.230092615865519e+00  -8.267010000000141e-02  1.21014502e+00   1.45765700e-02   6.24474520e-01
C     1.231977040390000e+01   6.949461468363014e+00  -3.290610000000171e-02 -1.44212221e+00   4.99751520e-01  -4.57309390e-01
