32
Lattice="9.86 0 0 4.93 8.53901048131456 0 0 0 30 " PBC="1 1 1" Properties=species:S:1:pos:R:3:force:R:3 Energy="-257.14521416"
C     1.244394463100000e+00   7.527695335504344e-01   3.537971100000000e+00  6.30205500e-02   1.52714144e+00  -1.02208530e-01
C     2.492118401700000e+00   1.482301772491540e+00   3.482683500000000e+00 -1.63051150e-01  -8.22178140e-01   5.68207330e-01
C     3.725863423899999e+00   7.650990107825063e-01   3.590982000000000e+00 -2.78857610e-01  -5.01876850e-01  -4.36466080e-01
C     4.933657123300000e+00   1.512176525337078e+00   3.529305000000000e+00  5.72429450e-01  -9.82359870e-01   6.41446580e-01
C     6.185349317500000e+00   7.957885560080457e-01   3.593342700000000e+00 -1.09159863e+00  -1.22137605e+00  -1.80001990e-01
C     7.421802783100000e+00   1.450982731413415e+00   3.565573500000000e+00 -2.60308270e-01   5.08859740e-01   2.37499710e-01
C     8.622048553899999e+00   7.741614626049304e-01   3.537874500000000e+00  2.64894094e+00  -9.31952790e-01   5.03544000e-01
C     9.882888954699999e+00   1.501009719771962e+00   3.528120000000000e+00 -6.53250490e-01  -3.59813100e-01  -3.31738760e-01
C     2.508501136800000e+00   2.903746871193168e+00   3.434941500000000e+00 -6.81882840e-01  -4.60764300e-02   3.03926000e-02
C     3.717470197500000e+00   3.631900486892278e+00   3.441627600000000e+00  4.32310820e-01  -2.94011600e-01  -1.06688810e-01
C     4.933067939000000e+00   2.934614027836691e+00   3.519190500000000e+00  1.24097008e+00  -1.22202617e+00   8.13543800e-02
C     6.211657473700001e+00   3.560352459640777e+00   3.610872600000000e+00 -5.42822390e-01   1.85868308e+00  -1.18060690e-01
C     7.466331627699999e+00   2.842499196113377e+00   3.622961100000000e+00 -2.18384936e+00   2.49442124e+00  -7.07752730e-01
C     8.617568810800000e+00   3.645420046014947e+00   3.511126500000000e+00  2.09070528e+00  -9.74156660e-01   6.02711690e-01
C     9.880677307399999e+00   2.931672851066960e+00   3.471249000000000e+00  1.46917890e-01  -2.92819930e-01   2.22029980e-01
C     1.114129699210000e+01   3.618137480580823e+00   3.457713900000000e+00 -1.33349535e+00   9.55913000e-03  -2.46833000e-03
C     3.735064233600000e+00   5.035772302026065e+00   3.403988400000000e+00 -7.20495720e-01   2.76584670e-01   5.89093470e-01
C     4.935509127100000e+00   5.749870535694885e+00   3.528636600000000e+00  1.58256540e+00  -4.80487470e-01   1.15878750e-01
C     6.176910537900000e+00   5.024341555647013e+00   3.621779700000000e+00  4.54827080e-01  -6.07211310e-01  -6.20138800e-01
C     7.402036145299999e+00   5.763104294136790e+00   3.586957500000000e+00 -3.82478520e-01   4.05942790e-01   6.51407320e-01
C     8.637659201700000e+00   5.069316523845173e+00   3.571206300000000e+00 -3.37527000e-01  -4.62887470e-01  -4.13383040e-01
C     9.881239031600000e+00   5.762186094339875e+00   3.531064200000000e+00  1.53351090e-01  -6.36847420e-01   3.56072100e-01
C     1.110002820860000e+01   5.035968016146267e+00   3.512358000000000e+00  1.27657093e+00   9.22352400e-02  -8.33332240e-01
C     1.236660037530000e+01   5.728614718467441e+00   3.432754200000000e+00 -1.22700829e+00   5.47657430e-01   6.10397810e-01
C     4.988347881100000e+00   7.169604331306217e+00   3.570701700000000e+00 -2.34365851e+00  -3.24538520e-01   8.71244000e-03
C     6.166996061400000e+00   7.876840786933518e+00   3.579363000000000e+00  1.30174781e+00   1.28040992e+00   2.37710660e-01
C     7.393227221299999e+00   7.210094952760700e+00   3.632119800000000e+00  9.78350740e-01  -2.33462488e+00  -2.47049890e-01
C     8.651339310800001e+00   7.838717691524720e+00   3.661015200000000e+00 -1.37999720e-01   2.82915761e+00  -6.44472640e-01
C     9.894386059799999e+00   7.172662919470048e+00   3.581007600000000e+00 -4.95639980e-01  -1.81665830e-01   3.31132750e-01
C     1.110567902390000e+01   7.892618572767729e+00   3.597598200000000e+00  1.35127917e+00  -1.16414120e-01  -2.90285110e-01
C     1.236438458680000e+01   7.135906578078679e+00   3.545979000000000e+00 -3.64758000e-02   2.02403595e+00   1.27365960e-01
C     1.361650283160000e+01   7.894931705316655e+00   3.604557300000000e+00 -1.42358760e+00  -1.06136366e+00  -8.80909890e-01
