32
Lattice="9.86 0 0 4.93 8.53901048131456 0 0 0 30 " PBC="1 1 1" Properties=species:S:1:pos:R:3:force:R:3 Energy="-257.10845118"
C     1.233945180200000e+00   8.715009732805377e-01   3.419389800000000e+00 -1.90824080e-01  -5.80951950e-01  -1.23802880e-01
C     2.454560626400000e+00   1.580124591160315e+00   3.455407200000000e+00 -4.46741240e-01   1.83718523e+00  -2.43382970e-01
C     3.679653843700000e+00   8.881765506766152e-01   3.415302000000000e+00  7.26962200e-02   6.94039580e-01  -1.79838350e-01
C     4.922661349900000e+00   1.612078336887418e+00   3.401391900000000e+00 -1.54893380e-01  -1.54670139e+00   1.62878320e-01
C     6.139679276499999e+00   8.832107745220760e-01   3.428818200000000e+00  1.46799827e+00  -9.70676990e-01  -3.42165110e-01
C     7.396945723099999e+00   1.571238982244932e+00   3.376268400000000e+00 -1.04416074e+00   2.10109212e+00   2.79631290e-01
C     8.642089299700000e+00   9.326634290357383e-01   3.347428500000000e+00 -1.02386096e+00  -1.70816244e+00   4.58851600e-01
C     9.869450464900000e+00   1.596167598660035e+00   3.444177600000000e+00  4.65234000e-01   9.04689130e-01  -9.64151810e-01
C     2.424249260900000e+00   3.051956853682537e+00   3.457890000000000e+00  3.18108640e-01  -1.76693166e+00  -7.20132100e-02
C     3.674776890500000e+00   3.720828303734141e+00   3.479241900000000e+00  5.67136810e-01  -2.34282220e-01  -3.74412530e-01
C     4.940009083200000e+00   2.999953511348393e+00   3.396254100000000e+00 -1.27057112e+00   1.05698796e+00   1.11927770e-01
C     6.165443505800001e+00   3.702008239246117e+00   3.341667900000000e+00 -5.41141700e-01   9.27508390e-01   6.09938970e-01
C     7.382771973100001e+00   3.014625495325444e+00   3.401447100000000e+00  1.24885941e+00  -5.11260720e-01  -4.64783820e-01
C     8.642910637699998e+00   3.736624106880465e+00   3.405981300000000e+00 -1.40544434e+00   4.78314500e-02  -2.31551220e-01
C     9.859889715900000e+00   3.037081726646167e+00   3.384022500000000e+00 -8.81883670e-01  -1.18690647e+00   4.70785770e-01
C     1.103594215260000e+01   3.760702152461654e+00   3.395648100000000e+00  2.54905674e+00  -8.65079100e-02   7.82026190e-01
C     3.675215364700000e+00   5.127006420208473e+00   3.493242300000000e+00  1.89055963e+00   9.11193780e-01  -6.63247300e-02
C     4.953281086900000e+00   5.878603633010108e+00   3.453959400000000e+00 -2.39628302e+00  -9.13910120e-01  -6.42839650e-01
C     6.153867372800000e+00   5.133103529861507e+00   3.364192800000000e+00  1.54599600e-01   4.85856510e-01   5.94488490e-01
C     7.380044154799998e+00   5.852442410432217e+00   3.422116800000000e+00  6.32309660e-01  -1.37467318e+00  -5.98417440e-01
C     8.632050044899998e+00   5.165259479356776e+00   3.398564100000000e+00 -2.24449260e-01  -3.78634080e-01   3.91250620e-01
C     9.839504313799999e+00   5.908817128401387e+00   3.457042200000000e+00  6.05281310e-01  -9.81400010e-01  -4.31512000e-01
C     1.109368576360000e+01   5.169446070805016e+00   3.492431100000000e+00 -1.91221403e+00   3.17429240e-01  -4.20861030e-01
C     1.232144842800000e+01   5.831322875812034e+00   3.512643900000000e+00  4.62078350e-01   1.02818571e+00  -1.82343900e-02
C     4.891822375800000e+00   7.308099140012071e+00   3.365989500000000e+00  4.80380830e-01  -2.64123330e-01   1.60302030e-01
C     6.150809293799999e+00   7.967174808021229e+00   3.346291200000000e+00 -2.79962600e-02   7.72693400e-01   5.87111230e-01
C     7.388292981499999e+00   7.230462542118015e+00   3.404642100000000e+00 -6.25403860e-01   3.08041187e+00  -5.31625860e-01
C     8.593083768600000e+00   8.030545366496453e+00   3.348197400000000e+00  4.80386740e-01  -1.75656845e+00   6.88305190e-01
C     9.829208008800000e+00   7.320110112153237e+00   3.389077500000000e+00  7.64337490e-01  -2.71533070e-01   6.16234420e-01
C     1.110576909500000e+01   7.970432440519349e+00   3.470428200000000e+00 -1.56973234e+00   1.30207041e+00  -4.36488450e-01
C     1.232737310480000e+01   7.257988640131029e+00   3.485793600000000e+00 -3.02418900e-01   1.36762126e+00  -4.43583950e-01
C     1.350527276320000e+01   8.056726143408342e+00   3.351283200000000e+00  1.85899521e+00  -2.30157205e+00   6.72257510e-01
