32
Lattice="9.86 0 0 4.93 8.53901048131456 0 0 0 30 " PBC="1 1 1" Properties=species:S:1:pos:R:3:force:R:3 Energy="-256.73785614"
C     9.876995928500000e+00   1.415828564558408e-01   7.953060000000001e-02 -3.02480953e+00   5.03682750e-01  -2.61499730e-01
C     1.204529792900000e+00   8.603827546850537e-01   5.922150000000000e-02  8.13090880e-01   6.25932120e-01   3.48296100e-02
C     2.443640084800000e+00   1.414393156896720e-01   1.108629000000000e-01  1.32357450e-01   1.49869741e+00  -2.70452950e-01
C     3.673516536000000e+00   8.577113252563856e-01   4.733250000000000e-02 -8.51337250e-01   1.98846060e-01  -4.16798450e-01
C     4.880179589199999e+00   1.534562651381760e-01   1.866810000000000e-02  7.42436720e-01  -3.10334890e-01   8.63480850e-01
C     6.133031023600000e+00   8.885265647161904e-01   6.792239999999999e-02 -1.56633688e+00  -1.84488838e+00  -2.85527430e-01
C     7.311648539300000e+00   1.181258531068616e-01   5.724210000000000e-02  2.56767288e+00   1.36521369e+00  -6.07317000e-01
C     8.600128886500000e+00   8.482551396607287e-01   7.969499999999999e-03 -5.53500840e-01   5.00233360e-01   4.50753170e-01
C     1.103622464160000e+01   2.306176841770402e+00  -3.564719999999966e-02  1.56422239e+00  -1.30710663e+00  -1.09675000e-02
C     2.420489889400000e+00   3.000717240445725e+00  -1.182026999999977e-01 -1.15468320e-01  -5.59813730e-01   4.48011300e-02
C     3.638308497300000e+00   2.267385910351962e+00  -8.780099999999891e-02  5.82344000e-01   1.23607545e+00   7.56026690e-01
C     4.855532152800000e+00   3.025551244624709e+00  -4.432200000000108e-03  6.07554650e-01  -1.31359329e+00   1.86719000e-03
C     6.092882040300000e+00   2.285610208078797e+00   9.140580000000001e-02  7.45342700e-02   1.07519311e+00  -3.19572930e-01
C     7.321369710499999e+00   2.978975297351654e+00   9.837810000000000e-02  1.28096613e+00   1.92845145e+00  -5.14326870e-01
C     8.568680860200001e+00   2.317445090780019e+00  -2.503529999999898e-02  7.53412280e-01  -2.08108747e+00   1.04961901e+00
C     9.852667117999999e+00   3.018728746031399e+00  -1.444440000000213e-02 -2.47981620e+00  -1.78241920e-01  -9.32839210e-01
C     1.230556076350000e+01   4.416717524504885e+00  -1.545812999999967e-01 -5.07635470e-01   2.57563440e-01   1.58089470e-01
C     3.651587304400000e+00   5.134506318503162e+00  -6.137010000000132e-02  1.25887484e+00   9.04085560e-01  -6.13367370e-01
C     4.887693500799999e+00   4.438580892327982e+00  -1.364310000000302e-02  5.83459080e-01   9.37120700e-02  -2.56933220e-01
C     6.154548945300000e+00   5.151107094167434e+00  -1.857120000000023e-02 -7.65040510e-01   2.93524540e-01   1.07297138e+00
C     7.393904208900000e+00   4.456659599926134e+00   1.028166000000000e-01 -3.65833785e+00  -3.22720393e+00  -4.88106970e-01
C     8.568816484499999e+00   5.108371054517130e+00   8.799630000000000e-02  3.51327308e+00   6.38454960e-01  -7.27705910e-01
C     9.837081317399999e+00   4.422203070227342e+00  -1.231134000000011e-01  2.38962110e-01   6.27356170e-01   1.25935316e+00
C     1.108875684820000e+01   5.136897070657351e+00  -1.574694000000001e-01 -1.90962518e+00   3.80819660e-01   4.91123250e-01
C     1.354092795290000e+01   6.574992215113722e+00  -8.449889999999982e-02 -2.38383839e+00  -1.31109287e+00   7.12906450e-01
C     4.876254717599999e+00   7.260649225016388e+00   8.492400000000000e-02  1.85352646e+00   6.11486470e-01  -8.68047270e-01
C     6.133327809600000e+00   6.581160710894370e+00   4.108410000000000e-02  1.91254760e-01  -6.61727630e-01   4.02172110e-01
C     7.387260245099999e+00   7.295686236647608e+00   1.272906000000000e-01 -1.06311537e+00  -2.39558525e+00   3.62868400e-02
C     8.588647162999999e+00   6.500325314284401e+00   1.442592000000000e-01 -2.05095960e-01   2.76828940e+00  -4.12034280e-01
C     9.792967874599999e+00   7.257560664925771e+00   8.544990000000000e-02  7.39752930e-01   1.33428490e-01  -4.34879970e-01
C     1.103893860660000e+01   6.581883281961187e+00  -3.160500000000255e-02 -5.73786070e-01  -2.40981238e+00  -3.59994600e-01
C     1.224491717860000e+01   7.233822386571581e+00  -5.874930000000234e-02  2.16004891e+00   1.95944218e+00   4.46091330e-01
