32
Lattice="9.86 0 0 4.93 8.53901048131456 0 0 0 30 " PBC="1 1 1" Properties=species:S:1:pos:R:3:force:R:3 Energy="-257.05480845"
C     1.210398366300000e+00   2.708510081677400e-01   3.624903600000000e+00  1.39634735e+00  -4.53902400e-01  -2.53831990e-01
C     2.469156088600000e+00   9.667107693523279e-01   3.498253500000000e+00 -4.93458770e-01   1.08479252e+00  -2.44166700e-01
C     3.714491787300000e+00   2.677252179914312e-01   3.465634200000000e+00 -1.42178450e+00  -2.69849450e-01   5.43297190e-01
C     4.931525785700000e+00   9.643766308376200e-01   3.403468800000000e+00  5.21887060e-01   6.69429600e-01  -1.54460300e-02
C     6.164549351700000e+00   2.810655432841256e-01   3.429913200000000e+00  1.71422200e-01  -1.66930724e+00  -2.61598290e-01
C     7.391069902600000e+00   9.820719368652191e-01   3.515699100000000e+00 -9.01822170e-01   9.12384370e-01  -8.04272870e-01
C     8.597679169499999e+00   2.564199096763304e-01   3.481843500000000e+00  9.06045560e-01   1.04045859e+00   7.53853870e-01
C     9.856055704199999e+00   9.541155581141184e-01   3.556184700000000e+00 -5.78298880e-01   8.87831380e-01  -4.10887630e-01
C     2.447588127400000e+00   2.411882447963789e+00   3.294327000000000e+00  2.28636570e-01  -1.54814080e+00   2.09042640e-01
C     3.685210446700000e+00   3.088298369944788e+00   3.274261800000000e+00  6.82044500e-01   8.14582450e-01  -7.36999350e-01
C     4.948408669299999e+00   2.383448140796122e+00   3.335964900000000e+00 -1.88919495e+00   4.02533590e-01   1.79756960e-01
C     6.132322779799999e+00   3.125696076413310e+00   3.363807300000000e+00  1.48883473e+00   4.02327710e-01   8.23466980e-01
C     7.367876323199999e+00   2.426065744371069e+00   3.463699800000000e+00  9.32996890e-01  -1.17889799e+00   1.46392500e-02
C     8.643398904899998e+00   3.080949697525700e+00   3.420269700000000e+00 -8.33420150e-01   5.71755200e-01   1.13429840e-01
C     9.878498247400000e+00   2.378844504076040e+00   3.408568500000000e+00 -1.06876152e+00  -3.81015430e-01  -2.64847740e-01
C     1.106550223540000e+01   3.103933895864401e+00   3.179319900000000e+00  8.46056230e-01  -1.24612900e-02   8.28802120e-01
C     3.688773604200000e+00   4.523513476946464e+00   3.144526800000000e+00  1.18667699e+00  -9.96878700e-02   1.08752776e+00
C     4.933603682099999e+00   5.259035917129394e+00   3.346137300000000e+00 -7.29918660e-01  -3.88774900e-01   1.27536160e-01
C     6.166113739300000e+00   4.565171295743458e+00   3.469638600000000e+00 -7.30461560e-01  -1.15368865e+00  -1.28797884e+00
C     7.399001976799999e+00   5.241104080511500e+00   3.426332100000000e+00  6.83779370e-01   8.36875100e-02   1.01012790e+00
C     8.644818301200001e+00   4.497667600025600e+00   3.392245200000000e+00 -8.15352900e-01   9.24168110e-01  -9.74120910e-01
C     9.836468469100000e+00   5.234413851190524e+00   3.169890300000000e+00  3.97530050e-01   4.57905490e-01   7.22859210e-01
C     1.107178295680000e+01   4.523684257156064e+00   3.081674400000000e+00  2.52637420e-01   3.47920240e-01   1.79152920e-01
C     1.233159998820000e+01   5.235359888161604e+00   3.112395000000000e+00 -9.35896770e-01  -7.96498880e-01  -2.57887630e-01
C     4.929757296100000e+00   6.664772054421281e+00   3.483351600000000e+00 -9.76625160e-01   1.32124557e+00   5.49206600e-02
C     6.150133785200000e+00   7.392583426580353e+00   3.660795900000000e+00  4.32002360e-01  -1.22079866e+00  -8.71583920e-01
C     7.406873609200000e+00   6.668530158323634e+00   3.549918600000000e+00 -1.43838280e+00  -3.40266900e-02   2.24450460e-01
C     8.608803517300000e+00   7.379643324708855e+00   3.524744700000000e+00  1.17864789e+00   2.32956290e-01  -1.09908874e+00
C     9.821251925500000e+00   6.677550171263972e+00   3.263525400000000e+00  8.81778110e-01  -5.44213480e-01   4.68991140e-01
C     1.108275048130000e+01   7.369919270354441e+00   3.282133500000000e+00 -4.17622140e-01   2.74682460e-01   6.84498100e-02
C     1.230883413560000e+01   6.630826499109612e+00   3.221508600000000e+00  3.41305150e-01   2.29142998e+00   4.90920410e-01
C     1.352318153050000e+01   7.411803116758841e+00   3.416988900000000e+00  7.02372510e-01  -2.96882732e+00  -4.18514620e-01
