32
Lattice="9.86 0 0 4.93 8.53901048131456 0 0 0 30 " PBC="1 1 1" Properties=species:S:1:pos:R:3:force:R:3 Energy="-257.61558463"
C     1.203898950100000e+00   7.485589474827464e-01   3.538200300000000e+00  1.56147055e+00   4.98432920e-01  -1.59533170e-01
C     2.474827018300000e+00   1.467315979879350e+00   3.527926200000000e+00 -1.81465949e+00  -1.16105460e-01   9.18425500e-02
C     3.686780306600000e+00   7.516320519643936e-01   3.569834700000000e+00  4.73176100e-02   1.22028648e+00  -1.73493250e-01
C     4.905820075499999e+00   1.507075320476326e+00   3.551497200000000e+00 -6.81780000e-04  -2.06490353e+00   2.64891270e-01
C     6.116930678899999e+00   7.617182457532649e-01   3.601496700000000e+00  1.16542454e+00   1.97865130e-01  -5.53740200e-01
C     7.366384308000001e+00   1.454620776828419e+00   3.528844500000000e+00  5.79740920e-01   4.49440800e-01   6.21379750e-01
C     8.627008972000000e+00   7.808431529154256e-01   3.552205800000000e+00 -1.18872293e+00  -5.20434700e-01  -1.02884710e-01
C     9.852493138299998e+00   1.489763501409383e+00   3.541719900000000e+00 -1.53725440e-01  -8.44664080e-01  -3.05678940e-01
C     2.451640538099999e+00   2.892269501816895e+00   3.518905500000000e+00 -4.09576800e-02   3.83666310e-01   1.77621630e-01
C     3.680942792200000e+00   3.621296999848528e+00   3.547734300000000e+00  2.47676000e-02  -5.06767820e-01  -2.55540270e-01
C     4.913848925600000e+00   2.896988585958667e+00   3.529255500000000e+00  4.50593800e-02   1.01754777e+00   2.68226090e-01
C     6.161724806800000e+00   3.590307393794721e+00   3.561545100000000e+00 -4.24607320e-01   3.17096170e-01  -3.62515890e-01
C     7.395034411399999e+00   2.876432796810373e+00   3.558560400000000e+00 -7.02378110e-01   6.01186540e-01  -1.02612920e-01
C     8.603760225900000e+00   3.620917611612902e+00   3.566446200000000e+00  5.45667750e-01   1.25708500e-01  -6.04003970e-01
C     9.843607503499999e+00   2.895210507806417e+00   3.496919700000000e+00 -2.66022030e-01   1.11503900e+00   7.04307560e-01
C     1.106499341010000e+01   3.613257606871713e+00   3.536294400000000e+00  6.93422040e-01  -5.58936800e-01  -1.46475880e-01
C     3.679965518300000e+00   5.039592228364294e+00   3.559237800000000e+00  6.07457410e-01  -5.17290580e-01  -1.87595600e-02
C     4.925186150800000e+00   5.744206183092977e+00   3.577325100000000e+00 -9.86106830e-01   5.53714280e-01  -2.86692900e-01
C     6.139226406700000e+00   5.014978530655694e+00   3.532541100000000e+00  4.01955800e-01   4.59398590e-01   7.63706270e-01
C     7.359365368400000e+00   5.757978411535751e+00   3.605586000000000e+00  5.62621890e-01  -1.07237587e+00  -7.25251820e-01
C     8.601203330699999e+00   5.072518823555383e+00   3.545671800000000e+00  5.93020270e-01  -1.51714903e+00   8.38338790e-01
C     9.865309363500000e+00   5.752283489276324e+00   3.607530900000000e+00 -1.22989060e+00   3.11705050e-01  -4.65749490e-01
C     1.108113807550000e+01   5.030741373221565e+00   3.589805100000000e+00 -1.91703770e-01  -2.79064590e-01  -3.04060800e-01
C     1.231072597380000e+01   5.716067069517605e+00   3.554758500000000e+00  2.59819120e-01   1.87133716e+00   5.45401190e-01
C     4.895397365300000e+00   7.194742153478080e+00   3.576756300000000e+00  1.07766145e+00  -1.73924574e+00  -2.59115500e-01
C     6.153793620000000e+00   7.856334353265799e+00   3.530739900000000e+00 -1.02668977e+00   1.25013037e+00   5.22902360e-01
C     7.372749480300000e+00   7.150300702654709e+00   3.587079600000000e+00  3.00248490e-01   1.33032550e+00  -4.73917300e-02
C     8.604004408800000e+00   7.895502111216720e+00   3.599266500000000e+00  5.25427310e-01  -1.59026126e+00  -1.76500270e-01
C     9.852738849500000e+00   7.177962827104670e+00   3.588241500000000e+00 -3.08242390e-01  -2.68004360e-01   4.15469430e-01
C     1.108351300440000e+01   7.874658557415249e+00   3.608548500000000e+00 -3.37659000e-02   2.70321640e-01  -1.20811000e-02
C     1.233366265090000e+01   7.167326464870571e+00   3.604571400000000e+00 -1.53957373e+00  -5.58337460e-01  -3.29723210e-01
C     1.353008791820000e+01   7.894273859949276e+00   3.570540000000000e+00  9.16645620e-01   1.80339070e-01   1.77718690e-01
