32
Lattice="9.86 0 0 4.93 8.53901048131456 0 0 0 30 " PBC="1 1 1" Properties=species:S:1:pos:R:3:force:R:3 Energy="-256.59597663"
C     4.971745021499999e+00   8.406242956403291e+00  -2.423496000000007e-01 -1.70764887e+00  -1.52808045e+00   3.23418620e-01
C     1.246140176100000e+00   5.878590397543864e-01  -2.137002000000017e-01  1.06080664e+00  -1.27698392e+00  -9.00961200e-02
C     7.392972636100000e+00   8.351574674288445e+00  -2.589134999999985e-01  1.38908725e+00   2.35243819e+00   2.37487410e-01
C     3.723536562500000e+00   5.416436948939015e-01  -1.846104000000004e-01 -5.12866800e-01  -7.78684300e-02   8.24263370e-01
C     9.890569451000001e+00   8.355512268191088e+00  -8.659409999999923e-02 -1.31511782e+00   1.19994060e+00  -3.02276300e-01
C     6.166171420300000e+00   5.354827988325815e-01  -8.768129999999985e-02  9.70839520e-01   3.32249870e-01  -3.93711630e-01
C     1.231765282100000e+01   8.325490302804875e+00  -9.457379999999915e-02  1.56387879e+00   1.64574693e+00   5.87581300e-02
C     8.635253065900001e+00   5.232016523998264e-01  -2.481554999999993e-01 -6.13840300e-02   2.38889060e-01   6.76669430e-01
C     1.294689780800000e+00   1.993774752436667e+00  -2.757929999999931e-02 -2.07499947e+00  -1.00765940e-01  -2.67650150e-01
C     2.480930999200000e+00   2.677887994634653e+00   1.416438000000000e-01  1.70723269e+00   1.24310709e+00  -6.94195400e-02
C     3.735538499600000e+00   1.975852394120405e+00   3.055500000000000e-03 -1.35167100e+00  -6.40082070e-01  -2.39010300e-01
C     4.922844450099999e+00   2.706502645703657e+00  -4.212659999999957e-02  1.86711062e+00  -1.90808510e-01  -1.08032050e-01
C     6.197814428099999e+00   1.982589246438601e+00  -1.717449000000002e-01 -2.41332711e+00  -6.96104790e-01   3.36134670e-01
C     7.393262322900000e+00   2.674950831199847e+00  -2.432033999999987e-01  1.86125669e+00   7.28274300e-01   2.20578500e-01
C     8.634475949999999e+00   1.936088954798398e+00  -2.292638999999994e-01  1.13861221e+00   1.98520755e+00   1.71934390e-01
C     9.917755837399998e+00   2.721169506274419e+00  -6.874110000000044e-02 -1.97501451e+00  -1.59786987e+00  -1.01978660e-01
C     2.470602304100000e+00   4.124823405860758e+00   2.958477000000000e-01  7.93972390e-01  -1.05023562e+00  -5.97859860e-01
C     3.709744936800000e+00   4.830681323636168e+00   2.019483000000000e-01 -1.95273500e-01  -8.65918560e-01   8.42113100e-02
C     4.902471866000000e+00   4.136962890109650e+00   5.121300000000000e-03  2.47938289e+00  -5.94545770e-01  -3.35364480e-01
C     6.177283048700000e+00   4.855793272606276e+00  -1.838937000000023e-01 -3.63447930e-01  -1.02859012e+00  -1.20770610e-01
C     7.427408932600000e+00   4.120275101928586e+00  -2.358566999999994e-01 -1.17223871e+00  -2.66894600e-01   3.03258230e-01
C     8.654284640699998e+00   4.826759783073228e+00  -1.241418000000003e-01 -4.95543950e-01   4.53979400e-01   4.00263000e-02
C     9.868527963300000e+00   4.135516637904652e+00   5.626020000000000e-02  1.23680309e+00  -7.91313760e-01  -2.16533930e-01
C     1.112893891180000e+01   4.838304269071873e+00   2.297565000000000e-01 -2.20259610e+00  -2.22176380e-01  -3.40176150e-01
C     3.760660300600000e+00   6.215961578202376e+00   1.506810000000000e-01 -9.35985930e-01   2.09392439e+00  -8.11215210e-01
C     4.946466397199999e+00   6.939763457990563e+00  -1.423461000000010e-01  9.49542660e-01   1.60378087e+00  -2.26842920e-01
C     6.183599857700000e+00   6.278541509697257e+00  -2.994482999999981e-01 -6.30030900e-02  -1.60393484e+00   1.03575694e+00
C     7.435689064800000e+00   6.952722601855430e+00  -2.959608000000031e-01 -1.26170839e+00   3.19123130e-01  -4.21404000e-03
C     8.639965504999999e+00   6.259125080717308e+00  -1.378217999999976e-01  2.23727570e-01  -1.02160598e+00  -2.29008540e-01
C     9.859176394199999e+00   6.952673075594647e+00  -2.628119999999967e-02  5.04798510e-01  -1.94582430e-01   2.55214200e-02
C     1.106155241800000e+01   6.242583480395663e+00   1.345638000000000e-01  3.36551258e+00   5.31575150e-01   4.92620770e-01
C     1.239725003740000e+01   6.949250640194263e+00   1.359435000000000e-01 -3.01073686e+00  -9.79874500e-01  -3.76478990e-01
