32
Lattice="9.86 0 0 4.93 8.53901048131456 0 0 0 30 " PBC="1 1 1" Properties=species:S:1:pos:R:3:force:R:3 Energy="-257.27807821"
C     1.225548009800000e+00   3.096263985871056e-01   3.328703700000000e+00 -2.24255645e+00   1.36859618e+00   5.02234570e-01
C     2.395072239100000e+00   1.062560051918966e+00   3.470486400000000e+00  1.69697575e+00  -8.18000870e-01   2.34646000e-03
C     3.633224533400000e+00   3.472873627487264e-01   3.512445900000000e+00  7.41098940e-01  -7.08580050e-01  -3.95585290e-01
C     4.901680650299999e+00   9.977923405490040e-01   3.526924500000000e+00 -3.15750480e-01   1.25526875e+00   4.37455140e-01
C     6.149740716300000e+00   2.882695648656824e-01   3.555275700000000e+00 -1.01114917e+00   2.15154984e+00  -5.11581780e-01
C     7.352834104399999e+00   1.069539924475422e+00   3.440131800000000e+00  4.19869720e-01  -1.46722079e+00   4.44411940e-01
C     8.586278988200000e+00   3.489234371566944e-01   3.446674800000000e+00  5.46837350e-01  -3.84096180e-01  -5.71188170e-01
C     9.834596597399999e+00   1.055606479514787e+00   3.352911300000000e+00 -1.49678750e-01  -5.32090310e-01   7.10785240e-01
C     2.427125817300000e+00   2.464868288843761e+00   3.636367500000000e+00 -8.97380330e-01   3.53977120e-01  -1.53585000e-01
C     3.649599528400000e+00   3.160136638162504e+00   3.644985600000000e+00  1.17240132e+00   6.45264360e-01   5.58694180e-01
C     4.885793528100000e+00   2.440421955740569e+00   3.579821700000000e+00  4.93676410e-01  -8.16867000e-03  -2.60518110e-01
C     6.122214800799999e+00   3.175588831527112e+00   3.547425000000000e+00 -4.50295760e-01   1.52624200e-02  -3.86658200e-01
C     7.367345460800000e+00   2.486472753869104e+00   3.425388600000000e+00 -1.39977849e+00  -5.00131540e-01   6.44175430e-01
C     8.572435646800001e+00   3.177577396287694e+00   3.519639600000000e+00  1.72462214e+00   5.95972290e-01  -9.62500600e-02
C     9.815931469500001e+00   2.475982835664738e+00   3.527298300000000e+00  7.38841960e-01  -2.35516410e-01  -4.24186400e-02
C     1.106317404290000e+01   3.178583547892552e+00   3.714271800000000e+00 -9.70284390e-01   9.65586530e-01  -4.22924270e-01
C     3.689510096899999e+00   4.605001510127418e+00   3.741717900000000e+00 -1.72824888e+00  -6.10991310e-01  -4.28418210e-01
C     4.884839819600000e+00   5.311966425221456e+00   3.564410700000000e+00  8.97739710e-01   2.47562140e-01   2.51167900e-01
C     6.118318276700000e+00   4.600234692917064e+00   3.536448000000000e+00  6.37585820e-01  -3.91967960e-01  -2.54660350e-01
C     7.385364758700000e+00   5.283307371297956e+00   3.481602900000000e+00 -1.38046926e+00   1.23852953e+00   5.58402300e-02
C     8.613221191699999e+00   4.603630998945378e+00   3.573919800000000e+00 -4.24962100e-01  -1.62041980e-01   1.94725170e-01
C     9.817504829699999e+00   5.347012317423577e+00   3.729346800000000e+00  3.67343960e-01  -9.96593300e-01  -1.24903220e-01
C     1.105167728290000e+01   4.633504043988820e+00   3.822667500000000e+00  3.58872320e-01  -1.07362489e+00  -2.45428110e-01
C     1.229772388760000e+01   5.330506666336052e+00   3.825665400000001e+00  2.69348160e-01  -7.33673000e-02  -4.49913410e-01
C     4.883856432500000e+00   6.735589825496532e+00   3.460975200000000e+00 -8.68900600e-02  -2.81914040e-01   1.74148090e-01
C     6.105050512800000e+00   7.441283794270726e+00   3.356756400000000e+00  1.25011256e+00  -6.83862950e-01  -4.45170500e-02
C     7.347492055000000e+00   6.719173663238837e+00   3.406632600000000e+00  6.52818290e-01   1.30288950e-01   3.22521220e-01
C     8.586740288300000e+00   7.458389054674158e+00   3.487773300000000e+00 -7.90895060e-01  -2.96782740e-01   4.14947390e-01
C     9.821698484899999e+00   6.757770246778751e+00   3.688306200000000e+00 -1.20327735e+00  -2.48770940e-01  -6.71284520e-01
C     1.104035869310000e+01   7.435698171345444e+00   3.649208100000000e+00  1.46281469e+00   3.04606480e-01   3.29108190e-01
C     1.228699886980000e+01   6.759655916463050e+00   3.697629900000000e+00  3.33727920e-01  -1.29690492e+00   4.56908400e-02
C     1.352535832270000e+01   7.436441577597833e+00   3.530266500000000e+00 -7.13070490e-01   1.49816260e+00  -2.84175800e-02
