32
Lattice="9.86 0 0 4.93 8.53901048131456 0 0 0 30 " PBC="1 1 1" Properties=species:S:1:pos:R:3:force:R:3 Energy="-257.40328642"
C     4.899059714400000e+00   8.426570327021246e+00   3.024570000000000e-02  4.34941390e-01  -1.23373426e+00  -5.00862600e-02
C     1.198069175800000e+00   6.014052405897536e-01   4.887390000000000e-02  3.04602090e-01  -1.59127028e+00  -6.77798140e-01
C     7.345515963100000e+00   8.386857694811596e+00   3.286620000000001e-02  1.28292880e+00   1.02847713e+00  -5.79035000e-03
C     3.680115883300000e+00   5.697030541113912e-01  -1.751940000000118e-02 -5.06433630e-01  -1.46858514e+00   6.45176200e-01
C     9.846980954599999e+00   8.392276977812728e+00   6.500820000000000e-02 -5.15333500e-01  -3.43475490e-01  -3.02434330e-01
C     6.149845823900000e+00   5.631090594385256e-01   4.874850000000000e-02 -5.10567760e-01  -7.24806480e-01   1.08579460e-01
C     1.229509885980000e+01   8.384393080216753e+00   3.702000000000000e-02  8.79440100e-01  -2.44538140e-01  -3.60173590e-01
C     8.601161721499999e+00   5.573242213987448e-01  -2.947619999999773e-02 -4.93019250e-01   6.27239410e-01   5.91902070e-01
C     1.213582702600000e+00   1.998806620532322e+00  -3.496349999999993e-02  8.29473940e-01  -9.23052500e-02   7.45853420e-01
C     2.458578477800000e+00   2.690153770848544e+00   2.518560000000000e-02 -1.08131430e-01   6.18454460e-01  -7.37046410e-01
C     3.676451907300000e+00   1.959499249760052e+00  -1.590180000000174e-02  1.27119489e+00   1.78044289e+00   3.96814390e-01
C     4.960373976500000e+00   2.692259576223017e+00   3.150630000000000e-02 -2.37384694e+00  -9.57592790e-01   1.60427710e-01
C     6.163010649400000e+00   1.971109998480022e+00   6.645330000000001e-02 -6.69395400e-02   1.28241730e-01  -4.13024440e-01
C     7.387610817400000e+00   2.668773967188930e+00   3.890940000000000e-02 -2.59453300e-01   1.08879753e+00  -6.98589000e-03
C     8.602896194100000e+00   1.988554428379719e+00  -1.776270000000224e-02  7.98356470e-01  -1.28391234e+00   2.10413260e-01
C     9.849956554700000e+00   2.666053182279687e+00  -1.308299999998042e-03 -1.25910014e+00   1.64255949e+00  -2.80328970e-01
C     2.455626886800000e+00   4.131046380528267e+00   7.670100000000000e-03 -5.93088980e-01  -8.10127800e-01   7.43649800e-02
C     3.678456987600000e+00   4.827547677570218e+00   2.194470000000000e-02  9.22383720e-01   2.69870040e-01   4.70173010e-01
C     4.911074173699999e+00   4.097540242695900e+00   6.074340000000000e-02 -2.78268850e-01   4.91261750e-01  -7.61103090e-01
C     6.122497782800000e+00   4.811144921558976e+00  -2.085360000000236e-02  1.05019906e+00   3.91674200e-01   9.38404580e-01
C     7.366913444900000e+00   4.091244942609625e+00   4.721370000000000e-02 -9.24763340e-01   4.36334930e-01  -3.87947240e-01
C     8.568513338799999e+00   4.815069621555794e+00   5.706090000000000e-02  1.55270038e+00  -2.39572270e-01   1.06419780e-01
C     9.802323930000000e+00   4.094406852800264e+00   2.385660000000000e-02  1.41709164e+00   4.00983030e-01  -3.34988900e-02
C     1.106529295690000e+01   4.817413323762239e+00   2.424600000000000e-03 -6.34565300e-01   3.72190690e-01   2.81276420e-01
C     3.737555904900000e+00   6.262095717073196e+00   7.661730000000000e-02 -2.89834670e+00  -6.79295020e-01  -7.62565780e-01
C     4.912969117799999e+00   6.979102337711504e+00   4.642019999999999e-02  1.80555451e+00   5.51110410e-01  -8.47931600e-02
C     6.146019207200000e+00   6.239526514643822e+00   3.025200000000000e-03  4.75475540e-01   8.45250540e-01   3.03620970e-01
C     7.397550979200000e+00   6.983543306281942e+00   5.359350000000000e-02 -7.84518870e-01  -1.75590172e+00   7.55479000e-03
C     8.643016386199999e+00   6.229932253248704e+00   1.083798000000000e-01 -2.27611317e+00   9.10647070e-01  -5.08767120e-01
C     9.837599608300000e+00   6.950010185176459e+00   9.490140000000000e-02  1.00916745e+00   8.93336700e-01  -2.22920860e-01
C     1.107044076430000e+01   6.257134893544736e+00   3.419970000000000e-02  9.99331810e-01  -7.38804550e-01   1.24776380e-01
C     1.233114672400000e+01   6.964039352444574e+00   2.465280000000000e-02 -5.50351090e-01  -3.12950460e-01   4.29507120e-01
