32
Lattice="9.86 0 0 4.93 8.53901048131456 0 0 0 30 " PBC="1 1 1" Properties=species:S:1:pos:R:3:force:R:3 Energy="-257.42688299"
C     1.255836993100000e+00   8.943681871756632e-01   3.452844900000000e+00 -9.08819970e-01  -2.08036858e+00  -8.51306720e-01
C     2.477327612900000e+00   1.535487511606849e+00   3.406548900000000e+00  1.03054298e+00   2.16540147e+00   4.69597490e-01
C     3.719598823599999e+00   8.614674651863280e-01   3.361001100000000e+00 -4.14584440e-01  -1.22485356e+00  -2.49902780e-01
C     4.934010259199999e+00   1.549286808712843e+00   3.362775300000000e+00  6.72468120e-01   2.16057688e+00   3.69082930e-01
C     6.163891098100000e+00   8.616378184454040e-01   3.376005600000000e+00  9.48504050e-01   2.27774530e-01  -8.07172620e-01
C     7.411983455600000e+00   1.574722130009829e+00   3.340551600000000e+00 -7.31381000e-03   6.53607400e-02   2.23548990e-01
C     8.654482728100000e+00   8.284881843005768e-01   3.388338600000000e+00 -4.70049420e-01   1.41464198e+00  -5.56406340e-01
C     9.876899300499998e+00   1.572572946462117e+00   3.395866800000000e+00 -2.45563010e-01   4.73644800e-02   6.61256680e-01
C     2.473873901400000e+00   2.969297097483516e+00   3.483285600000000e+00  1.11252410e+00   2.05686350e-01  -3.93966200e-02
C     3.713590238200000e+00   3.710408917756341e+00   3.484649700000000e+00 -2.78192980e-01  -1.89780280e-01  -8.81207900e-02
C     4.965811273500000e+00   3.015034343147226e+00   3.415328400000000e+00 -1.29586835e+00  -1.29006169e+00  -4.47975300e-02
C     6.180531869400000e+00   3.717429692172997e+00   3.372180000000000e+00  5.73960680e-01  -4.84272200e-01  -3.27066900e-01
C     7.409001101399999e+00   3.017421765087329e+00   3.304943400000000e+00  1.04083517e+00  -1.37901726e+00   9.35140650e-01
C     8.676517510999998e+00   3.702057936287110e+00   3.414702600000000e+00 -1.80717092e+00  -7.00627600e-02  -7.10060840e-01
C     9.879840686400000e+00   2.993129817293616e+00   3.446927400000000e+00  3.31223270e-01  -5.93328770e-01   2.57234200e-02
C     1.111974298280000e+01   3.687343684208184e+00   3.505527300000000e+00 -2.09532710e-01  -3.19831000e-02  -3.80909610e-01
C     3.698559457000000e+00   5.141374756972855e+00   3.493400100000000e+00  3.05520470e-01   2.55510340e-01  -7.06434770e-01
C     4.961185651700000e+00   5.827070875543518e+00   3.374325000000000e+00 -5.36442480e-01  -5.19275200e-02   4.40776120e-01
C     6.203984816099999e+00   5.120801462853075e+00   3.342786900000000e+00 -1.44490102e+00   4.99022220e-01   1.89185710e-01
C     7.405016774000000e+00   5.822901703676657e+00   3.314750400000000e+00  1.29252508e+00   1.12470588e+00  -2.53163960e-01
C     8.647236367599998e+00   5.108777938366502e+00   3.366149400000000e+00 -1.57312350e-01   8.40950270e-01   1.37697650e-01
C     9.868128781199999e+00   5.823167437682796e+00   3.388002000000000e+00  7.16998150e-01   1.14514020e-01  -2.13223170e-01
C     1.110603861810000e+01   5.096931342177074e+00   3.440720400000000e+00  1.26433710e-01   1.69575376e+00   2.79515240e-01
C     1.231714848200000e+01   5.885921991941992e+00   3.441553500000000e+00  3.98620340e-01  -2.40112669e+00   1.60275650e-01
C     4.948715167400000e+00   7.239618837665614e+00   3.376912800000000e+00  6.77267820e-01   1.23995684e+00  -2.01575350e-01
C     6.188929039800000e+00   8.007781901578660e+00   3.372574200000000e+00 -1.40004930e-01  -1.45481700e+00  -2.42233440e-01
C     7.435394842399999e+00   7.275529817019464e+00   3.264241200000000e+00 -1.22183780e+00  -6.12420800e-01   7.99420570e-01
C     8.665882120599999e+00   7.963949282202513e+00   3.292254900000000e+00  5.45515000e-03   4.87489800e-01   1.36926000e-01
C     9.893898581399998e+00   7.253497803739386e+00   3.323652900000000e+00  2.02836100e-02  -3.16533700e-02  -1.04101880e-01
C     1.112736328380000e+01   7.989738118533371e+00   3.310280700000000e+00 -1.73284942e+00  -1.89882650e-01   6.58506870e-01
C     1.231815311740000e+01   7.286751443031861e+00   3.379464900000000e+00  1.36692722e+00  -4.43776470e-01  -3.19812680e-01
C     1.357319652840000e+01   7.957554758814461e+00   3.350097000000000e+00  2.50353710e-01  -1.53768700e-02   6.09032030e-01
