32
Lattice="9.86 0 0 4.93 8.53901048131456 0 0 0 30 " PBC="1 1 1" Properties=species:S:1:pos:R:3:force:R:3 Energy="-257.07767934"
C     4.935487730899999e+00   8.513006545995152e+00  -2.767017000000003e-01 -1.42116000e-03  -7.26481500e-01   6.17008430e-01
C     1.252340144100000e+00   6.827757769865032e-01  -2.421806999999987e-01 -8.02236460e-01   7.32469030e-01  -5.36781820e-01
C     7.389929889399999e+00   8.510248872560634e+00  -3.071184000000002e-01  1.16234598e+00   6.26822200e-01   8.65551620e-01
C     3.707868430900000e+00   7.030666860297080e-01  -1.693134000000001e-01 -1.24155094e+00  -3.69685460e-01  -1.89492870e-01
C     9.842328907999999e+00   8.501544717617952e+00  -9.288600000000002e-02  5.89551900e-01   7.45024200e-02   1.06620470e-01
C     6.149526212000000e+00   6.395066469119328e-01  -1.144329000000006e-01  5.28555900e-01   2.10605352e+00  -8.10951700e-02
C     1.232447032080000e+01   8.501022130176576e+00  -8.920499999999976e-02  6.97331600e-02  -4.56323500e-01  -2.87725000e-03
C     8.631625473300000e+00   6.658089339429528e-01  -2.459480999999997e-01 -5.24426600e-02   9.75156680e-01   1.25151420e-01
C     1.269929989700000e+00   2.121939749384655e+00  -1.152914999999979e-01 -1.00567990e+00  -2.75155880e-01   6.12602570e-01
C     2.478047688700000e+00   2.833497029704942e+00   1.009479000000000e-01 -1.56521930e-01   3.85214510e-01  -7.75521080e-01
C     3.682037005699999e+00   2.131032600084388e+00  -5.957310000000149e-02  1.69307885e+00  -8.00204340e-01   3.13431560e-01
C     4.952741153300000e+00   2.820270102471421e+00  -7.348679999999774e-02 -1.35806559e+00   1.78606330e-01   2.11971540e-01
C     6.161024007299999e+00   2.103514272570911e+00  -1.756568999999999e-01  1.06890972e+00  -5.89586240e-01  -2.34150930e-01
C     7.418896893199999e+00   2.827705104286462e+00  -2.686764000000004e-01 -6.97678820e-01   7.53998200e-02   2.50170060e-01
C     8.652000275899999e+00   2.116848449776060e+00  -2.881026000000020e-01 -1.16352200e-02  -2.94254970e-01   6.94865310e-01
C     9.886957979500000e+00   2.835046518546642e+00  -1.043483999999992e-01 -3.00917480e-01  -1.08033800e-01  -5.22173350e-01
C     2.478033194500000e+00   4.266265795594203e+00   2.455551000000000e-01 -1.17249220e+00  -1.21150825e+00  -1.04187690e-01
C     3.687185355400000e+00   4.965384726298796e+00   1.903509000000000e-01  1.27685653e+00  -2.35530000e-02  -3.91607620e-01
C     4.907160936900000e+00   4.241272453479661e+00  -6.302999999999059e-03  1.36333833e+00   5.95221240e-01  -5.99327530e-01
C     6.149754520300000e+00   4.967663702805804e+00  -2.430626999999994e-01 -9.00746700e-02  -6.50171270e-01   8.26165010e-01
C     7.406794679899999e+00   4.274488862686442e+00  -2.575217999999992e-01 -2.84239020e-01  -7.43426760e-01   1.36944830e-01
C     8.628209574900000e+00   4.996806320892786e+00  -1.242074999999971e-01  6.82512820e-01  -5.59123510e-01  -1.57022930e-01
C     9.876129135900001e+00   4.273467767813244e+00   1.736070000000000e-02 -1.63015139e+00  -1.20233613e+00  -1.23516830e-01
C     1.107425076690000e+01   4.939522369087706e+00   2.307948000000000e-01  1.60295505e+00   1.32874348e+00  -2.19910710e-01
C     3.727713406399999e+00   6.387592614806603e+00   1.135206000000000e-01 -1.20380204e+00  -3.69104450e-01  -3.79530020e-01
C     4.924762713100000e+00   7.063227046548472e+00  -1.599237000000002e-01  8.93534690e-01   1.64064840e+00  -1.99516910e-01
C     6.170716239400001e+00   6.381687547499264e+00  -2.761475999999981e-01 -2.54169510e-01  -2.02864120e-01   2.84593620e-01
C     7.405122867599999e+00   7.099172950455186e+00  -3.004523999999975e-01  5.36389500e-02   6.65627600e-02   4.70933600e-02
C     8.657818464700000e+00   6.427056761811285e+00  -1.434899999999999e-01 -2.03895833e+00  -2.05161166e+00  -8.56287300e-02
C     9.852682696799999e+00   7.078740976958851e+00   9.895500000000002e-03  1.86841567e+00   1.08675877e+00  -1.99835800e-02
C     1.110915812490000e+01   6.369563262689026e+00   1.906710000000000e-01 -1.23766463e+00   2.37811250e-01  -3.32334050e-01
C     1.232886610600000e+01   7.080303957437110e+00   1.172763000000000e-01  6.86274380e-01   5.23454450e-01  -1.37510750e-01
