32
Lattice="9.86 0 0 4.93 8.53901048131456 0 0 0 30 " PBC="1 1 1" Properties=species:S:1:pos:R:3:force:R:3 Energy="-257.10607276"
C     9.916013674000000e+00   4.227184196259024e-01  -4.875330000000133e-02 -1.78164951e+00  -5.06168630e-01   3.63744840e-01
C     1.274318675700000e+00   1.114883863316423e+00  -3.741750000000010e-02  3.56143270e-01   3.94018910e-01  -1.29880697e+00
C     2.501583705900000e+00   4.011288124787944e-01  -4.794210000000021e-02  4.06961800e-02   5.02324280e-01   5.35886400e-01
C     3.735818375700000e+00   1.126040763629382e+00  -6.933989999999923e-02 -4.39184720e-01  -1.75733480e-01   1.91991470e-01
C     4.949970444000000e+00   3.713004264601632e-01   4.870890000000000e-02  2.58457400e-02   3.01299996e+00  -7.55567890e-01
C     6.152079409699999e+00   1.106751651295690e+00   2.609550000000000e-02  1.70129271e+00   1.29458790e+00  -1.89412900e-02
C     7.427241559100000e+00   4.488798129840024e-01  -6.721200000001204e-03 -4.14989280e-01  -1.41172930e+00  -1.36240910e-01
C     8.668350177200001e+00   1.145617384445935e+00  -1.503479999999868e-02 -1.42203230e-01   2.11965930e-01  -5.57188220e-01
C     1.112382181830000e+01   2.526272142425231e+00  -2.428460999999977e-01 -1.18332850e-01   6.72357530e-01   1.18921560e+00
C     2.479584468300000e+00   3.270706320895613e+00  -2.385707999999980e-01  4.93637650e-01  -2.07913615e+00  -5.11874710e-01
C     3.745793836299999e+00   2.571456145599941e+00  -1.811921999999981e-01 -2.26312981e+00  -1.87940379e+00   4.17881330e-01
C     4.930074443000000e+00   3.250768158375338e+00  -1.081329000000011e-01  1.73827089e+00   1.68277999e+00   1.22543860e-01
C     6.157626645700000e+00   2.546732465436359e+00   5.912700000000000e-03  1.06467553e+00   1.96621030e-01  -3.45403160e-01
C     7.426359286300000e+00   3.292486604146740e+00  -1.662359999999907e-02 -8.33060810e-01  -7.95304570e-01   2.21177170e-01
C     8.655122494200000e+00   2.579768103791278e+00  -8.632860000000164e-02  1.63294120e-01  -7.48136070e-01   5.90263760e-01
C     9.899580504999999e+00   3.262272084074203e+00  -1.521128999999988e-01 -5.64338080e-01   4.83263030e-01  -8.46910800e-02
C     1.231042450430000e+01   4.646719528948297e+00  -2.981987999999980e-01  1.34121778e+00   1.62995145e+00   5.74858220e-01
C     3.697446903900000e+00   5.378092095428052e+00  -1.764507000000002e-01 -4.59826670e-01   4.21110100e-02  -2.26994700e-01
C     4.926462922200001e+00   4.698690764603036e+00  -1.212339000000000e-01  8.61251110e-01  -7.62720840e-01   2.27552150e-01
C     6.169278010499999e+00   5.408853539121832e+00   2.485200000000000e-03  4.82248770e-01  -5.87299940e-01   3.77104470e-01
C     7.437941039500000e+00   4.714193594299789e+00   5.937450000000000e-02 -8.90751860e-01   3.28625700e-02  -2.88865880e-01
C     8.668799250900001e+00   5.446265847298275e+00   8.225130000000000e-02 -3.91471490e-01  -8.55957330e-01  -6.81056090e-01
C     9.880088418899998e+00   4.705945593296948e+00  -9.467489999999756e-02 -2.30630300e-01  -1.07178831e+00  -1.59641990e-01
C     1.110370746760000e+01   5.356742776035851e+00  -2.366390999999979e-01 -5.43823100e-02   2.38598914e+00   2.29505910e-01
C     1.355533242690000e+01   6.789429994375028e+00  -8.247509999999991e-02  6.73278960e-01   1.43485328e+00  -5.40176430e-01
C     4.939475953000000e+00   7.534261834563464e+00  -5.061090000000235e-02  5.41806740e-01  -6.75360440e-01   7.13834160e-01
C     6.194068614099999e+00   6.816936025713414e+00   6.930539999999999e-02 -1.43415265e+00   2.61506720e-01  -7.06756900e-01
C     7.417695600100000e+00   7.516422731599381e+00   7.445760000000000e-02  1.68137270e-01   1.41528086e+00  -1.63808730e-01
C     8.655003040299999e+00   6.870117666103692e+00   6.520650000000000e-02  7.13884590e-01  -1.71907169e+00  -1.13896700e-02
C     9.907957955400001e+00   7.547721876783088e+00  -1.675259999999668e-02 -9.88116780e-01  -2.07668222e+00  -1.12980200e-02
C     1.111017833910000e+01   6.818160178255827e+00  -1.777496999999997e-01  5.18308320e-01  -5.23220560e-01   5.95756200e-01
C     1.233970002750000e+01   7.536061943362753e+00  -1.098558000000018e-01  1.22230730e-01   2.14239700e-01   1.47387090e-01
