32
Lattice="9.86 0 0 4.93 8.53901048131456 0 0 0 30 " PBC="1 1 1" Properties=species:S:1:pos:R:3:force:R:3 Energy="-256.30953777"
C     1.263443490100000e+00   8.920413068198632e-01   3.296997300000000e+00 -1.25769081e+00  -8.79158300e-01   7.18773880e-01
C     2.474715748200000e+00   1.576185545625891e+00   3.246038100000000e+00  3.78283700e-01   5.23825960e-01   3.83898520e-01
C     3.702643123900000e+00   9.407763428927864e-01   3.424937100000000e+00  3.30157950e-01  -3.39425090e+00  -1.52790290e-01
C     4.923021437099999e+00   1.607148595357105e+00   3.400284900000000e+00 -2.09051040e-01   2.07158355e+00   4.07325350e-01
C     6.102855627499999e+00   8.439383283026696e-01   3.456724800000000e+00  2.37202225e+00   2.53652978e+00  -1.32908680e-01
C     7.357415454799999e+00   1.594980590813210e+00   3.439042200000000e+00  8.05795370e-01  -3.02471990e-01   2.15869370e-01
C     8.614428943100000e+00   9.042638756407255e-01   3.427498200000000e+00  3.70092830e-01  -2.50354580e-01   2.09539900e-02
C     9.907423641999999e+00   1.626514473395011e+00   3.339418500000000e+00 -2.69401968e+00  -2.15804339e+00  -1.43666600e-02
C     2.459856531000000e+00   2.969200265104674e+00   3.165057000000000e+00 -6.86932380e-01   1.89544441e+00  -7.05612000e-03
C     3.665090919500000e+00   3.730402925405156e+00   3.193412700000000e+00  1.50486404e+00   1.52122662e+00   1.87659350e-01
C     4.916061904000000e+00   3.105859271947432e+00   3.375155100000000e+00  1.30771972e+00  -3.23421573e+00  -2.43800610e-01
C     6.213387114900000e+00   3.761862518595782e+00   3.461202900000000e+00 -2.84690809e+00  -9.81747120e-01  -4.82585640e-01
C     7.426967105999999e+00   3.030338555460216e+00   3.467328900000000e+00 -2.64996971e+00  -1.38947433e+00  -2.77151840e-01
C     8.592430001299999e+00   3.728128303793493e+00   3.381816900000000e+00  2.67908219e+00   8.79303470e-01  -2.77156500e-02
C     9.833698252799998e+00   3.007662188449318e+00   3.296763600000000e+00  2.73052870e-01   5.37667920e-01   3.05315500e-02
C     1.106364416770000e+01   3.668658365305534e+00   3.209683800000000e+00  6.39965310e-01   2.09477776e+00  -2.03056110e-01
C     3.732647005300000e+00   5.193029707679414e+00   3.159440700000000e+00 -1.85874308e+00  -3.83936640e-01   8.41654100e-01
C     4.941708059800000e+00   5.924914870958283e+00   3.395454000000000e+00 -4.32646550e-01  -2.50075440e+00  -5.42877050e-01
C     6.164865068899999e+00   5.140377827499314e+00   3.436848000000000e+00  1.36296950e-01   2.25326947e+00   3.37631930e-01
C     7.395665796499999e+00   5.833573502804247e+00   3.499224000000000e+00 -5.94453800e-02   1.88672699e+00   1.22989860e-01
C     8.610711772399998e+00   5.163112003611161e+00   3.410669700000000e+00  9.62928660e-01  -7.44246220e-01   5.41753960e-01
C     9.877199833299999e+00   5.867723567416911e+00   3.428964600000000e+00 -1.47014203e+00  -1.23136908e+00  -4.71976740e-01
C     1.102885936950000e+01   5.118563046645849e+00   3.249074700000000e+00  3.46142846e+00  -2.53483000e-02  -3.74455260e-01
C     1.231542810920000e+01   5.888458419614971e+00   3.164251200000000e+00 -5.19938100e-01  -2.55138696e+00   7.54249760e-01
C     4.901286496799999e+00   7.326706497749038e+00   3.481578600000000e+00  9.67996890e-01  -4.04607200e-02  -3.12437960e-01
C     6.146652416399999e+00   8.015421925035325e+00   3.466512300000000e+00  1.54179274e+00  -1.85527330e-01   1.86201810e-01
C     7.417126826000001e+00   7.275333248998215e+00   3.567518400000000e+00 -6.15792110e-01   8.28482120e-01  -6.92874180e-01
C     8.667872115100000e+00   7.998913029123817e+00   3.549238500000000e+00 -6.15422920e-01   3.29945870e-01  -4.94594920e-01
C     9.928666420399999e+00   7.264788424956462e+00   3.484578900000000e+00 -3.33168228e+00   1.01102600e+00   1.41492140e-01
C     1.109261408020000e+01   7.994643950834341e+00   3.423758100000000e+00  4.89600040e-01  -7.03223620e-01   1.56087630e-01
C     1.229638411080000e+01   7.253074610379998e+00   3.361842600000000e+00  1.37966059e+00   2.39924709e+00  -6.29847900e-02
C     1.353167537820000e+01   8.009171198583756e+00   3.460047600000000e+00 -3.52356380e-01   1.86912590e-01  -5.53440670e-01
