32
Lattice="9.86 0 0 4.93 8.53901048131456 0 0 0 30 " PBC="1 1 1" Properties=species:S:1:pos:R:3:force:R:3 Energy="-256.3161278"
C     4.933265385500000e+00   8.500747259429225e+00  -6.186930000000146e-02 -8.05919910e-01   6.17394240e-01  -2.28962470e-01
C     1.246696970300000e+00   7.084913486074425e-01  -1.098503999999991e-01 -2.06499072e+00  -1.51686620e+00   1.32111880e-01
C     2.427847322800000e+00   4.707385697414400e-03  -6.433200000000028e-03  2.49823426e+00  -1.21477574e+00   9.71773000e-03
C     3.699711006400000e+00   6.992320725934544e-01  -5.840459999999936e-02 -2.12497482e+00   7.27123400e-01   6.35361600e-02
C     9.832413149699999e+00   8.489278172893117e+00  -2.251710000000173e-02 -9.14973700e-02   2.96424020e+00  -6.31264660e-01
C     6.107829553800000e+00   6.864264601370177e-01  -1.018973999999986e-01  1.73241411e+00   7.84800590e-01   2.25904000e-02
C     7.375803319500000e+00   1.156310104149200e-02  -1.813649999999996e-01  1.06431400e-02  -1.25799285e+00   9.77048940e-01
C     8.635894606799999e+00   6.744856786619952e-01  -2.900009999999753e-02 -1.07903540e+00   1.98310670e+00  -8.97041710e-01
C     1.207906990800000e+00   2.073832245191907e+00  -3.264699000000029e-01 -4.64036990e-01   2.12012301e+00  -4.10723760e-01
C     2.416632460200000e+00   2.794095559037182e+00  -4.834148999999996e-01  8.26849670e-01   1.38205059e+00   9.21615750e-01
C     3.624998286100000e+00   2.145895601725876e+00  -2.203605000000017e-01  2.87543548e+00  -1.79852203e+00  -4.02688790e-01
C     4.921905038600000e+00   2.842920083939936e+00  -2.019897000000022e-01 -2.53029936e+00   2.96994340e-01  -3.38717430e-01
C     6.112772618300000e+00   2.129595313840394e+00  -9.769079999999875e-02  1.47445535e+00  -2.60385160e-01   1.37891350e-01
C     7.375304797899999e+00   2.879708788181025e+00  -7.661159999999967e-02 -1.69912080e-01  -2.98672976e+00   1.72901110e-01
C     8.613964635700000e+00   2.161337206717489e+00  -4.617209999999972e-02  4.02202670e-01  -1.65542322e+00  -1.09022822e+00
C     9.848652076699999e+00   2.826232039588557e+00  -3.217095000000008e-01 -7.28037120e-01   4.10401270e-01   1.50655075e+00
C     2.478891655400000e+00   4.240686421190420e+00  -5.488782000000008e-01 -2.86458260e+00   2.97276040e-01   5.10128170e-01
C     3.667451058400000e+00   4.992040784534003e+00  -4.473836999999996e-01  6.80642200e-01  -2.03236056e+00   5.06163780e-01
C     4.902504601200000e+00   4.261003459605693e+00  -2.884041000000011e-01  1.17962427e+00   6.83725200e-01   1.01434760e+00
C     6.155021042100000e+00   4.954302542327539e+00   1.208700000000000e-02 -1.13243178e+00   5.34759080e-01  -1.63065483e+00
C     7.396692173200000e+00   4.252691928364880e+00  -5.686620000000175e-02 -2.37583940e-01   2.13227890e+00   6.00705910e-01
C     8.630316015999998e+00   4.999998117620105e+00  -7.388249999999985e-02 -1.49394490e-01  -1.15778223e+00  -1.49586840e-01
C     9.853692212900000e+00   4.281485044752916e+00  -2.526513000000001e-01 -1.01252752e+00  -1.36732436e+00  -5.20323980e-01
C     1.104250082740000e+01   4.966701441714813e+00  -4.019183999999996e-01  3.01822038e+00   9.79742020e-01  -3.90920710e-01
C     1.348990023440000e+01   6.377305839661557e+00  -2.781351000000001e-01  1.68373607e+00   7.35158770e-01  -2.28107600e-01
C     4.857039451000000e+00   7.088566645537978e+00  -1.457589000000006e-01  2.24673569e+00  -3.12021300e-01   9.62740960e-01
C     6.138273289800000e+00   6.389375730975036e+00   2.806800000000000e-02 -7.72550720e-01  -4.62924700e-01  -4.21729600e-01
C     7.372453778899999e+00   7.096041097581436e+00   8.915280000000000e-02 -3.07106260e-01   9.41641890e-01  -4.52150590e-01
C     8.630939315899999e+00   6.410092309690670e+00  -8.072699999999600e-03 -1.80806036e+00  -4.56754220e-01   7.92272500e-02
C     9.808029813399999e+00   7.131040537566546e+00  -1.245827999999989e-01  2.60810056e+00  -2.32880982e+00  -3.48823200e-02
C     1.108276034130000e+01   6.413209902416917e+00  -3.148556999999990e-01 -2.18542221e+00  -1.00609021e+00   4.44979110e-01
C     1.229998734920000e+01   7.085939704353910e+00  -2.638505999999978e-01 -7.08930210e-01   2.22394613e+00  -2.34273360e-01
