32
Lattice="9.86 0 0 4.93 8.53901048131456 0 0 0 30 " PBC="1 1 1" Properties=species:S:1:pos:R:3:force:R:3 Energy="-257.27685177"
C     1.249272895300000e+00   5.043328301619607e-01   3.432019800000000e+00 -2.11053010e-01  -5.07749510e-01  -2.20726160e-01
C     2.462992602600000e+00   1.246368485978616e+00   3.386125800000000e+00  1.68351100e-01  -2.46528929e+00   5.20814480e-01
C     3.675906402800000e+00   5.313156763282367e-01   3.401780100000000e+00  1.68134432e+00  -2.02337378e+00  -5.52147820e-01
C     4.955360413000000e+00   1.175771021373749e+00   3.324601500000000e+00 -4.77602460e-01   6.36110190e-01   5.23969170e-01
C     6.212678624600001e+00   4.664846055005136e-01   3.327881100000000e+00 -2.06804834e+00   1.03256861e+00  -2.28721270e-01
C     7.380344786199998e+00   1.247450549386641e+00   3.363347700000000e+00  2.51715295e+00  -2.72159853e+00  -1.03560200e-02
C     8.659305796400000e+00   4.741198471113104e-01   3.374671200000000e+00 -7.29790550e-01   2.04486201e+00   3.16400980e-01
C     9.894778980800000e+00   1.228095003551416e+00   3.448792800000000e+00 -1.13912523e+00  -1.60881822e+00  -5.64647110e-01
C     2.486236122900000e+00   2.614632115070175e+00   3.385224300000000e+00 -4.82960870e-01   2.65379708e+00  -2.52017120e-01
C     3.712866366300000e+00   3.329308695918805e+00   3.340968600000000e+00  6.86360840e-01  -2.09178450e-01  -3.42636330e-01
C     4.952894032600000e+00   2.612568321627264e+00   3.345305400000000e+00 -4.29907000e-01  -4.89521590e-01   4.87021200e-02
C     6.166906138200000e+00   3.318818606934230e+00   3.377918100000000e+00  1.72083800e-01   1.84477010e+00  -4.32350650e-01
C     7.396431228299999e+00   2.643357858665524e+00   3.380915100000000e+00  5.58493730e-01   2.71881890e-01   5.19795000e-03
C     8.653468281999999e+00   3.347510194487659e+00   3.367200900000000e+00 -5.82311360e-01  -4.46539580e-01  -4.03388080e-01
C     9.863184336300000e+00   2.629514414875348e+00   3.380342100000000e+00  1.48857486e+00   9.32787930e-01   3.92928280e-01
C     1.112577942270000e+01   3.355280950194774e+00   3.375766800000000e+00 -1.06339879e+00  -1.44062660e-01  -3.51039290e-01
C     3.743868572700000e+00   4.745844119764747e+00   3.252755100000000e+00 -1.36091374e+00   3.73109590e-01   9.13724930e-01
C     4.944564353900000e+00   5.475785718868265e+00   3.356340600000000e+00  6.55428930e-01  -5.95129140e-01  -3.09145920e-01
C     6.182690272699999e+00   4.781561946701539e+00   3.346627800000000e+00 -6.72742520e-01  -2.01840067e+00   4.12389210e-01
C     7.402504347400001e+00   5.443101546184702e+00   3.362838600000000e+00  1.21764689e+00   1.54367741e+00  -6.86978880e-01
C     8.672867930599999e+00   4.751331373289300e+00   3.270386100000000e+00 -1.55178061e+00   4.30757070e-01   1.11435419e+00
C     9.872482266999999e+00   5.484230202502251e+00   3.302991000000000e+00  4.73401090e-01   6.31128000e-03  -5.80987730e-01
C     1.111525047100000e+01   4.787454290883264e+00   3.298668000000000e+00  5.67718710e-01  -7.74783720e-01   1.20586690e-01
C     1.236789888800000e+01   5.477893573605253e+00   3.271463700000000e+00 -5.73132960e-01   2.52035310e-01   3.12390470e-01
C     4.941572090399999e+00   6.873600130747750e+00   3.412557300000000e+00 -2.45443980e-01   9.55426000e-01  -5.69252860e-01
C     6.161965292200000e+00   7.588951634984720e+00   3.383449800000000e+00  2.59038570e-01   1.30768397e+00   4.98113890e-01
C     7.387970263700000e+00   6.895593633090563e+00   3.359565600000000e+00  6.75473050e-01  -1.04262268e+00   3.37498390e-01
C     8.621963511399999e+00   7.601710282883516e+00   3.390201900000000e+00 -2.96589820e-01   1.37513895e+00  -6.95316890e-01
C     9.852734264599999e+00   6.902657871070561e+00   3.266464500000000e+00  3.01955600e-01   1.02010780e-01   6.14662680e-01
C     1.110656484630000e+01   7.590616315077796e+00   3.268263300000000e+00 -2.90605620e-01   6.26004230e-01   5.90871590e-01
C     1.232628643420000e+01   6.917116123615298e+00   3.349486200000000e+00  1.29411183e+00  -1.66694196e+00  -9.07780050e-01
C     1.358045970020000e+01   7.603522260907372e+00   3.360694200000000e+00 -5.41729380e-01   3.25077390e-01   3.84887150e-01
