76
Lattice="10.7446858958278 0 0 5.37234294791388 9.3051709414712 0 0 0 30 " PBC="1 1 1" Properties=species:S:1:pos:R:3:force:R:3 Energy="-612.34734644"
C     8.208236250673551e-02   3.603920620574820e-02   3.575580000000000e-02 -3.84624110e-01  -8.47446960e-01  -1.59477600e-02
C     1.252401920845051e+01   8.492529146020056e+00   1.182567000000000e-01 -2.09079205e+00  -5.35415170e-01  -1.88381940e-01
C     1.390021684448855e+01   8.361484237568618e+00   1.337019000000000e-01  1.97136208e+00  -1.90506601e+00  -2.95490800e-02
C     1.447673021911603e+01   7.032737744072942e+00   5.121000000000000e-03 -5.27327070e-01  -8.61213510e-01  -3.11443940e-01
C     8.297307547847371e+00   8.992276006385236e+00  -7.440599999999975e-02 -4.81717100e-02   1.81470006e+00  -7.16863720e-01
C     9.713130887080016e+00   8.847230630789182e+00  -7.420499999999919e-02 -4.50830950e-01  -1.32295160e-01   3.89054680e-01
C     1.026787649509583e+01   7.530989728726610e+00  -7.119120000000123e-02 -8.41054320e-01  -5.55543400e-01  -4.96101980e-01
C     1.165159508892328e+01   7.329632529308086e+00  -5.446919999999977e-02  1.38654190e+00   1.10584001e+00   4.84878400e-02
C     1.220770591672955e+01   6.039666638428792e+00  -2.617368000000013e-01  1.18950160e-01   3.01862660e-01   6.35123640e-01
C     1.361127821882245e+01   5.836651071445342e+00  -1.817261999999999e-01  4.21864650e-01   4.00099464e+00  -7.49055100e-02
C     6.015007756244007e+00   8.023719931892773e+00   1.526250000000000e-02  2.78444220e-01  -3.92620840e-01  -1.66805420e-01
C     7.450872513404768e+00   7.875258255837807e+00  -5.012699999999981e-02 -1.17290632e+00  -1.46940147e+00  -3.95298010e-01
C     8.000085306586666e+00   6.536821264273505e+00  -1.898739000000020e-01  2.46304700e-02   2.19087020e-01   8.68470440e-01
C     9.413129586534707e+00   6.368627507981723e+00  -2.040755999999995e-01 -2.34251560e-01   1.26690959e+00  -7.85417300e-02
C     9.966031889960947e+00   5.073636917846539e+00  -3.255989999999969e-01 -3.70646030e-01   3.78325120e-01   4.88884490e-01
C     1.136331108324564e+01   4.926381191945397e+00  -3.803984999999983e-01  8.07286950e-01  -1.73394910e+00  -2.23950750e-01
C     1.194767452539166e+01   3.590822382804548e+00  -4.369539000000024e-01 -6.48562610e-01   1.11614115e+00   7.40999160e-01
C     5.150689051695727e+00   6.844423044450760e+00  -4.254149999999868e-02 -1.78795260e-01   2.02461741e+00   3.28053560e-01
C     5.704112902175551e+00   5.560797603998273e+00  -1.318149000000020e-01  1.94060324e+00  -1.43736370e-01  -2.39618660e-01
C     7.165878799166853e+00   5.374434105670500e+00  -1.519709999999996e-01 -2.12393435e+00   1.55433945e+00  -2.10484430e-01
C     7.676310099125298e+00   4.073585631273457e+00  -1.482458999999992e-01  2.32864108e+00   1.35283386e+00  -9.51557600e-02
C     9.112794932109349e+00   3.966968936728835e+00  -2.136221999999997e-01 -3.46032810e-01  -2.73383192e+00  -5.00974400e-02
C     9.679992878955250e+00   2.611189432825108e+00  -1.446617999999980e-01 -1.08795823e+00   1.70854058e+00  -1.13732820e-01
C     1.106582199771061e+01   2.479523404213424e+00  -2.605457999999992e-01  1.70246329e+00  -9.77725100e-01  -1.89668850e-01
C     3.432993815826010e+00   4.610256340445650e+00  -3.462849000000006e-01  2.07360422e+00  -1.77419104e+00   4.19390190e-01
C     4.878541576472994e+00   4.439731545781688e+00  -2.483421000000021e-01 -1.09629328e+00  -2.29864230e-01   4.06404950e-01
C     5.442518051592355e+00   3.149723781633164e+00  -1.300893000000016e-01 -7.10079000e-02  -1.22262888e+00  -7.80214490e-01
C     6.856037515274323e+00   2.964044771679737e+00  -7.157940000000096e-02 -8.30967090e-01  -1.24389061e+00   3.96392040e-01
C     7.429222938338000e+00   1.657969396662277e+00   7.343250000000000e-02 -1.04491563e+00  -7.97248550e-01  -1.23030430e-01
C     8.821437785094018e+00   1.478496656570703e+00   3.530910000000000e-02  9.62822850e-01   2.38290490e-01   3.40281710e-01
C     9.395552462317756e+00   1.721679017485466e-01   1.556379000000000e-01  4.51981090e-01   9.06758910e-01  -7.59549450e-01
C     2.631962546867608e+00   3.454028367539539e+00  -3.973175999999974e-01 -1.34266004e+00   2.32267860e-01  -2.71127020e-01
C     3.202408558537649e+00   2.183832335891079e+00  -3.082391999999992e-01 -1.71574460e-01  -1.94805311e+00  -6.59942100e-02
C     4.603566261091668e+00   1.974951626612437e+00  -2.077148999999991e-01  3.69339980e-01   1.78104364e+00   6.69958890e-01
C     5.167687198512956e+00   7.073420602784588e-01  -3.432360000000045e-02  4.46594430e-01  -1.83922515e+00   5.29755200e-02
C     6.576829438329553e+00   4.774887053732796e-01   1.386612000000000e-01 -3.83258500e-02   2.01016244e+00  -6.86980170e-01
C     9.248130590384530e-01   1.167580653659748e+00  -1.681290000000004e-01  2.41993500e-02   5.04471920e-01   1.33915760e-01
C     2.351139436185209e+00   1.032715507278892e+00  -2.345241000000016e-01 -2.07743020e-01  -1.12306844e+00   6.96972440e-01
C     1.607364938333936e+01   9.272752003600168e+00   3.733395600000000e+00 -1.30152828e+00   7.91129010e-01  -5.32457680e-01
C     1.179367953813568e+01   8.772077417692271e+00   3.588521700000000e+00  1.01065798e+00   2.18646148e+00  -1.44688460e-01
C     1.321230337230131e+01   8.982528467618748e+00   3.653373000000000e+00  1.89863780e-01  -1.03304283e+00   1.00955600e-02
C     1.407920278923248e+01   7.804184336629283e+00   3.594299100000000e+00 -7.78042050e-01   2.57153225e+00   2.11041690e-01
C     7.532506983679763e+00   8.303491899874384e+00   3.558875100000000e+00  2.76979588e+00  -8.13378330e-01  -7.00519600e-01
C     8.996957762783758e+00   8.471638292846080e+00   3.516039300000000e+00 -1.05096051e+00  -3.09261220e-01   5.91830980e-01
C     9.856578245975403e+00   7.324180350499212e+00   3.489222600000000e+00 -1.25102457e+00   8.27842300e-02  -1.73368010e-01
C     1.126254027365932e+01   7.487458929397068e+00   3.514648200000000e+00 -9.21057150e-01  -6.20173200e-02   1.43035880e-01
C     1.209922445192424e+01   6.370535068024423e+00   3.498848700000000e+00 -1.26488100e-01  -1.40105767e+00  -2.05399670e-01
C     1.350668665265351e+01   6.547671651899801e+00   3.493092000000000e+00  3.73883240e-01  -2.20166469e+00  -6.88080100e-02
C     4.726222975111131e+00   7.991659151522421e+00   3.602219400000000e+00  1.66340395e+00  -1.15749881e+00  -8.90448500e-02
C     5.587965587491457e+00   6.824192579258398e+00   3.442653900000000e+00 -3.71864130e-01   8.48466720e-01   2.16400090e-01
C     6.997909488323053e+00   6.986847711703272e+00   3.405089100000000e+00 -6.78579570e-01   1.22849130e+00   8.68342090e-01
C     7.849518250196793e+00   5.879501848882589e+00   3.419514000000000e+00  1.36538350e-01  -1.58217968e+00  -7.79225800e-01
C     9.256402547994934e+00   6.017604822543728e+00   3.444900600000000e+00  3.43703030e-01   9.12181960e-01   2.48767140e-01
C     1.008822255322950e+01   4.881481508918872e+00   3.500620500000000e+00  4.15799070e-01  -4.27323240e-01  -7.41222700e-02
C     1.150260782370129e+01   5.055137865810980e+00   3.492067200000000e+00  1.03053740e+00  -5.61243030e-01   5.52719190e-01
C     1.236919731016767e+01   3.889611886946495e+00   3.585015300000000e+00 -4.68042750e-01   5.87801900e-02  -8.21709860e-01
C     3.621799543907669e+00   5.386309643979256e+00   3.409937100000000e+00 -1.41531300e+00  -8.45110920e-01  -3.77342400e-02
C     5.028045661086780e+00   5.520512169137475e+00   3.392245200000000e+00 -7.39588410e-01   1.15591196e+00  -4.01592810e-01
C     5.851656994910890e+00   4.404110886164821e+00   3.311992500000000e+00  1.60458882e+00  -1.68806767e+00   1.93524000e-01
C     7.295235200908974e+00   4.552578052270641e+00   3.329106300000000e+00 -9.16773380e-01   4.53333230e-01   8.22357420e-01
C     8.123703669994178e+00   3.401105952231964e+00   3.496877100000000e+00 -6.40657560e-01   7.75331980e-01  -8.48174360e-01
C     9.520968626570056e+00   3.568996918261359e+00   3.558024300000000e+00  1.15146980e+00  -3.89936070e-01   1.28925550e-01
C     1.037939983420286e+01   2.414096048834712e+00   3.665997600000000e+00  7.60672690e-01   7.67212990e-01   2.70984750e-01
C     1.182673964728768e+01   2.554824476476571e+00   3.692381400000000e+00 -1.22327476e+00   1.44577012e+00  -6.83575760e-01
C     3.027993832963015e+00   4.044592951865443e+00   3.397812300000000e+00  1.68382520e-01   1.92133124e+00   9.31377520e-01
C     3.883249985912369e+00   2.930199352574804e+00   3.445353600000000e+00  1.31038460e-01  -5.35391950e-01  -1.75247660e-01
C     5.287130821660883e+00   3.078406439152850e+00   3.373286700000000e+00  3.09213170e-01   9.74868740e-01   2.05031560e-01
C     6.130661997292151e+00   1.949029746666332e+00   3.494516400000000e+00 -2.54465700e-02  -3.16076410e-01  -5.08432890e-01
C     7.525454762812727e+00   2.121511232675557e+00   3.493632300000000e+00  1.43456572e+00  -7.30622160e-01   1.21177491e+00
C     8.398296904344900e+00   9.898015477309622e-01   3.705591000000000e+00 -4.85605740e-01  -6.31334760e-01  -9.00171480e-01
C     9.818927523496065e+00   1.126563460156228e+00   3.734932500000000e+00  3.02246320e-01  -6.26757710e-01   3.59592000e-03
C     1.926993658687292e+00   1.430755453494229e+00   3.639286800000000e+00  6.38142210e-01   5.80219860e-01   2.48030990e-01
C     3.343923002163055e+00   1.628414777981197e+00   3.563276700000000e+00 -7.90078120e-01  -6.34967210e-01   8.71646200e-02
C     4.180744873577786e+00   4.817148348590994e-01   3.594697500000000e+00 -1.68796600e-01  -3.74664160e-01  -7.12585980e-01
C     5.582762741961528e+00   6.377703678664890e-01   3.546930000000000e+00  2.11080870e-01  -5.28394050e-01   3.82173910e-01
C     1.371321751300040e+00   1.351657034022178e-01   3.655298100000000e+00 -1.34045372e+00   2.28855200e-02   1.82334360e-01
