26
Lattice="8.88768389401873 1.33226762955019e-15 0 4.44384194700937 7.69696003302603 0 0 0 30 " PBC="1 1 1" Properties=species:S:1:pos:R:3:force:R:3 Energy="-203.68514825"
C     1.750650691489105e+00   2.441975331191547e+00   3.745404300000000e+00  5.85661806e+00  -2.43699962e+00  -1.45074069e+00
C     4.214501751401820e+00   1.807293166500183e+00   3.842738700000000e+00 -2.98683984e+00   8.11260970e-01   6.15288200e-02
C     5.504771882542194e+00   2.225625253218692e+00   4.153517700000000e+00  1.81396966e+00  -2.71428108e+00  -2.09311911e+00
C     6.577145333149993e+00   1.248325766715128e+00   4.006120200000000e+00  3.28322849e+00  -6.77946790e-01   2.41455747e+00
C     8.085810209677931e+00   1.599549290445672e+00   3.951050700000000e+00 -2.45673918e+00   1.02016400e-02  -3.23561590e-01
C     9.079142198939373e+00   5.151897081008253e-01   3.849652200000000e+00 -2.13641013e+00   4.97915300e+00  -3.11260650e-01
C     1.523890323788398e+00   1.008421605597667e+00   3.593391000000000e+00 -4.49680912e+00   2.40469890e+00   1.47798644e+00
C     2.473957156858596e+00   9.098830451143990e-02   3.620249400000000e+00  3.51514391e+00  -4.05333067e+00  -1.36515929e+00
C     3.794488829530789e+00   4.631642619268488e-01   3.773640600000000e+00  4.36353547e+00  -1.85923710e+00   1.93951630e-01
C     9.304113079257450e+00   7.075229232072715e+00   3.885668100000000e+00  1.20799550e+00   2.53498309e+00   2.08542788e+00
C     1.079617616231711e+01   7.568801797020485e+00   4.249175999999999e+00 -3.98481858e+00  -1.85345842e+00  -2.63876425e+00
C     1.180067939254622e+01   6.511207854392762e+00   4.202209499999999e+00 -2.43745432e+00   2.15464370e+00  -1.04497700e-01
C     4.174726880772736e+00   6.933705920727508e+00   3.945435300000000e+00  5.54077064e+00  -2.28134908e+00  -2.43461989e+00
C     5.292366860782799e+00   5.965356998134030e+00   3.452277000000000e+00 -1.64219496e+00   8.32039090e-01   3.06584254e+00
C     6.682296635522404e+00   6.342689379982337e+00   3.437847000000000e+00 -2.68378804e+00   9.53943620e-01   4.33355350e-01
C     7.596351106647017e+00   5.295426835894082e+00   3.556722600000000e+00  2.71672162e+00  -6.51999900e-02   2.93199804e+00
C     8.991128668575520e+00   5.689841542954569e+00   3.901449300000000e+00 -5.77301580e-01   1.77175431e+00  -2.14583100e+00
C     1.007467287135282e+01   4.776953758583659e+00   3.882021900000000e+00  1.13136635e+00   2.22278905e+00   1.29471201e+00
C     1.144156479182025e+01   5.178803729033127e+00   4.076274600000001e+00 -1.66111970e-01  -2.19570345e+00  -7.52178500e-02
C     3.594699786136683e+00   4.141740272741424e+00   4.035367200000000e+00 -1.11792993e+00   3.76726141e+00  -2.59470366e+00
C     4.964266321831139e+00   4.659960504914861e+00   3.751011900000000e+00 -8.06982120e-01  -5.25280670e+00   1.31964614e+00
C     5.896605824899611e+00   3.506767239930526e+00   3.962998500000000e+00  2.14304890e+00   5.55482179e+00  -3.11670830e-01
C     7.320016215892351e+00   3.922267922932399e+00   3.988199100000000e+00 -1.82658120e+00   3.58371760e-01  -3.21298453e+00
C     8.387960755898568e+00   2.998052984302939e+00   3.823799700000000e+00  1.30736910e-01  -3.95272760e-01   1.39688346e+00
C     9.788960274295061e+00   3.462565830596644e+00   3.777828600000000e+00 -5.41246333e+00  -2.11952647e+00   2.39192800e-02
C     3.168934577531917e+00   2.849258739665392e+00   3.696647700000000e+00  1.02928875e+00  -2.45081020e+00   2.36232195e+00
