26
Lattice="8.88768389401873 1.33226762955019e-15 0 4.44384194700937 7.69696003302603 0 0 0 30 " PBC="1 1 1" Properties=species:S:1:pos:R:3:force:R:3 Energy="-206.40072554"
C     1.758511092322332e+00   2.265949934694263e+00   3.912790500000000e+00  7.89563090e-01   3.55874100e-02   8.58145040e-01
C     4.100328297696002e+00   1.660301780810463e+00   3.840676200000000e+00  2.26976981e+00   5.70214330e-01  -6.26932500e-01
C     5.508386903392472e+00   2.020023672049331e+00   3.596332200000000e+00 -7.44809620e-01   7.02063100e-01   9.67835610e-01
C     6.553754637638484e+00   9.820615956741252e-01   3.490717200000000e+00 -3.30607585e+00   2.65589176e+00   4.77968920e-01
C     7.848258150407167e+00   1.458619491688377e+00   3.696559500000000e+00  5.21184850e-01  -2.78276979e+00  -8.39794970e-01
C     8.917909836753525e+00   5.629561184118018e-01   3.848172600000000e+00  2.12901600e-02  -2.66856752e+00   1.04928510e+00
C     1.365070745509784e+00   9.379592462158299e-01   4.236202799999999e+00  1.21897593e+00  -1.78803647e+00  -2.77194056e+00
C     6.823276233328554e+00   7.597583963295867e+00   4.149715500000000e+00  8.52751460e-01  -1.00633177e+00   5.41735180e-01
C     3.796133317555002e+00   2.692718351423254e-01   3.982920300000000e+00 -2.19239019e+00  -4.74356570e-01  -7.05942440e-01
C     9.192715382542133e+00   6.922691340015777e+00   3.700940400000000e+00  2.55297243e+00   3.26344910e+00  -1.11338610e-01
C     1.059466388335513e+01   7.339720177462006e+00   3.446878500000000e+00 -1.07618885e+00   5.39907940e-01   1.29257797e+00
C     1.164218741429181e+01   6.434623794820665e+00   3.604374900000000e+00  6.61777720e-01  -4.34138650e-01   4.65670100e-02
C     4.126348195506119e+00   6.870861011778561e+00   3.778145100000000e+00  1.43180001e+00  -2.23908358e+00   5.49065730e-01
C     5.192437253615940e+00   5.745476170656213e+00   3.965094600000000e+00 -3.12025120e+00   4.16069903e+00  -2.99639170e-01
C     6.515594748060776e+00   6.126522797536596e+00   4.116090000000000e+00  1.02229553e+00   3.30534217e+00  -3.37315420e-01
C     7.571860427066898e+00   5.226258489432488e+00   3.978891000000000e+00 -3.07376780e-01  -3.49268950e+00   4.21645970e-01
C     8.927868356495333e+00   5.578791035155334e+00   3.802016400000000e+00 -2.42016860e+00  -2.78969010e-01   3.09504900e-02
C     9.890041992516165e+00   4.593127262187169e+00   3.680668500000000e+00  2.44328945e+00  -1.14109253e+00   1.90264810e-01
C     1.126133513854355e+01   5.086130559971119e+00   3.700214700000000e+00  9.53049330e-01  -3.01354775e+00  -7.91564330e-01
C     3.442038661787904e+00   4.084787463665042e+00   3.687207900000000e+00 -1.86617366e+00   3.29355160e-01   1.09702522e+00
C     4.772468903512445e+00   4.451884043217453e+00   3.841758000000000e+00  2.16163601e+00  -1.92591925e+00  -5.63261480e-01
C     5.825190529625520e+00   3.451449188194916e+00   3.781321800000001e+00  5.07973330e-01  -2.05858499e+00   3.81103720e-01
C     7.239032173441800e+00   3.759237688901765e+00   3.956273100000000e+00 -2.49475856e+00   3.34591496e+00  -1.64907837e+00
C     8.163108085882259e+00   2.758801371456822e+00   3.728504400000000e+00  3.57300869e+00   3.52732476e+00   1.01718221e+00
C     9.612972356887015e+00   3.147158801882500e+00   3.727381800000000e+00 -2.50426077e+00   3.28026451e+00   1.58090920e-01
C     3.131301768626137e+00   2.727202117810459e+00   3.863795100000000e+00 -9.48883720e-01  -2.41192684e+00  -3.82636040e-01
