72
Lattice="7.395 0 0 3.6975 6.40425786098592 0 0 0 13.6 " PBC="1 1 1" Properties=species:S:1:pos:R:3:force:R:3 Energy="-562.22907316"
C     1.096891520370000e+01   6.250100840966783e+00   1.358475943200000e+01  2.71196430e+00   2.33166597e+00  -2.33044191e+00
C     1.289025149175000e+00   3.875049279955854e-01   1.352146027200000e+01 -5.77589875e+00   6.26778620e+00   5.40098950e-01
C     1.266620628600000e+00   9.498293164135777e-01   3.808214336000000e+00  4.06743018e+00  -7.72050980e-01   3.70480830e-01
C     2.633869496175000e+00   1.497134695468612e+00   3.964253936000000e+00 -6.19373740e-01   3.98248162e+00  -4.56265610e-01
C     6.210710346750000e+00   6.206702003323022e+00   1.337397493600000e+01 -3.50491664e+00  -1.24076367e+00  -9.24816980e-01
C     3.675786431250000e+00   5.044954129215000e-01   1.343502370400000e+01 -2.52967200e+00   1.11133718e+00   4.24982360e-01
C     3.964356043950000e+00   1.006033339563252e+00   3.777745032000000e+00 -3.75595275e+00  -2.85232579e+00  -2.71838370e-01
C     5.153735084100000e+00   1.702568109526284e+00   3.652909544000000e+00 -1.98339525e+00   1.55348779e+00  -1.20994166e+00
C     8.498540690250000e+00   6.279808271901966e+00   1.328843583200000e+01  6.45060596e+00  -2.71581548e+00  -5.53341970e-01
C     5.982785908875000e+00   5.438238963971814e-01   1.321137850400000e+01  5.73136289e+00   2.24054015e+00   1.43776675e+00
C     6.305518350974999e+00   9.407061308791147e-01   3.482975912000000e+00  1.09062491e+00   2.88992090e-01   6.22807180e-01
C     7.504806062549999e+00   1.659881169186240e+00   3.819621336000000e+00 -1.11476883e+00   2.90503476e+00  -6.44195280e-01
C     1.224623499225000e+00   1.922653953227007e+00   1.358302339200000e+01 -5.17291740e-01   9.70224840e-01  -5.47593180e-01
C     2.442376784625000e+00   2.595070416174436e+00   2.287913040000000e-01  1.24998588e+00   2.21199464e+00  -8.78463430e-01
C     2.619764310150000e+00   2.925536077710246e+00   3.985978168000000e+00  4.66121090e-01   2.40797321e+00  -1.20074795e+00
C     3.722642630250000e+00   3.744369373641297e+00   3.575983864000000e+00  3.52165620e+00   6.13335850e-01  -1.44980370e-01
C     3.717277520775000e+00   1.821214351279323e+00   8.825135200000001e-02 -9.25763380e-01   7.11036124e+00  -1.84803407e+00
C     4.862406914550000e+00   2.663183733197988e+00   1.313087384800000e+01 -9.69533180e-01   9.79268290e-01   2.79370603e+00
C     5.003938636350000e+00   3.120766932613730e+00   3.447508880000000e+00  3.05413079e+00   7.98222430e-01   2.12797032e+00
C     6.364559180550000e+00   3.945265563132895e+00   3.600518264000000e+00 -1.76817663e+00  -6.41848152e+00   4.86320340e-01
C     6.075543612375000e+00   1.956271952096662e+00   1.301232237600000e+01  2.13746009e+00   2.32050141e+00   1.18859423e+00
C     7.447907675400000e+00   2.832554194862793e+00   1.319565146400000e+01 -1.02402117e+00  -5.11596003e+00   1.52832910e-01
C     7.596502176824999e+00   3.187050040826052e+00   3.996334976000000e+00 -2.37200099e+00  -2.44170105e+00  -1.93182010e+00
C     8.879260950899999e+00   3.754832906303279e+00   4.054310824000000e+00 -3.87287713e+00   2.16688588e+00  -2.32242820e+00
C     2.495904308925000e+00   4.146261979260000e+00   2.103698320000000e-01 -1.77828976e+00  -2.02188856e+00  -2.10164215e+00
C     3.697915820850000e+00   4.903816454070534e+00   4.788029600000000e-02 -8.34577430e-01  -3.85464211e+00  -1.16928650e-01
C     3.768471589800000e+00   5.265034913552014e+00   3.409530744000000e+00 -6.18122850e-01  -3.82374477e+00   8.60459630e-01
C     4.929357547050000e+00   5.992641861800194e+00   3.615318872000000e+00  3.09358530e+00  -3.10570558e+00  -9.13778860e-01
C     4.862242560675000e+00   4.191244717957698e+00   1.324260192800000e+01  2.10790342e+00  -1.91438221e+00  -1.00673163e+00
C     6.112078646850000e+00   4.911791164042964e+00   1.287303743200000e+01  1.76688588e+00  -3.01144642e+00   3.40065955e+00
C     6.270242758949999e+00   5.249776897285721e+00   3.620280968000000e+00 -6.53499100e-02   5.90257298e+00   5.99464650e-01
C     7.570908081824999e+00   5.995960356095511e+00   3.685018192000000e+00 -1.31597312e+00  -1.56317357e+00  -2.00797050e-01
C     7.503722547150000e+00   4.240179460138222e+00   1.307283285600000e+01 -2.97346791e+00  -3.22727672e+00  -2.65424630e-01
C     8.714041786949998e+00   4.894541935922839e+00   1.334281611200000e+01 -1.28527080e+00  -2.47900940e+00   1.35057859e+00
C     8.736461023575000e+00   5.250787937474080e+00   3.573413736000000e+00  1.23109462e+00  -3.58553061e+00   1.58710898e+00
C     9.933636020625000e+00   5.883205455190464e+00   3.321433752000000e+00  1.00895094e+00   3.96976510e+00   1.43763581e+00
C     7.409202689100001e+00   2.261768693087904e-01   6.642180976000000e+00  6.85878680e-01  -3.40979812e+00   4.95340460e-01
C     1.285535374725000e+00   8.741598717113261e-01   6.884816128000000e+00 -2.07646550e-01  -4.52221300e+00   4.60072680e-01
C     1.076403850350000e+00   5.216383303611480e-01   9.894240992000000e+00  1.47670314e+00  -2.88732500e+00   8.97644830e-01
C     2.292212546550000e+00   1.125139471073218e+00   1.018700016800000e+01  1.64315916e+00   2.96372688e+00  -1.34282926e+00
C     2.506252945875000e+00   1.691545741323438e-01   7.176797112000000e+00 -4.26519600e+00  -3.62904213e+00  -2.32142605e+00
C     3.571476406650000e+00   9.353358404506117e-01   7.325846584000000e+00  5.94374490e+00   9.40476860e-01  -1.81118037e+00
C     3.534295529850000e+00   4.316354520998520e-01   9.845478327999999e+00  1.17471761e+00   3.91294523e+00   2.28971630e+00
C     4.863187271925000e+00   1.260198416784708e+00   9.937800432000000e+00 -3.39660776e+00  -2.90769922e+00  -8.34507430e-01
C     4.742857569750000e+00   2.125411796435928e-01   6.823041256000000e+00  3.68133523e+00  -8.67462340e-01   6.97743200e-01
C     6.110590477050000e+00   8.373012543219325e-01   6.603384800000000e+00 -1.25901365e+00   9.81314430e-01   2.67128213e+00
C     5.989339949474999e+00   4.393216502556883e-01   9.737201112000001e+00  1.76800525e+00  -3.79230590e-01   1.49249034e+00
C     7.248741985799999e+00   1.182033745135043e+00   9.882072120000000e+00 -2.24382587e+00  -2.55031380e-01  -1.49916780e-01
C     1.382684155275000e+00   2.163624017766612e+00   7.022740663999999e+00 -3.06520388e+00   8.39463647e+00   8.64285580e-01
C     2.540167783950000e+00   3.078440551991204e+00   7.247011736000000e+00 -2.76129015e+00   9.83208930e-01  -1.40506722e+00
C     2.286528157950000e+00   2.609120141110283e+00   1.033519052800000e+01  3.65275750e-01  -7.12742200e-02  -1.52534763e+00
C     3.551649043575000e+00   3.394652897233799e+00   1.030461868000000e+01  5.75198400e-02  -5.17260020e+00  -8.78980230e-01
C     3.694676662950000e+00   2.379825935245559e+00   7.419498360000000e+00  1.84928440e+00  -1.13616095e+00  -2.27384198e+00
C     4.991142069525000e+00   2.960059702683884e+00   7.119605304000000e+00 -2.26418813e+00   3.00614485e+00  -5.98154000e-02
C     4.789967454225000e+00   2.706263062417114e+00   1.000501217600000e+01 -1.45821141e+00  -3.63270737e+00   1.68818683e+00
C     5.987509686975000e+00   3.316468564512504e+00   9.922718712000000e+00  1.91594728e+00   2.88897250e+00  -7.12033890e-01
C     6.122050693425001e+00   2.256216009395549e+00   6.950251983999999e+00  3.57082440e+00  -3.02239807e+00  -1.02186801e+00
C     7.426908463649999e+00   2.859381631038333e+00   7.036826728000000e+00  1.51975644e+00   8.98311200e-02  -7.26713520e-01
C     7.187663353050000e+00   2.612862277063039e+00   9.942756952000000e+00  1.39236253e+00  -1.60229402e+00  -1.05464700e-01
C     8.438103019125000e+00   3.299540702051794e+00   9.998698103999999e+00  1.06393470e+00  -1.91850976e+00   1.20528067e+00
C     9.911798992349999e+00   4.590565117449511e+00   6.943377320000000e+00  3.25492840e-01  -3.90851412e+00   6.50497200e-02
C     3.843677186849999e+00   5.120568049001605e+00   6.782028008000000e+00 -2.79234722e+00   3.12269387e+00  -8.43305200e-02
C     3.643634080500000e+00   4.703445797978929e+00   1.009645232000000e+01 -1.51450123e+00   3.81029031e+00  -1.43611797e+00
C     4.930193810624999e+00   5.454526336603945e+00   9.871269776000000e+00 -7.37339246e+00   2.08293325e+00   6.67515290e-01
C     5.107191028050000e+00   4.417761717401433e+00   6.893916704000000e+00 -5.95900175e+00  -2.18721837e+00   7.13869320e-01
C     6.235516948200000e+00   5.098050806451003e+00   6.981143024000000e+00  4.12259013e+00   8.63459620e-01   6.23148110e-01
C     6.052215604200000e+00   4.777030208449700e+00   9.756932808000000e+00  7.40999740e-01  -2.97504955e+00   1.16962871e+00
C     7.206288695849999e+00   5.489754558027340e+00   9.662459999999999e+00  5.11310371e+00  -2.30020214e+00   8.46333080e-01
C     7.466181644775000e+00   4.233201444816545e+00   7.074033335999999e+00 -8.46654220e-01   5.76072439e+00  -1.08535447e+00
C     8.576394141000000e+00   5.182575738709169e+00   6.856957071999999e+00  1.21589253e+00  -1.44682025e+00   8.56008490e-01
C     8.511101504475000e+00   4.652454008173772e+00   9.763471824000000e+00 -2.68349004e+00   1.93376013e+00   4.15276610e-01
C     9.717703129875000e+00   5.255398362707493e+00   9.838331799999999e+00  2.32394094e+00   6.53904226e+00   2.36509460e-01
