72
Lattice="7.395 0 0 3.6975 6.40425786098592 0 0 0 13.6 " PBC="1 1 1" Properties=species:S:1:pos:R:3:force:R:3 Energy="-570.50234983"
C     3.627286101900000e+00   6.164561730433907e+00   1.354293644000000e+01 -3.80168860e-01   2.11313128e+00   1.99112643e+00
C     1.162467710775000e+00   4.696169920624182e-01   1.352332048000000e+01  1.01427486e+00  -2.11727970e-01   5.02089490e-01
C     1.410196661175000e+00   1.029279706871216e+00   3.324322800000000e+00 -1.28298012e+00  -2.06325460e-01   1.45939360e+00
C     2.730388777350000e+00   1.670288088208740e+00   3.109734248000000e+00 -2.46208217e+00   2.04678309e+00   2.42821983e+00
C     6.141738771675000e+00   6.187697816421522e+00   1.648609680000000e-01 -2.15918327e+00  -1.68887290e+00  -1.69743110e-01
C     3.661260284850000e+00   4.259926604994060e-01   1.103838560000000e-01  1.72598253e+00   2.44052134e+00   5.39429820e-01
C     3.945961203300000e+00   1.092037143046450e+00   3.487695384000000e+00  6.78564710e-01  -2.26932643e+00  -6.48200240e-01
C     5.150603449500000e+00   1.815852514471195e+00   3.602342568000000e+00  1.01833939e+00   7.32843310e-01   1.47401127e+00
C     8.632175550374999e+00   6.237033913442132e+00   1.771606720000000e-01 -9.49746720e-01  -2.89924534e+00   7.72591810e-01
C     6.082162396199999e+00   6.132092271168864e-01   2.244822800000000e-01  2.72247698e+00  -3.25564433e+00  -1.35030139e+00
C     6.402889758000000e+00   1.089030215896023e+00   3.811788144000000e+00 -2.77043282e+00   8.96894400e-01  -1.55316753e+00
C     7.552784563725000e+00   1.800505030722598e+00   3.464258232000000e+00  3.11233916e+00  -3.61389610e-01  -4.53752610e-01
C     1.144661512125000e+00   1.930685276838919e+00   1.341310390400000e+01  1.98167750e+00  -1.53816687e+00   1.96609107e+00
C     2.429162807025000e+00   2.563611548799702e+00   1.317763812800000e+01  7.21826000e-01   5.12412400e-01   2.78245612e+00
C     2.675497393200000e+00   3.103657317314954e+00   3.293524240000000e+00  1.30649545e+00   1.11830954e+00   3.01532540e-01
C     3.919016115750000e+00   3.872389335496282e+00   3.579497696000000e+00 -2.86723644e+00   1.02054710e+00   1.37922188e+00
C     3.728268006750000e+00   1.850398490304765e+00   3.520972000000000e-02 -3.30732163e+00   1.57354479e+00  -2.83227082e+00
C     4.884230520900000e+00   2.641336888360170e+00   1.841762320000000e-01  1.04486167e+00   7.64035010e-01   1.35571514e+00
C     5.192757389850000e+00   3.290328113077606e+00   3.749724680000000e+00 -1.46398420e+00  -3.82435986e+00  -2.80723738e+00
C     6.392215371299999e+00   3.936650811629936e+00   3.532886552000000e+00  6.76046350e-01   3.42735274e+00   3.98169880e-01
C     6.124861274100000e+00   1.987351367193192e+00   4.164997280000000e-01  1.09351233e+00  -8.64651390e-01  -4.20228030e-01
C     7.476171513300000e+00   2.610597859568899e+00   4.926232800000000e-01 -2.83113065e+00  -5.80094640e-01  -3.88147677e+00
C     7.611604578600000e+00   3.237507971695998e+00   3.272965664000000e+00 -3.61815798e+00  -2.18415854e+00   1.91933293e+00
C     8.815634259974999e+00   3.848188221426549e+00   3.359149272000000e+00  3.95384548e+00   5.45637890e-01  -7.89953210e-01
C     2.422596268875000e+00   4.007463523341479e+00   1.326352199200000e+01  6.97980610e-01   2.47606590e-01   3.28347864e+00
C     3.647045135175000e+00   4.745150645376142e+00   1.356378796000000e+01  1.09453730e+00  -5.04504300e-02  -7.14959830e-01
C     3.785148239175000e+00   5.287407355832402e+00   3.938457864000000e+00  1.70792301e+00   7.77977920e-01  -2.21054841e+00
C     5.000269570124999e+00   6.040581126138959e+00   3.750503824000000e+00  2.93939522e+00   1.58332675e+00  -1.53010265e+00
C     4.912562096999999e+00   4.091630777798164e+00   2.501220880000000e-01 -1.47312845e+00  -7.45838110e-01  -6.66561700e-01
C     6.157904500499999e+00   4.764221436559385e+00   4.982323279999999e-01 -4.35938790e-01   1.62442010e-01  -2.49137927e+00
C     6.326936489474999e+00   5.475090280507247e+00   3.578748743999999e+00 -3.75644950e-01  -5.45764387e+00   4.76410290e-01
C     7.605046027049999e+00   6.020093200776455e+00   3.560675568000000e+00  9.98724290e-01   1.51506533e+00  -1.05784839e+00
C     7.396823163300000e+00   3.982842033785815e+00   3.527247040000000e-01  1.94943915e+00   4.20246944e+00   1.43111754e+00
C     8.702432709225000e+00   4.739803730488827e+00   2.332797120000000e-01 -2.63968440e+00  -5.14186900e-02  -3.05097842e+00
C     8.866614798375000e+00   5.233044812987792e+00   3.477317496000000e+00 -2.01686526e+00   4.39833864e+00   2.22454364e+00
C     1.000452219817500e+01   6.090044924061299e+00   3.869205711999999e+00  4.98343730e-01  -3.93324335e+00  -1.60068979e+00
C     7.346763709125000e+00   2.601875132278422e-01   6.987755752000000e+00  7.65998770e-01  -1.37617290e+00  -1.40617133e+00
C     1.224305736075000e+00   9.022985156411226e-01   6.713057239999999e+00 -1.20292653e+00   3.67437810e-01   1.25803060e-01
C     1.083442226475000e+00   3.733143734293974e-01   1.006428927200000e+01  4.46925440e-01   1.55446820e+00  -1.02934743e+00
C     2.315100256425000e+00   1.092768317166326e+00   9.772225464000000e+00 -1.06281972e+00   4.87380320e-01   4.67695050e-01
C     2.429478499575000e+00   1.880842795149318e-01   6.782327752000000e+00  1.05882602e+00  -4.40391490e-01  -6.04132530e-01
C     3.574114240125000e+00   1.019614016653432e+00   6.749707064000000e+00  1.20011258e+00  -9.46300700e-01  -4.39561800e-01
C     3.550464919200000e+00   4.041118730949301e-01   9.842940976000000e+00 -8.05726310e-01  -6.77820380e-01   9.70417380e-01
C     4.711741258500000e+00   1.114435650656328e+00   9.980581544000000e+00  4.30773146e+00  -2.58206670e-01  -1.86723700e-01
C     4.742837973000000e+00   2.231111510712084e-01   6.872483511999999e+00  3.12138069e+00  -6.95051800e-02  -3.39377500e-01
C     6.024533752800000e+00   8.560907064573865e-01   6.841326456000000e+00  1.56666128e+00   1.77556123e+00   6.58602780e-01
C     5.987690975400000e+00   2.919558983849508e-01   1.026279079200000e+01 -6.07234820e-01   3.18265581e+00  -1.69712496e+00
C     7.232796517050000e+00   1.052678751686562e+00   1.014895729600000e+01 -1.47844750e+00  -1.03929938e+00   1.14828763e+00
C     8.656752130350000e+00   2.310945196002643e+00   6.462790176000000e+00 -5.90767540e-01   8.19355740e-01   2.35314357e+00
C     2.439107381175000e+00   3.201074212773037e+00   6.555727000000000e+00  5.01203890e-01  -3.07389607e+00  -7.46126220e-01
C     2.294270759925000e+00   2.545679114451073e+00   9.615995192000000e+00 -3.22171790e-01  -1.98741864e+00   1.51999228e+00
C     3.551048717475000e+00   3.241243639348315e+00   9.702468344000000e+00  1.85515630e-01   5.50084800e-01   4.08607070e-01
C     3.663042331950000e+00   2.455349170740867e+00   6.570023047999999e+00  4.42660010e-01  -6.08839160e-01   1.09073460e+00
C     4.970672339775000e+00   3.116751911233561e+00   6.656401544000000e+00 -2.54853002e+00  -3.37529371e+00   1.99049840e-01
C     4.805715439500000e+00   2.554974318351655e+00   9.777115208000000e+00 -1.58852069e+00  -1.63556428e+00   1.97363179e+00
C     5.988485087475000e+00   3.215273605215071e+00   1.014651895200000e+01  5.28746400e-01   1.82150301e+00   1.72095720e-01
C     6.124144994400000e+00   2.287098685690619e+00   6.773207999999999e+00  1.01091100e-01  -1.97091470e-01  -5.01902490e-01
C     7.398143281725000e+00   2.894512635827413e+00   6.722266344000000e+00  2.04578580e-01   3.37864394e+00  -5.56482910e-01
C     7.166180323424999e+00   2.446463327002695e+00   1.026125358400000e+01  2.84290604e+00   1.04385960e+00  -2.96153475e+00
C     8.413130030174999e+00   3.148821744808140e+00   9.838193488000000e+00 -1.87113710e-01   1.69309161e+00   2.31123555e+00
C     9.857787724125000e+00   4.593409952833502e+00   6.710182064000001e+00  1.75907534e+00  -5.26781630e-01   1.53908825e+00
C     3.791961178725000e+00   5.233932827382660e+00   6.968079680000000e+00 -3.76492548e+00  -1.15258340e-01  -1.90227439e+00
C     3.581001832200000e+00   4.631117774815132e+00   1.000046460800000e+01 -1.00389572e+00   3.39849010e-01  -3.07764990e-01
C     4.784041323075000e+00   5.386898526368760e+00   1.007353482400000e+01  1.79633169e+00  -1.95590740e+00   8.70691610e-01
C     4.947659210699999e+00   4.473265242826380e+00   6.716181840000000e+00  2.88452938e+00   2.67207127e+00   9.84734080e-01
C     6.290064686699999e+00   5.125435797315834e+00   6.749407456000000e+00 -5.04051737e+00   1.75745493e+00   8.44458530e-01
C     6.072853126499999e+00   4.691360451056479e+00   1.022197025600000e+01 -2.11378786e+00  -1.07610564e+00  -2.04626105e+00
C     7.301428883474999e+00   5.392316272348006e+00   1.004654426400000e+01 -2.21859475e+00  -7.80661260e-01   6.74249330e-01
C     7.427015136525000e+00   4.372463569004132e+00   6.819417808000000e+00  1.11410855e+00  -3.00404080e-01  -6.57358030e-01
C     8.607879869474999e+00   5.198549686961631e+00   6.863374367999999e+00 -1.63587447e+00   2.39284050e-01  -4.72814810e-01
C     8.438673136649999e+00   4.594372064491810e+00   1.002479732000000e+01  2.51101869e+00   6.28335600e-02  -5.20650350e-01
C     9.721273768649999e+00   5.313882237612749e+00   1.011877848800000e+01 -1.16112198e+00  -1.28365888e+00  -4.11845230e-01
