72
Lattice="7.395 0 0 3.6975 6.40425786098592 0 0 0 13.6 " PBC="1 1 1" Properties=species:S:1:pos:R:3:force:R:3 Energy="-572.20325522"
C     1.102914248707500e+01   6.296556494929701e+00   1.316894922400000e+01  1.07140541e+00   9.05231340e-01  -3.50391120e-01
C     1.152457764825000e+00   6.441667051437618e-01   1.307094626400000e+01  6.71870580e-01  -2.10197136e+00   2.61433200e-01
C     1.280243216925000e+00   7.989253401603474e-01   3.521507295999999e+00  6.08005990e-01   7.73526130e-01   4.92931620e-01
C     2.534718001725000e+00   1.557761371011245e+00   3.456023976000000e+00  1.05447334e+00  -4.04789346e+00   9.92582590e-01
C     6.070958009849999e+00   6.284342870722316e+00   1.313846740800000e+01  2.69041038e+00   1.67423978e+00   1.57214518e+00
C     3.665372459475000e+00   6.620676305437194e-01   1.325249252800000e+01 -4.58485080e-01  -2.71327359e+00  -2.23952652e+00
C     3.825612717825000e+00   8.525977601779638e-01   3.693060008000000e+00 -2.54221834e+00  -9.38705440e-01  -7.18770130e-01
C     5.005551042150000e+00   1.613849797306547e+00   3.846407623999999e+00  6.88073200e-01  -1.40853068e+00  -1.84291881e+00
C     8.638876899375001e+00   6.370829235035266e+00   1.314270299200000e+01 -1.27015730e+00  -1.87824828e+00   1.12048273e+00
C     6.158749416225000e+00   6.723797665498915e-01   1.323355765600000e+01 -9.26287070e-01   6.71961430e-01   1.74899530e-01
C     6.214020829424999e+00   8.652320800841719e-01   3.819651664000000e+00  1.39576466e+00   7.71183320e-01  -1.15677938e+00
C     7.478754401924999e+00   1.570268886611826e+00   3.559474144000000e+00 -1.68960404e+00  -6.30514270e-01   1.05912809e+00
C     8.547933854924999e+00   2.062190691991630e+00   1.300455514400000e+01  3.35313992e+00  -1.63169191e+00   8.07235030e-01
C     2.429711220225000e+00   2.745146129758633e+00   1.289873558400000e+01  4.28676700e-01  -5.87894190e-01   8.62705200e-02
C     2.553513651375000e+00   2.909624891184812e+00   3.533624080000000e+00 -1.14556223e+00   3.42253343e+00   7.81151870e-01
C     3.736585939725000e+00   3.656420404918281e+00   3.835051624000000e+00  1.33107078e+00   5.24771250e-01  -2.07296948e+00
C     3.683772920325000e+00   2.026483624208043e+00   1.293683571200000e+01  6.02726120e-01   1.63146336e+00   3.93759901e+00
C     4.898341992675000e+00   2.780581657008956e+00   1.342125928000000e+01 -1.95264080e-01   7.78632570e-01  -2.80771358e+00
C     5.044964728275000e+00   3.008505864032269e+00   3.658503496000000e+00 -1.59243755e+00   1.37568074e+00   2.00165509e+00
C     6.264286234350000e+00   3.783258460985203e+00   3.682576176000000e+00 -1.88111388e+00  -2.41518443e+00   1.82197290e-01
C     6.196723554674999e+00   2.174721956212206e+00   1.343999151200000e+01 -3.83997856e+00  -5.56579632e+00  -2.05580760e-01
C     7.431953258700000e+00   2.702355376398678e+00   1.343288442400000e+01  2.20938900e-02   5.32406731e+00   1.04589930e-01
C     7.446067614525000e+00   3.022644672194948e+00   3.581532800000000e+00  1.20709914e+00  -1.02606715e+00  -5.93648940e-01
C     8.698832416499998e+00   3.668815781963732e+00   3.529089568000000e+00  9.71192700e-01  -5.16988750e-01   9.93330310e-01
C     2.496293359875000e+00   4.146404281869650e+00   1.290359404800000e+01 -1.39643243e+00  -2.42878560e-01   1.22100645e+00
C     3.688215503550000e+00   4.854716033739172e+00   1.308129409600000e+01 -1.10244775e+00   2.80796123e+00  -3.22495000e-03
C     3.724950018149999e+00   5.099363679312303e+00   3.890172832000000e+00  9.11006700e-02  -2.57431100e-01  -1.04168505e+00
C     4.989445064925000e+00   5.757783956919595e+00   3.794369264000000e+00 -3.71191428e+00   4.59779514e+00  -6.85366190e-01
C     4.885765464075000e+00   4.239958449199474e+00   1.328494321600000e+01  1.94869026e+00  -3.62523437e+00   1.24852876e+00
C     6.137145589275000e+00   4.885765476908917e+00   1.341637728800000e+01  1.40650003e+00   7.52596090e-01  -2.13723780e-01
C     6.189709027425000e+00   5.193785175284106e+00   3.790482384000000e+00  3.39417253e+00  -4.11130591e+00  -1.28368903e+00
C     7.451502015150000e+00   5.756669808179691e+00   3.646427920000000e+00  1.57888440e+00   4.36522226e+00   1.40984755e+00
C     7.483810955025000e+00   4.158586717341256e+00   1.355012023200000e+01 -1.71367907e+00   9.73843600e-01  -2.88470930e+00
C     8.656993761974999e+00   4.833866780148206e+00   1.304240802400000e+01 -1.18098670e+00   2.90055071e+00   2.72962595e+00
C     8.692300191150000e+00   5.054209434589115e+00   3.749713664000000e+00 -7.07692700e-02   1.75767984e+00  -1.47761781e+00
C     9.899131874999998e+00   5.868274504373081e+00   3.757289544000000e+00  3.32815320e-01  -2.25639472e+00   1.20010876e+00
C     5.612021129999999e-02   5.744516832294240e-02   7.246094823999999e+00 -2.52602140e+00   2.84784889e+00  -7.28307560e-01
C     1.273318908675000e+00   7.295507045512687e-01   6.944449679999999e+00 -1.37328080e+00   3.21055315e+00  -7.60048000e-02
C     1.215656913825000e+00   5.796558472090386e-01   1.016122585600000e+01 -5.10500499e+00   4.46317440e-01   7.41514070e-01
C     2.348485649475000e+00   1.308815699903112e+00   1.018666384000000e+01  4.04287324e+00   1.10298927e+00   5.16980830e-01
C     2.437344191325000e+00   5.014348180902060e-02   6.713711536000000e+00  3.59751692e+00   3.13019730e-01   5.30116510e-01
C     3.667180573950000e+00   8.508793056663900e-01   6.635393216000000e+00  6.63858290e-01  -1.08848811e+00   4.47035550e-01
C     3.634106362499999e+00   6.544879992386736e-01   1.054558497600000e+01  9.71580200e-02  -2.26237485e+00  -3.71827221e+00
C     4.887570176850000e+00   1.301822058192256e+00   1.021749422400000e+01 -2.47174884e+00  -2.59854720e-01   2.25157523e+00
C     4.909068329249999e+00   7.163918118837481e-02   6.844563255999999e+00 -1.32925083e+00   1.16048324e+00   8.90730060e-01
C     6.073395549750000e+00   7.519646464225896e-01   7.183536456000000e+00  4.25807543e+00   1.39416822e+00  -1.57805992e+00
C     6.077667863099999e+00   5.726041829219712e-01   1.040330803200000e+01 -8.52084410e-01  -1.26777358e+00  -1.34936290e+00
C     7.239395001599999e+00   1.261937108751119e+00   1.019698678400000e+01  4.69941810e+00  -8.78178690e-01  -5.45703390e-01
C     8.675556838875000e+00   2.238729439479133e+00   6.846060752000000e+00  9.23394450e-01  -2.29715081e+00  -4.05964720e-01
C     2.484817835850000e+00   3.046450515469561e+00   6.576900432000000e+00  5.69163650e-01  -2.71192824e+00   2.74669781e+00
C     2.360771036925000e+00   2.754268738909888e+00   1.001263021600000e+01  6.11659240e-01  -9.15912080e-01   5.02826090e-01
C     3.640434522825000e+00   3.434982942596205e+00   9.942590623999999e+00 -1.76099639e+00   9.35388000e-03   1.70778071e+00
C     3.731666822700000e+00   2.302032134168567e+00   6.597926304000000e+00 -1.77857430e+00  -2.04187023e+00   1.97562440e-01
C     4.961466489150000e+00   2.942950663768315e+00   6.723461240000000e+00  1.75307872e+00  -1.12732201e+00   9.11490930e-01
C     4.841887046699999e+00   2.711868901449708e+00   1.013942668800000e+01  7.77170450e-01   6.33837900e-01  -9.06621140e-01
C     6.060185343600000e+00   3.416433714173080e+00   1.024416355200000e+01  9.22105680e-01   9.05656710e-01  -5.12721540e-01
C     6.200703506700000e+00   2.169779214038436e+00   6.959462448000000e+00 -2.34939711e+00  -7.52786140e-01   2.34213480e-01
C     7.431758400450001e+00   2.818071606138188e+00   6.984240423999999e+00  2.12429450e-01   4.11065334e+00  -8.60453410e-01
C     7.284155864324999e+00   2.628098454810028e+00   1.013173888000000e+01 -2.79297600e-01   4.11308674e+00   1.28440362e+00
C     8.520120594374999e+00   3.417616644642400e+00   1.019016176000000e+01 -1.58662210e-01  -9.17969850e-01  -1.06944636e+00
C     2.539154373150000e+00   4.382005593002638e+00   7.008918983999999e+00 -2.35405153e+00   1.04950225e+00  -1.32188663e+00
C     3.722780879775000e+00   5.119367058525119e+00   7.149628799999999e+00  2.98646156e+00  -4.50399926e+00  -1.93934151e+00
C     3.607240623300000e+00   4.848516840215849e+00   1.012631805600000e+01  7.84481520e-01   9.63535210e-01   6.35158170e-01
C     4.865180298375000e+00   5.605010129498980e+00   1.025892050400000e+01  1.13083990e-01  -2.08051756e+00  -5.89410370e-01
C     5.019659962650000e+00   4.313411380256379e+00   6.830242727999999e+00 -1.23373816e+00   3.22026144e+00   1.27779500e+00
C     6.287696881650000e+00   5.024664671803577e+00   6.815279327999999e+00 -4.32313170e+00   8.80119000e-01  -1.06627670e-01
C     6.089176110000000e+00   4.891920801265899e+00   1.034713799200000e+01  1.34361945e+00  -1.87659335e+00  -1.31978800e-02
C     7.404567503100000e+00   5.535874308665502e+00   1.052338760000000e+01 -5.86921177e+00   3.59974577e+00  -6.71947160e-01
C     7.451633609175000e+00   4.335198473368363e+00   6.854474528000000e+00  1.44327200e+00  -2.62512304e+00   3.54251470e-01
C     8.648347564949999e+00   5.073700921471182e+00   6.923317184000000e+00  6.67662360e-01  -1.04501287e+00   1.66500440e-01
C     8.535351040575000e+00   4.827427298869976e+00   1.039366223200000e+01  2.36713863e+00  -1.05379815e+00  -7.49081840e-01
C     9.771469512674999e+00   5.540587394152411e+00   1.037586323200000e+01  7.05376680e-01  -3.04189820e-01  -1.07561314e+00
