72
Lattice="7.395 0 0 3.6975 6.40425786098592 0 0 0 13.6 " PBC="1 1 1" Properties=species:S:1:pos:R:3:force:R:3 Energy="-572.9034493"
C     3.648547651275000e+00   6.284783035365034e+00   1.316846465600000e+01  3.26007750e-01   1.62290482e+00  -3.74761690e-01
C     1.138713269925000e+00   6.550285826446363e-01   1.307190343200000e+01  1.46659564e+00  -2.65063514e+00   2.63408290e-01
C     1.286401181325000e+00   8.033172521155783e-01   3.531510368000000e+00  3.45729640e-01   6.44691890e-01   4.73277350e-01
C     2.544018730200000e+00   1.559049715564942e+00   3.468023936000000e+00  4.26323820e-01  -2.99812859e+00   8.82586480e-01
C     6.046508180175000e+00   6.288713712669188e+00   1.313846033600000e+01  3.60106231e+00   1.42239007e+00   1.56842561e+00
C     3.666090181200000e+00   6.746483468116392e-01   1.324946408000000e+01 -3.92014510e-01  -3.15987691e+00  -2.14635409e+00
C     3.809007245325000e+00   8.367184028140939e-01   3.689300832000000e+00 -1.55392131e+00   2.87980450e-01  -5.52599320e-01
C     4.989124195875000e+00   1.614896573253764e+00   3.846725320000000e+00  1.35142912e+00  -1.58374764e+00  -1.97029099e+00
C     8.655880962374999e+00   6.368811509553894e+00   1.315200906400000e+01 -2.12371848e+00  -1.70378238e+00   9.50049270e-01
C     6.171711852900000e+00   6.720114576803629e-01   1.322861364800000e+01 -1.18208322e+00   4.47496450e-01   2.07213730e-01
C     6.226380758475000e+00   8.660901225522547e-01   3.817052160000000e+00  3.79050390e-01   1.24228447e+00  -1.02571440e+00
C     7.480076849775000e+00   1.570512120325348e+00   3.566343231999999e+00 -1.27516929e+00  -5.01455200e-01   9.75823380e-01
C     8.557290785399999e+00   2.063107845759761e+00   1.300685721600000e+01  2.57632581e+00  -1.46466939e+00   8.80764120e-01
C     2.418111275325000e+00   2.751245288774182e+00   1.291591265600000e+01  1.16800249e+00  -9.74291500e-01  -5.86138200e-02
C     2.555380149375000e+00   2.935590314252396e+00   3.536073304000000e+00 -9.59363050e-01   1.83625421e+00   8.18683950e-01
C     3.764637245325000e+00   3.661538815885151e+00   3.838196896000000e+00 -2.95571670e-01   6.64817990e-01  -2.20094905e+00
C     3.685960435275000e+00   2.035474946073168e+00   1.294163039200000e+01  3.82641110e-01   1.47824769e+00   3.86421338e+00
C     4.903534465875000e+00   2.784750956960973e+00   1.341232802400000e+01 -3.58900430e-01   3.57306950e-01  -2.75254113e+00
C     5.042809048800000e+00   3.024607385101302e+00   3.654892696000000e+00 -1.52057922e+00  -8.87382100e-02   2.07781803e+00
C     6.253532129549999e+00   3.770043274891094e+00   3.687726768000000e+00 -8.06246300e-01  -1.50263127e+00   1.34750090e-01
C     6.195692247975000e+00   2.181476270806833e+00   1.342275188000000e+01 -3.78223198e+00  -6.02409642e+00  -1.51961250e-01
C     7.428414751200000e+00   2.701364253452264e+00   1.341435510400000e+01  3.90468710e-01   4.98416301e+00   1.01976240e-01
C     7.452226836074999e+00   3.023720203259956e+00   3.589659208000000e+00 -1.25001250e-01  -1.67124513e+00  -5.81984780e-01
C     8.671149012150000e+00   3.664227515462514e+00   3.531684312000000e+00  2.78291473e+00   3.53981010e-01   1.07863670e+00
C     2.488369284600000e+00   4.140511147829457e+00   1.291600948800000e+01 -1.08965847e+00   5.79432440e-01   1.19636660e+00
C     3.694736747325000e+00   4.862728080534925e+00   1.307783248800000e+01 -1.28648128e+00   1.68480764e+00   7.42083800e-02
C     3.732369310725000e+00   5.094825430064970e+00   3.881668208000000e+00 -6.74613000e-02   1.44620230e-01  -8.37921540e-01
C     4.976519751150000e+00   5.753884980691848e+00   3.796370096000000e+00 -1.65278568e+00   4.45337023e+00  -7.67820300e-01
C     4.892443777650000e+00   4.224769150620018e+00   1.327877466400000e+01  1.45494510e+00  -2.78261627e+00   1.08202783e+00
C     6.133450529625000e+00   4.875496633685879e+00   1.340181835200000e+01  1.50754682e+00   1.11277722e+00  -1.19579070e-01
C     6.206687799525000e+00   5.187334806767514e+00   3.791686528000000e+00  1.60315023e+00  -3.70223874e+00  -1.25412266e+00
C     7.454295365475000e+00   5.773507178476838e+00   3.646395416000000e+00  1.62494969e+00   3.18015142e+00   1.45414653e+00
C     7.487794604549999e+00   4.132295637761492e+00   1.353656307200000e+01 -2.21142088e+00   2.03444638e+00  -2.76405561e+00
C     8.642213190600000e+00   4.824525849846503e+00   1.304320253600000e+01 -3.11120090e-01   3.06084498e+00   2.66303852e+00
C     8.691756547724999e+00   5.052822976805004e+00   3.756444848000000e+00 -5.68303200e-02   2.30669731e+00  -1.55055108e+00
C     9.912008825475001e+00   5.877439701839106e+00   3.761085848000000e+00 -1.77551730e-01  -3.10702298e+00   1.08410961e+00
C     4.221036420000000e-02   5.231202756299520e-02   7.224624368000000e+00 -1.60273111e+00   3.16992343e+00  -7.52900870e-01
C     1.281625601250000e+00   7.415742503853684e-01   6.936398887999999e+00 -2.03024817e+00   2.67124888e+00   1.67552450e-01
C     1.216333334475000e+00   5.795971842070410e-01   1.016584264800000e+01 -4.89158934e+00   5.45791590e-01   7.31095350e-01
C     2.354776206225000e+00   1.306552435175387e+00   1.018213327200000e+01  3.64537483e+00   1.04948266e+00   5.11628710e-01
C     2.447744149575000e+00   5.687281979799420e-02   6.722993400000000e+00  3.13448479e+00  -5.96908900e-02   5.68929950e-01
C     3.677346776250000e+00   8.438118228624084e-01   6.650528384000000e+00  4.75283110e-01  -9.70281220e-01   4.23122550e-01
C     3.636326489400000e+00   6.388265147272009e-01   1.052585192000000e+01 -4.05077890e-01  -1.74223204e+00  -3.57045301e+00
C     4.877841536699999e+00   1.285955637429263e+00   1.021162310400000e+01 -1.71259451e+00   3.78931070e-01   2.14500540e+00
C     4.917809256225000e+00   6.585684080915941e-02   6.850416152000000e+00 -1.19427957e+00   1.54994409e+00   8.87327250e-01
C     6.083739453899999e+00   7.564504447980480e-01   7.173933359999999e+00  3.89957213e+00   9.52857100e-01  -1.59211179e+00
C     6.074716814400000e+00   5.781871587540048e-01   1.039465448800000e+01 -6.43718140e-01  -1.63912950e+00  -1.28690757e+00
C     7.242051729299999e+00   1.270333603146208e+00   1.020749672800000e+01  4.33830760e+00  -1.58779765e+00  -6.13414900e-01
C     8.666065504275000e+00   2.242291871956336e+00   6.857474551999999e+00  1.34312695e+00  -2.18320239e+00  -6.37411550e-01
C     2.489275283025000e+00   3.041233158718755e+00   6.589840560000000e+00  1.05525560e-01  -2.93355742e+00   2.71037974e+00
C     2.356039235250000e+00   2.762456902796791e+00   1.001720947200000e+01  9.63668130e-01  -1.67971510e+00   4.96871510e-01
C     3.629379959175000e+00   3.437436413782371e+00   9.957491872000000e+00 -8.61293360e-01  -3.63507350e-01   1.65082356e+00
C     3.719811047775000e+00   2.291246403293648e+00   6.615845935999999e+00 -4.42376390e-01  -1.31352365e+00   2.42154020e-01
C     4.975061568075000e+00   2.962000064730307e+00   6.738809792000000e+00  4.11466610e-01  -3.00478230e+00   6.51135160e-01
C     4.860663691199999e+00   2.701995713277261e+00   1.015080431200000e+01 -8.42500310e-01   8.02303280e-01  -1.04974236e+00
C     6.062263671374999e+00   3.405571132203840e+00   1.024803520000000e+01  1.04835412e+00   1.19836279e+00  -5.45283990e-01
C     6.199854375825000e+00   2.165461655516960e+00   6.954497360000000e+00 -1.93232925e+00   1.20968780e-01   2.49294680e-01
C     7.427884418774999e+00   2.834766417655372e+00   6.974388447999999e+00  5.97343100e-02   3.62453572e+00  -7.12076370e-01
C     7.275571267650000e+00   2.621402867259977e+00   1.013058682400000e+01  3.68763120e-01   4.63294475e+00   1.34063628e+00
C     8.523603010799999e+00   3.409012844420384e+00   1.019164660800000e+01 -6.10321020e-01  -9.75526200e-02  -9.91376130e-01
C     2.535819930675000e+00   4.377143032137276e+00   7.005901280000001e+00 -2.18808343e+00   1.08607146e+00  -1.30947399e+00
C     3.713579946824999e+00   5.113161844999408e+00   7.130400576000000e+00  3.14327328e+00  -4.13961116e+00  -1.69909246e+00
C     3.585713815275000e+00   4.845133278660676e+00   1.012815011200000e+01  1.84519387e+00   9.69845080e-01   6.12894960e-01
C     4.853750364525000e+00   5.605095946554305e+00   1.026317104800000e+01  5.04644700e-01  -2.45940037e+00  -6.77290220e-01
C     5.013069686550000e+00   4.309609812790683e+00   6.836694704000000e+00 -1.12265462e+00   3.95234604e+00   1.24015614e+00
C     6.274891810574999e+00   5.017128205196508e+00   6.826263504000001e+00 -3.84410016e+00   1.68668474e+00  -1.95727120e-01
C     6.090158498775000e+00   4.882425656434926e+00   1.033894072800000e+01  9.09991100e-01  -1.23450777e+00   5.68441400e-02
C     7.399431749549999e+00   5.555509122838475e+00   1.050604460800000e+01 -4.96130851e+00   2.10443624e+00  -7.27011500e-01
C     7.448148012900000e+00   4.350337434481038e+00   6.853502128000000e+00  1.57398572e+00  -2.98102050e+00   3.86235410e-01
C     8.661340395074999e+00   5.077231140531350e+00   6.922587407999999e+00  2.35853400e-02  -1.23952193e+00   1.23357370e-01
C     8.552540459249999e+00   4.835007314430493e+00   1.038433644000000e+01  7.74047450e-01  -1.21503856e+00  -6.68951600e-01
C     9.772215557250000e+00   5.538166904894224e+00   1.036308875200000e+01  4.87505360e-01   3.03233160e-01  -8.88718530e-01
