72
Lattice="7.395 0 0 3.6975 6.40425786098592 0 0 0 13.6 " PBC="1 1 1" Properties=species:S:1:pos:R:3:force:R:3 Energy="-562.72964639"
C     3.594815433375000e+00   6.123503584995397e+00   1.887920720000000e-01  2.47546329e+00   3.83008069e+00   3.58499050e-01
C     1.269640376850000e+00   3.088124174130996e-01   3.797745600000000e-01 -6.02729974e+00   6.46639393e+00  -9.38098330e-01
C     1.447275708825000e+00   1.121687255873785e+00   3.352240472000000e+00  4.42598733e+00  -7.11897200e-02   7.28414760e-01
C     2.634651961125000e+00   1.894463434808545e+00   3.613113904000000e+00  3.79652764e+00  -4.03966481e+00  -8.81753320e-01
C     6.157463129925000e+00   6.135464817400519e+00   1.974873680000000e-01 -9.83878900e-01  -4.72985830e-01   2.98130640e-01
C     3.638909230124999e+00   3.822202624946706e-01   3.508204320000000e-01  1.45854266e+00   3.13266657e+00  -1.42959646e+00
C     4.024413464175000e+00   1.190953403354715e+00   3.473060832000000e+00 -2.88495146e+00  -2.13003591e+00  -1.61201524e+00
C     5.298755988749999e+00   1.794361618285236e+00   3.212548480000000e+00 -6.81886530e+00   3.99890598e+00   1.00295328e+00
C     8.568069885299998e+00   6.156111056017322e+00   1.356411123200000e+01 -1.55642511e+00  -5.34353910e-01   2.34682508e+00
C     6.035223484125000e+00   3.860507772058938e-01   1.343816000000000e-01  4.74607617e+00   3.12706231e+00  -1.23067988e+00
C     6.390895992375000e+00   1.057562062347391e+00   3.051249352000000e+00  3.84422769e+00   6.55569375e+00   2.72261600e-01
C     7.644006510600000e+00   1.672539953357473e+00   3.220659384000000e+00 -1.36011381e+00   7.66777103e+00   1.54943518e+00
C     1.181511684525000e+00   1.844789449143241e+00   4.793681760000000e-01  1.39293730e-01   2.81370290e-01  -1.95389540e-01
C     2.354458960725000e+00   2.640817951345774e+00   6.394011440000000e-01  1.84062849e+00  -3.31737354e+00  -1.46436562e+00
C     2.713138978500000e+00   3.213810168251483e+00   3.689595272000000e+00  1.66337143e+00   5.89187320e+00  -2.39453186e+00
C     3.940547471700000e+00   3.984054872139342e+00   3.384648184000000e+00  1.64932199e+00   2.50382730e-01  -1.77362998e+00
C     3.566954031375000e+00   1.788894239307576e+00   5.026851040000000e-01  3.47742365e+00   2.79659334e+00  -1.18965790e+00
C     4.923355949925000e+00   2.473411931736946e+00   1.716752480000000e-01 -2.78713248e+00   3.58746109e+00   2.15522550e-01
C     5.202720266625000e+00   3.254533883344544e+00   3.114015256000000e+00 -7.89095400e-01  -5.15665160e-01   1.89841024e+00
C     6.428155662900000e+00   3.952773146537016e+00   3.122196744000000e+00  2.12760249e+00  -4.85166000e-01   1.39058053e+00
C     6.150730906800000e+00   1.781981931671542e+00   1.745233600000000e-02 -5.26907510e-01   3.49156470e+00   1.95695718e+00
C     7.399681589625000e+00   2.640441509068764e+00   2.679209520000000e-01 -2.02819161e+00  -1.98447053e+00  -1.88362443e+00
C     7.697316215174999e+00   3.293222901672904e+00   3.487463911999999e+00 -1.46169663e+00  -2.02880216e+00  -3.08991751e+00
C     8.978474489400000e+00   4.046206273393285e+00   3.445905032000000e+00 -3.52110286e+00  -3.80558818e+00   9.92375410e-01
C     2.383700084850000e+00   4.025173409729472e+00   4.293505040000000e-01  1.73506239e+00   1.60524175e+00  -2.74544090e-01
C     3.609652724400000e+00   4.839365796159695e+00   3.615425360000000e-01  1.72535470e+00  -9.06699022e+00  -1.50506721e+00
C     3.978349417575000e+00   5.506420294213839e+00   3.029696480000000e+00  1.81109490e+00  -3.24720196e+00   1.91453053e+00
C     5.322459145274999e+00   6.174582664835185e+00   3.201503784000000e+00 -5.26504438e+00  -3.75429410e+00  -9.95162340e-01
C     4.889066592075000e+00   4.073792165827184e+00   7.271498400000000e-02 -2.76107420e-01  -1.85245652e+00   1.14936762e+00
C     6.132564719549999e+00   4.816481077293085e+00   1.351837293600000e+01 -7.25773750e-01  -5.63854828e+00   8.21706460e-01
C     6.433930529325000e+00   5.346478693311155e+00   3.215634456000000e+00  1.42080221e+00   2.80610377e+00   1.30351560e-01
C     7.623409919625001e+00   6.138472000721261e+00   3.234389672000000e+00  3.12138381e+00  -1.16285811e+00   8.68233520e-01
C     7.374709192274999e+00   4.099559953497208e+00   5.501036800000000e-02  5.44690600e-01  -2.72142932e+00   5.68062430e-01
C     8.649111949124999e+00   4.776841987311194e+00   1.399106800000000e-01 -3.40782928e+00  -2.36091176e+00  -2.05700810e-01
C     8.921481335325000e+00   5.365787915014527e+00   3.163272280000000e+00 -8.01612700e-02   4.99489755e+00  -1.04857871e+00
C     1.016398498320000e+01   6.218875985174253e+00   2.871662032000000e+00 -1.81580535e+00  -1.13366474e+01   2.18621484e+00
C     7.381092223499999e+00   2.675979440402269e-01   6.358964512000000e+00 -4.19510681e+00   2.36093762e+00   3.58929620e-01
C     1.175556269175000e+00   9.568015679031810e-01   6.480326967999999e+00 -2.41767887e+00   3.37221562e+00   3.52321670e-01
C     1.158927058725000e+00   2.781779701526826e-01   1.040190451200000e+01 -3.76202776e+00   2.91670970e-01  -1.22138100e+00
C     2.229155381550000e+00   9.134659402844977e-01   1.082960873600000e+01  6.18215800e+00   4.83766437e+00   1.08297994e+00
C     2.352441641700000e+00   3.892520735823720e-01   6.282071744000000e+00  2.42295697e+00  -6.20278908e+00  -4.06624320e-01
C     3.573377661150000e+00   1.016354697700742e+00   6.267979015999999e+00  3.03414473e+00  -3.69607396e+00  -1.43935850e-01
C     3.578615280825000e+00   2.156839411032306e-01   1.090034872800000e+01 -1.95056935e+00   6.59171260e-01  -2.58697457e+00
C     4.800680627700000e+00   1.052630079326826e+00   1.063103717600000e+01  8.84956960e-01  -3.87693899e+00  -4.42047390e-01
C     4.862641077225000e+00   2.958324597101874e-01   6.156760392000000e+00 -1.43900156e+00   6.03427500e-01   1.41210786e+00
C     6.062430058874999e+00   1.059307863040027e+00   6.318905440000000e+00  2.00824322e+00  -3.28246144e+00   1.38977550e-01
C     6.031318036725000e+00   2.789245785340014e-01   1.028476036800000e+01 -1.71140638e+00  -1.04748950e+00   7.74816860e-01
C     7.277366625749999e+00   9.991374908699184e-01   1.013159444800000e+01  6.14477000e-02  -5.56766620e-01   1.50866814e+00
C     8.521769457525000e+00   2.366930257576084e+00   6.670499712000000e+00  1.21556623e+00   1.81084945e+00  -5.26265500e-01
C     2.442527457750000e+00   3.051122165408117e+00   6.633500912000000e+00 -2.64369165e+00   2.58401426e+00  -1.17604952e+00
C     2.282231995725000e+00   2.521224968153292e+00   1.095217424800000e+01  9.97499330e-01  -5.43725097e+00  -1.59639505e+00
C     3.573696459600000e+00   3.056478430511907e+00   1.079870994400000e+01 -1.00851860e+00   5.00521568e+00  -8.75074750e-01
C     3.654948467475000e+00   2.326521183671685e+00   6.392420512000000e+00 -2.70084680e+00   5.41205202e+00   1.15921013e+00
C     4.773240260024999e+00   3.129059229733437e+00   6.278790200000000e+00  5.04386034e+00  -1.67733492e+00   3.85541170e-01
C     4.801827111525000e+00   2.468817004807554e+00   1.059480242400000e+01  3.06655500e-02  -2.95142153e+00  -3.74097340e-01
C     5.947048536075000e+00   3.177894129533924e+00   1.024955840000000e+01  3.32049712e+00  -4.30978077e+00   7.61728500e-01
C     6.095915728125000e+00   2.456795572378548e+00   6.419362248000001e+00 -3.60220628e+00  -1.43032675e+00  -7.34233250e-01
C     7.265953293674999e+00   3.096422235082777e+00   6.590780727999999e+00  3.20289050e+00   3.66815654e+00  -9.12398240e-01
C     7.290927761624999e+00   2.410396852268005e+00   1.021234404000000e+01 -1.45595087e+00   1.18972912e+00   1.40958850e+00
C     8.514826883625000e+00   3.184474888740546e+00   1.061808698400000e+01 -2.84063841e+00  -5.33642872e+00  -6.52925510e-01
C     9.792628715250000e+00   4.566717710541386e+00   6.458460344000000e+00 -1.27957020e+00  -1.01780784e+00   4.36945740e-01
C     3.620568114150000e+00   5.320769632685708e+00   6.377418624000000e+00  8.06529130e-01  -4.66634501e+00  -1.29664787e+00
C     3.597506954550000e+00   4.493090263457796e+00   1.045899064800000e+01 -1.54775099e+00   1.00452661e+00  -1.86754710e-01
C     4.933281112200000e+00   5.316029457188050e+00   1.028658521600000e+01 -7.29871445e+00  -2.86779851e+00   8.87508210e-01
C     4.920635773124999e+00   4.470627777311896e+00   6.154059023999999e+00 -4.68665970e+00   4.47387733e+00   1.81387709e+00
C     6.078242491575000e+00   5.259177131015208e+00   6.160899415999999e+00 -1.42291243e+00   2.56802236e+00   3.71852570e-01
C     6.000986926574999e+00   4.522507133213870e+00   1.041126321600000e+01  7.96102080e-01   8.82801670e-01  -4.47381790e-01
C     7.185796965974999e+00   5.141830889565171e+00   1.059228044000000e+01  2.21938976e+00   5.94836899e+00   1.26299692e+00
C     7.259945004074998e+00   4.642263424981783e+00   6.323779272000000e+00  1.34306032e+00  -5.18953466e+00   1.27001997e+00
C     8.453819686574999e+00   5.289590823507190e+00   6.317359800000000e+00  5.57852300e+00   1.92617120e-01   3.08223140e-01
C     8.379100791450000e+00   4.504246096394445e+00   1.064397689600000e+01  3.95747252e+00   2.39110187e+00  -1.27807592e+00
C     9.642883773674999e+00   5.132370263684064e+00   1.040600695200000e+01  3.15630153e+00   4.32628885e+00   6.58399450e-01
