72
Lattice="7.395 0 0 3.6975 6.40425786098592 0 0 0 13.6 " PBC="1 1 1" Properties=species:S:1:pos:R:3:force:R:3 Energy="-574.31958754"
C     2.420512912500000e-02   4.047843201702300e-02   1.353735622400000e+01  5.17804310e-01  -2.70633733e+00   1.03305490e-01
C     1.321857174375000e+00   6.663121164830130e-01   1.358740721600000e+01 -2.93810477e+00   2.19740674e+00  -6.73686990e-01
C     1.192454879475000e+00   7.981834709298451e-01   3.446427544000000e+00  5.15959717e+00  -4.04464413e+00  -7.48605190e-01
C     2.464197026250000e+00   1.471812067762436e+00   3.433628584000000e+00  2.67226710e-01  -1.30902738e+00  -4.45638110e-01
C     6.211618600650000e+00   6.374837339816946e+00   1.356445028000000e+01 -9.07576800e-02   2.34002540e+00   1.49298100e-01
C     3.755440749375000e+00   7.589853141016146e-01   1.354188189600000e+01 -3.62783056e+00  -3.70045819e+00  -5.05088090e-01
C     3.700880513325000e+00   7.330197629488735e-01   3.401611600000000e+00 -3.58665160e+00  -1.45208091e+00   1.13519670e-01
C     4.867262878275000e+00   1.373561722186454e+00   3.435156408000000e+00  3.95921857e+00   2.16287999e+00  -2.26673790e-01
C     8.571786168599999e+00   6.379840986482964e+00   1.357489304000000e+01  2.32520509e+00   4.60926660e-01  -1.69128730e-01
C     6.113168226150000e+00   5.526686247998917e-01   1.485120000000000e-03  2.27674764e+00   6.60407127e+00  -3.42641630e-01
C     6.159602688300001e+00   6.660289842430224e-01   3.437385448000000e+00  5.60309740e-01   9.50810030e-01  -3.75575040e-01
C     7.443539929575000e+00   1.451236147896936e+00   3.383467296000000e+00 -4.97756606e+00  -2.97847521e+00   3.50777510e-01
C     1.283356401000000e+00   2.086609422743446e+00   1.353405958400000e+01 -1.40205304e+00   2.77191480e+00   8.49492420e-01
C     2.506154000775000e+00   2.830651810065480e+00   1.357565518400000e+01 -2.59106823e+00   1.82930004e+00  -1.48374738e+00
C     2.515046303400000e+00   2.841538215873958e+00   3.371746408000000e+00 -3.70291346e+00   4.39188046e+00   4.08061840e-01
C     3.663411934050000e+00   3.661354309216204e+00   3.481989232000000e+00  2.79743134e+00  -5.53352041e+00  -1.01670700e+00
C     3.714654070575000e+00   2.100919288633566e+00   1.340896515200000e+01 -4.00683930e-01   2.66143992e+00   2.46172624e+00
C     4.922029249950000e+00   2.750927317371433e+00   7.936565599999999e-02 -4.20870450e-01   4.48625904e+00  -1.67048857e+00
C     4.840397397899999e+00   2.803067326568309e+00   3.422925928000000e+00  3.68576829e+00   2.00950269e+00   1.01427235e+00
C     6.223919036924999e+00   3.446466929705600e+00   3.476408472000000e+00 -5.07511353e+00   3.58806044e+00  -7.63742670e-01
C     6.092223330674999e+00   2.074471368778809e+00   1.804720000000000e-02  3.89656345e+00  -6.51541340e-01   4.07544770e-01
C     7.356573583349999e+00   2.901881182793393e+00   1.358876395200000e+01  1.22376977e+00  -2.58106112e+00   1.82352020e-01
C     7.423313791125000e+00   2.792959294260135e+00   3.381442936000000e+00  7.06028460e-01   4.04009787e+00  -1.42223980e-01
C     8.584785469349999e+00   3.625717047843291e+00   3.323995584000000e+00  2.20340518e+00  -2.12935789e+00   1.50211866e+00
C     9.760057215900000e+00   4.341984745209712e+00   1.352854968000000e+01  5.84632810e+00  -3.35047384e+00  -1.27117520e-01
C     3.723149002875000e+00   5.035966457776855e+00   1.348119216800000e+01 -1.57652309e+00  -2.20159460e+00   1.10505113e+00
C     3.747914746950000e+00   5.019425476533469e+00   3.429724024000000e+00 -3.57636360e-01   3.78062460e-01  -1.67337600e-02
C     4.965291441974999e+00   5.728847342460443e+00   3.381987752000000e+00  1.47201240e-01  -7.67681100e-02   8.15742660e-01
C     4.948388172825000e+00   4.267387629443538e+00   3.182304800000000e-02 -1.68478431e+00  -1.16206798e+00  -3.30348380e-01
C     6.143084144025000e+00   5.001347217233367e+00   2.963630400000000e-02  7.66575510e-01  -1.01018020e+00   9.21293500e-02
C     6.192671945099999e+00   4.952687730055666e+00   3.430530504000000e+00  9.83194100e-02  -5.41779300e-02  -3.58695660e-01
C     7.420391398050000e+00   5.737150911073983e+00   3.377786712000000e+00 -2.48614290e+00  -8.03960540e-01   1.07446522e+00
C     7.392435487949999e+00   4.371914916233265e+00   2.290376000000000e-02 -2.49546235e+00  -6.08114280e+00  -3.18110110e-01
C     8.576033301974999e+00   5.005339119242662e+00   1.353004717600000e+01  4.09882680e-01   9.27157200e-02   5.51962580e-01
C     8.604772416525000e+00   5.066587007797716e+00   3.522100256000000e+00  1.51350131e+00  -4.36442031e+00  -1.94746972e+00
C     9.892555908224999e+00   5.620497674366976e+00   3.439035536000000e+00 -8.87569990e-01   5.23806697e+00   5.17607610e-01
C     3.717977235674999e+00   6.394808697740463e+00   6.864375599999999e+00 -6.84148790e-01   1.54166675e+00   6.73913850e-01
C     1.262796119475000e+00   7.583041572356251e-01   6.848382815999999e+00 -2.05984359e+00  -1.34657509e+00  -2.30959020e-01
C     1.311873000000000e+00   6.763833883510704e-01   1.019681134400000e+01 -7.04340151e+00  -7.20589790e-01   2.47035450e-01
C     2.438841309075000e+00   1.347178997676712e+00   1.015332425600000e+01  2.14449786e+00   4.14502675e+00   6.39093410e-01
C     2.458257584100000e+00   5.688825405943680e-02   6.725757192000001e+00  1.11876851e+00  -1.50679291e+00   7.35595320e-01
C     3.741697955324999e+00   6.470231322344790e-01   6.695672087999999e+00  3.77112000e-01   2.01364205e+00   2.91014690e-01
C     3.614645939325000e+00   6.771399233320723e-01   1.031118666400000e+01  4.85519497e+00   4.27864690e-01  -1.56246295e+00
C     4.941520843049999e+00   1.401192060169902e+00   1.017372303200000e+01 -1.94732076e+00   6.44373630e-01   1.75483111e+00
C     5.046659588325000e+00   7.236363083749800e-03   6.808906231999999e+00 -4.04480624e+00  -2.35158940e-01   2.73065330e-01
C     6.193748583150000e+00   7.630669397635285e-01   6.946277792000000e+00  2.19245869e+00   1.47152980e-01  -1.73496358e+00
C     6.198783394950000e+00   7.308443005964100e-01   1.026632026400000e+01 -1.47435941e+00  -4.72641770e-01  -1.06145415e+00
C     7.356612887774999e+00   1.536786145668174e+00   1.020600725600000e+01  3.38532662e+00  -6.46695835e+00  -2.22280570e-01
C     8.603111092799999e+00   2.160653915098879e+00   6.877649879999999e+00  9.46715250e-01  -1.91400729e+00  -1.09119737e+00
C     2.446324605375000e+00   2.747358544678948e+00   6.716066104000000e+00  1.76971459e+00   3.05857172e+00   1.22959705e+00
C     2.468976710550000e+00   2.797603213762157e+00   1.016324246400000e+01  1.74294400e-02   2.14923962e+00  -1.82269300e-02
C     3.696566861925000e+00   3.611866495326890e+00   1.014171828800000e+01 -1.00849539e+00  -4.93309390e+00   4.05162630e-01
C     3.696005803275000e+00   2.070792506893711e+00   6.695836920000000e+00  1.16631300e-01   3.45816940e-01   2.45935060e-01
C     4.888239165525000e+00   2.863173399989503e+00   6.780283808000000e+00  2.49215951e+00  -1.25404110e+00  -3.66986520e-01
C     4.915813419675000e+00   2.878074571007836e+00   1.022101608000000e+01  1.20930238e+00  -2.34259186e+00  -1.05454680e+00
C     6.177810287550001e+00   3.522490017526880e+00   1.017051152800000e+01 -1.46667827e+00   1.65506049e+00   9.68735300e-02
C     6.220553165699999e+00   2.223704986496994e+00   6.770775504000000e+00 -4.55039538e+00  -4.17839835e+00   1.14877363e+00
C     7.402325560950000e+00   2.828599053293614e+00   6.794577407999999e+00 -1.24603900e-02   5.52059466e+00   1.21719490e-01
C     7.419573843824999e+00   2.870256509182663e+00   1.012492324000000e+01 -7.79374430e-01   1.31227726e+00   9.39989170e-01
C     8.652719784749999e+00   3.549677372994153e+00   1.023309900000000e+01  2.98047990e-01   8.49868010e-01  -7.01778450e-01
C     2.495941616700000e+00   4.189107937322708e+00   6.852007896000001e+00 -3.45023740e+00   1.58846315e+00  -8.00427590e-01
C     3.632749860675000e+00   4.974826929264793e+00   6.833492855999999e+00  3.55052341e+00  -1.00832505e+00   2.71845200e-01
C     3.674692784699999e+00   4.959723703910976e+00   1.012466334400000e+01  1.61950498e+00   1.44959884e+00   7.80183910e-01
C     4.943727954750000e+00   5.631439028707893e+00   1.023816758400000e+01 -2.31865937e+00   2.73499908e+00  -8.27408460e-01
C     4.939986454500000e+00   4.234094902830593e+00   6.840514808000000e+00 -2.85419183e+00   3.07882779e+00  -3.08199100e-01
C     6.119729292000000e+00   5.042285474964738e+00   6.827224072000000e+00 -4.60479010e-01  -1.46958870e+00  -7.47985880e-01
C     6.107074191524999e+00   4.950088946258656e+00   1.021242400800000e+01  2.97663562e+00  -9.77083930e-01   2.97770890e-01
C     7.326519785700000e+00   5.701396707952546e+00   1.027991414400000e+01  1.33137497e+00  -1.62438441e+00   2.75750420e-01
C     7.305158292900000e+00   4.342263458511779e+00   6.757347544000000e+00  4.14994224e+00  -1.56848847e+00   7.11977390e-01
C     8.611194012675000e+00   5.018033767257911e+00   6.840809791999999e+00  1.35831787e+00  -2.81114262e+00  -3.89135710e-01
C     8.601725713499999e+00   5.002860223152792e+00   1.029862298400000e+01  1.28820324e+00  -9.00956040e-01  -8.83937480e-01
C     9.893941546350000e+00   5.649136170622746e+00   1.019453307200000e+01 -3.01144742e+00   3.10295237e+00   7.93248740e-01
