72
Lattice="7.395 0 0 3.6975 6.40425786098592 0 0 0 13.6 " PBC="1 1 1" Properties=species:S:1:pos:R:3:force:R:3 Energy="-566.43307187"
C     1.103121741315000e+01   6.336672958292477e+00   1.338302179200000e+01  1.57363834e+00  -1.98900536e+00  -4.45075300e-01
C     1.127863030125000e+00   6.666163187313631e-01   1.342136114400000e+01  3.23670562e+00  -4.39201901e+00  -9.31115400e-01
C     1.338748500600000e+00   8.852267495062992e-01   3.889043216000000e+00 -9.12751720e-01   5.44926260e-01  -9.78815560e-01
C     2.578016170425000e+00   1.577693727004395e+00   3.953894000000000e+00  1.54440153e+00  -1.30691602e+00  -1.45667314e+00
C     6.083258704950000e+00   6.280250806120091e+00   1.323734838400000e+01  2.02093676e+00  -9.99697590e-01   6.97508690e-01
C     3.654801122100000e+00   5.234518881019429e-01   1.347885949600000e+01  1.22688075e+00   1.15701616e+00  -3.15379080e+00
C     3.844525245450000e+00   9.091113011100120e-01   3.718122496000000e+00 -5.39960320e-01  -6.87992800e-02   3.03635470e-01
C     5.065280900850000e+00   1.720313923800873e+00   3.663248400000000e+00  6.72663940e-01  -3.73957838e+00  -1.37058784e+00
C     8.698254719099999e+00   6.224955675245909e+00   1.329441262400000e+01 -2.82869497e+00   2.49615549e+00  -1.59281110e-01
C     6.237023124825000e+00   7.115684450764891e-01   1.314177506400000e+01 -5.05521137e+00  -4.21234213e+00   1.02804720e+00
C     6.290907753675000e+00   9.962348890800307e-01   3.581879464000000e+00  1.13788700e-01  -2.64535201e+00   3.32813560e-01
C     7.537499727300000e+00   1.670703468373540e+00   3.829132632000000e+00 -2.44703460e+00  -5.47581670e-01  -4.22723080e-01
C     1.180548337875000e+00   2.035398991574949e+00   1.341325037600000e+01  1.20687036e+00  -6.79085400e-02   1.82303970e-01
C     2.473178845350000e+00   2.696213949281252e+00   1.461974160000000e-01 -2.61207225e+00  -3.44667410e-01  -2.40376054e+00
C     2.632572672000000e+00   2.971463572527450e+00   3.855734096000000e+00 -2.22162064e+00   1.91361036e+00   3.42972500e-01
C     3.831199973100000e+00   3.686224860360042e+00   3.680002376000000e+00 -4.47822560e-01   1.88841108e+00  -1.90431573e+00
C     3.638126987025000e+00   2.072696108500017e+00   1.336255556000000e+01  3.14094908e+00  -4.02863738e+00   2.13524832e+00
C     4.896694608524999e+00   2.761775938058538e+00   1.314021596000000e+01 -3.79908150e-01  -8.73818330e-01  -1.08933500e+00
C     5.134401411224999e+00   3.076079750416273e+00   3.458184880000000e+00 -3.78495939e+00   1.29822314e+00   2.65168025e+00
C     6.264193944750000e+00   3.844932488858261e+00   3.666202456000000e+00  7.61408360e-01   3.81369760e-01   2.06616160e-01
C     6.163829411475000e+00   2.079842235590519e+00   1.286489307200000e+01 -1.77779920e+00  -2.45576876e+00   1.85859586e+00
C     7.418925856950000e+00   2.629827796559964e+00   1.291182000800000e+01  3.12457940e-01   5.33369073e+00   2.35569004e+00
C     7.410814762125000e+00   3.098977533968917e+00   3.978717672000000e+00  4.43976791e+00   2.63706330e-01  -1.85355332e+00
C     8.763504242774999e+00   3.757251346198951e+00   3.885931400000000e+00 -1.31917520e-01  -1.89967630e+00   7.10042720e-01
C     2.437320194550000e+00   4.067056615708086e+00   1.266081120000000e-01  7.02243790e-01   2.71341439e+00  -2.43148337e+00
C     3.672371457225000e+00   4.785597120146443e+00   1.350248963200000e+01  3.49456590e-01   3.19151840e+00  -1.12555395e+00
C     3.711125953050000e+00   5.123271414329469e+00   3.504661383999999e+00  2.63164463e+00   4.10535600e-01   8.78116610e-01
C     4.971561625500000e+00   5.870660730851718e+00   3.644063424000000e+00 -1.50202402e+00   2.66982676e+00   1.49382600e-02
C     4.897480918875000e+00   4.162964539929195e+00   1.303689036800000e+01 -8.96533980e-01  -6.19795610e-01   1.82129941e+00
C     6.184331901075000e+00   4.783478719731512e+00   1.283154070400000e+01 -2.68453024e+00   4.50418858e+00   2.89806060e+00
C     6.217995124274999e+00   5.334066344982375e+00   3.685045120000000e+00  1.76108573e+00  -6.09754359e+00  -5.94517270e-01
C     7.499166228825000e+00   5.848217457479397e+00   3.627392408000000e+00  1.65355565e+00   3.63082295e+00   1.70579489e+00
C     7.366241658450001e+00   4.098548657138536e+00   1.301831480800000e+01  2.92610044e+00  -9.59326500e-02  -3.81000200e-01
C     8.639044026374998e+00   4.790492791024941e+00   1.328484366400000e+01 -3.75725380e-01   6.72858720e-01   1.50684204e+00
C     8.790681829124999e+00   5.133901265568075e+00   3.768055576000000e+00 -3.74643589e+00   8.10641680e-01  -1.82499171e+00
C     9.916177941599999e+00   5.866273173791831e+00   3.474517800000000e+00  2.23454186e+00   2.51030875e+00   1.42728474e+00
C     7.442843579400000e+00   1.130957355083556e-01   6.454022935999999e+00 -2.10515088e+00   2.06630135e+00   1.73658349e+00
C     1.254429231600000e+00   7.790656724939089e-01   6.806689159999999e+00  1.83624002e+00   1.85792435e+00   1.57441815e+00
C     1.115673481875000e+00   5.202844062069654e-01   1.002166496800000e+01 -2.00017883e+00  -1.52020080e-01   1.59817388e+00
C     2.342179600200000e+00   1.285853681644132e+00   1.014823513600000e+01  3.69905800e-01  -4.57683279e+00  -6.52531730e-01
C     2.483546154675000e+00   4.883073703287780e-02   7.183570047999999e+00  2.89347680e-01   2.90829801e+00  -9.38734140e-01
C     3.733879554600000e+00   8.970486252603878e-01   7.421636144000000e+00 -1.82372445e+00  -8.44920370e-01  -2.80583211e+00
C     3.605352125175000e+00   5.587260920967727e-01   9.915090608000000e+00 -1.64380896e+00  -2.59814285e+00  -1.33370457e+00
C     4.786652423624999e+00   1.233406972538341e+00   9.839479504000000e+00  1.46211901e+00   8.50674560e-01   3.38133042e+00
C     4.822303348875000e+00   1.629109350594726e-01   6.829127664000000e+00  1.08709332e+00  -8.33765710e-01   1.59845474e+00
C     6.042549155999999e+00   7.783828505208756e-01   6.590603112000000e+00  4.61727514e+00   3.23497325e+00   6.27602750e-01
C     6.024515080425000e+00   4.828127092126339e-01   9.925448504000000e+00 -1.26330058e+00   1.69842124e+00  -3.98772830e-01
C     7.187161343475000e+00   1.174233295018984e+00   1.014797075200000e+01  4.44644784e+00   1.24914312e+00  -9.48767610e-01
C     8.683555566674999e+00   2.312154255844033e+00   6.999281207999999e+00  1.68784336e+00  -4.08232785e+00  -8.11332900e-01
C     2.493488066625000e+00   3.090614597885014e+00   7.128442583999999e+00  1.45357758e+00  -2.69724029e+00   1.76238173e+00
C     2.354576615175000e+00   2.618249346647134e+00   1.037709933600000e+01 -1.88602793e+00   2.83105189e+00  -1.01316340e+00
C     3.580000475250000e+00   3.301531977948204e+00   1.035545643200000e+01 -8.77611270e-01   2.78637838e+00  -1.34966220e-01
C     3.774404043675000e+00   2.389846869646837e+00   7.522767648000000e+00 -4.04274685e+00  -3.38619951e+00  -3.27274713e+00
C     4.945493695874999e+00   2.960025632032069e+00   7.195788560000000e+00  3.60064521e+00   2.35994847e+00  -2.06421492e+00
C     4.765320252000000e+00   2.596708048951817e+00   1.028221390400000e+01  3.23942035e+00   1.94822997e+00  -1.83538946e+00
C     6.069647911650000e+00   3.427783339952572e+00   1.016503970400000e+01 -1.42326754e+00  -2.46420144e+00  -1.26771011e+00
C     6.198201297524999e+00   2.214072534377504e+00   6.831467408000000e+00 -2.35625653e+00  -1.23273901e+00   1.12990449e+00
C     7.456006864274999e+00   2.871760357013348e+00   6.912241616000000e+00 -1.42496880e+00   2.95525243e+00   1.68960440e-01
C     7.266605939400000e+00   2.603930770966325e+00   1.013058750400000e+01 -1.80300208e+00   1.51690430e+00   4.05685380e-01
C     8.445312996224999e+00   3.352650187803517e+00   1.021558818400000e+01  2.93558211e+00  -7.05155120e-01  -1.84432015e+00
C     9.931858780275000e+00   4.454225832506650e+00   6.923962640000000e+00 -1.28896477e+00   1.51439805e+00  -1.54750118e+00
C     3.755688075150000e+00   5.168263375158484e+00   6.654657752000000e+00  1.26952756e+00  -3.74490173e+00   1.82177791e+00
C     3.568650185550000e+00   4.803196084788302e+00   1.025411317600000e+01 -3.88493700e-01  -1.46117621e+00  -8.98116400e-01
C     4.788068861925000e+00   5.479098193161192e+00   1.010892542400000e+01  2.28244881e+00   1.82322535e+00  -1.26969557e+00
C     4.980991137900000e+00   4.403464467899298e+00   6.920108399999999e+00  4.95463190e-01   8.02479300e-02   4.02076490e-01
C     6.294636053850000e+00   5.045376169807974e+00   7.069583824000000e+00 -3.51770458e+00   4.63449860e-01  -1.22299249e+00
C     6.084302139449999e+00   4.828497130145489e+00   9.877915688000000e+00 -5.49676320e-01  -2.00570215e+00   1.56805852e+00
C     7.374244564424999e+00   5.439888252498500e+00   9.595862704000000e+00 -5.04485765e+00   3.64468422e+00   2.81572793e+00
C     7.483890525225000e+00   4.315259072691568e+00   7.041620999999999e+00  1.42073800e-01   5.28570650e-01  -8.20147530e-01
C     8.648258159399999e+00   5.120924638079250e+00   6.857057576000000e+00 -6.10232760e-01  -9.90549060e-01   4.22303120e-01
C     8.501222339100000e+00   4.703959931799929e+00   9.703009216000000e+00  3.09297391e+00   4.31085720e-01   3.22357796e+00
C     9.748103937899998e+00   5.534878830823743e+00   9.933442992000000e+00 -4.29817630e-01  -4.90965108e+00   2.68099080e-01
