72
Lattice="7.395 0 0 3.6975 6.40425786098592 0 0 0 13.6 " PBC="1 1 1" Properties=species:S:1:pos:R:3:force:R:3 Energy="-573.70717481"
C     3.719173598774999e+00   6.146307610212970e+00   2.320599280000000e-01 -1.13649020e-01  -6.72598450e-01   1.00267720e+00
C     1.210461926325000e+00   5.400940566195175e-01   2.191416960000000e-01  5.70787590e-01  -3.36960641e+00  -2.74764020e-01
C     1.497935045400000e+00   1.153530827018170e+00   3.352770192000000e+00  6.61423550e-01  -1.72098715e+00  -2.47769670e-01
C     2.706443582475000e+00   1.889668951204234e+00   3.191922720000000e+00 -1.28535563e+00   4.18267280e-01   6.13874370e-01
C     6.102493691550000e+00   6.174452978613520e+00   3.075074240000000e-01  3.02203856e+00  -6.59171030e-01  -3.56746940e-01
C     3.733514019750000e+00   4.860608847566472e-01   2.223039680000000e-01 -3.61122555e+00  -3.34683100e-01   4.24689940e-01
C     3.836751214725000e+00   1.071122694110469e+00   3.290149400000000e+00  1.99473868e+00   3.08112587e+00   7.75203500e-02
C     5.064976115925000e+00   1.766878834402883e+00   3.372321416000000e+00  2.98554899e+00   1.47400354e+00   5.26987560e-01
C     8.595046253700000e+00   6.141593243874489e+00   3.773166320000000e-01  1.08609030e+00   3.46021720e-01   2.67641300e-01
C     6.204607216275000e+00   4.159564839644214e-01   4.413485599999999e-01 -2.71437877e+00   6.31001380e-01  -2.34252145e+00
C     6.370977448950000e+00   1.167162161788022e+00   3.527181080000000e+00  1.85380110e+00  -3.57393227e+00  -5.48957540e-01
C     7.691342977874999e+00   1.836684988906568e+00   3.395177032000000e+00 -4.11867831e+00  -2.04153109e+00   2.48463630e-01
C     1.191251528100000e+00   1.919958977476940e+00   1.276267520000000e-01  4.74710270e-01  -3.95765210e-01   3.18414930e-01
C     2.438549872125000e+00   2.627234648509872e+00   1.267311920000000e-01 -7.92278270e-01   3.99170170e-01  -1.51611900e-02
C     2.697591175875000e+00   3.386088227027306e+00   3.200232592000000e+00 -1.39102866e+00  -3.17832607e+00   8.36214880e-01
C     3.946229567850000e+00   4.038028164191221e+00   3.395917280000000e+00  2.81682240e-01  -5.93762954e+00  -7.12034210e-01
C     3.685028258550000e+00   1.919286658486798e+00   1.402891680000000e-01 -3.71360150e-01  -1.14027072e+00   4.20473420e-01
C     4.921818825224999e+00   2.575198132120013e+00   2.830262000000000e-01 -1.29878282e+00  -9.63489590e-01  -4.43145610e-01
C     5.153436547949999e+00   3.187082382328244e+00   3.418671576000000e+00 -6.29691480e-01   1.44509278e+00   1.19680370e-01
C     6.445466655374999e+00   3.842900866137333e+00   3.493705632000000e+00 -5.20509673e+00   3.34667639e+00  -4.92483460e-01
C     6.120641428274999e+00   1.877333966310403e+00   2.727938320000000e-01  3.62193440e-01  -3.62151339e+00   8.24031310e-01
C     7.314925017299999e+00   2.516604488235037e+00   2.010565520000000e-01  2.39571362e+00   3.73334110e+00   5.16563320e-01
C     7.583645044950000e+00   3.187797353675735e+00   3.347345424000000e+00  4.44231515e+00   1.49292756e+00  -3.15607040e-01
C     8.759742258374999e+00   4.003634545652141e+00   3.274930592000000e+00  3.94266631e+00  -1.14152900e-02   1.03279103e+00
C     2.369372642100000e+00   4.053289510671601e+00   2.017073120000000e-01  2.32141229e+00  -5.56187660e-01   3.48709780e-01
C     3.722794153800000e+00   4.675375295352763e+00   2.084560400000000e-01 -2.92833382e+00   1.92394532e+00   4.89829840e-01
C     3.954200823225000e+00   5.346372254545522e+00   3.530340768000000e+00  3.05644865e+00   4.99119955e+00  -2.58338300e-02
C     5.203367809800000e+00   6.103222517161770e+00   3.456572056000000e+00  1.07478642e+00  -1.21757801e+00  -2.90695000e-03
C     4.902546789675000e+00   3.933109961501721e+00   3.470167840000000e-01  1.30570669e+00   3.47453745e+00  -5.74103580e-01
C     6.158240381399999e+00   4.684022708570805e+00   4.362174160000000e-01 -2.66011141e+00   1.81861597e+00  -8.85588640e-01
C     6.457525681875000e+00   5.309879640492828e+00   3.442720320000000e+00 -1.58214796e+00   1.62057696e+00  -1.24302080e-01
C     7.651956875100000e+00   6.131213222735000e+00   3.381842504000000e+00 -1.32274732e+00  -3.87614934e+00   9.15206570e-01
C     7.346842244025000e+00   3.959271611030136e+00   3.839930080000000e-01 -1.09931108e+00   1.18378570e-01  -6.83955920e-01
C     8.492670835049999e+00   4.727362498957098e+00   4.033086800000000e-01  3.93856651e+00  -2.81304950e-01  -1.28011978e+00
C     8.881850162250000e+00   5.413157584659225e+00   3.530491320000000e+00  8.03556000e-02  -3.40550090e-01  -1.20057799e+00
C     1.019042835697500e+01   6.049248904896999e+00   3.610647816000000e+00 -4.94977330e+00   3.54055525e+00  -9.60646790e-01
C     7.390152688424999e+00   1.845116002251522e-01   6.330417024000000e+00 -2.27470463e+00   2.91352257e+00   1.46169086e+00
C     1.186710961125000e+00   9.679352421076338e-01   6.375348840000000e+00 -6.98906160e-01   3.74020070e-01   1.34262710e-01
C     1.102936481775000e+00   3.267062340868326e-01   1.040789272800000e+01 -1.14428926e+00  -9.17358940e-01  -1.06452199e+00
C     2.349541692450000e+00   1.012039764924989e+00   1.003819236800000e+01 -3.15060202e+00   1.38971030e-01   1.13302352e+00
C     2.419261234800000e+00   2.583171497198292e-01   6.553995584000000e+00 -2.61192220e-01   4.80086340e-01   9.93109200e-02
C     3.742141840200000e+00   8.754694784011176e-01   6.556395984000000e+00 -1.59189842e+00   1.93771763e+00   1.51966800e-01
C     3.540519198825000e+00   3.317018113879470e-01   9.962108391999999e+00 -1.44735495e+00  -3.64362813e+00   4.49820100e-01
C     4.692372533325001e+00   9.644844998875086e-01   1.012010843200000e+01  6.54842249e+00   3.95641785e+00   1.72804458e+00
C     5.024917548825000e+00   2.642279595117162e-01   6.636969320000000e+00 -3.83155531e+00  -1.48321146e+00  -6.19998570e-01
C     6.142510698749999e+00   1.037657821046246e+00   6.496289832000000e+00  3.53435361e+00  -2.78591754e+00  -7.24883130e-01
C     6.068136706424999e+00   3.512778344737662e-01   1.038539030400000e+01 -3.21592353e+00   7.87747110e-01  -1.14069765e+00
C     7.242519315149999e+00   1.101410286765188e+00   1.051479484800000e+01  2.40439253e+00  -1.79702509e+00  -8.62218060e-01
C     8.483207120774999e+00   2.462290169452113e+00   6.309257464000000e+00  2.96561509e+00  -4.21697764e+00   4.04251300e-01
C     2.373985199400000e+00   2.997021812880296e+00   6.398810743999999e+00  1.75005529e+00   1.17372198e+00  -2.07442200e-01
C     2.361406045575000e+00   2.402195175397017e+00   1.003745076000000e+01 -1.94643417e+00   2.55892561e+00   1.10060210e+00
C     3.586012758150000e+00   3.150619355946863e+00   1.017472426400000e+01 -2.69756427e+00   4.13375380e-01   2.62527700e-02
C     3.679644624600000e+00   2.310741924858167e+00   6.473645832000000e+00 -1.43245819e+00  -1.98376440e-01   5.67075160e-01
C     4.855842853724999e+00   3.076557123797157e+00   6.587337480000000e+00  1.28586424e+00   6.06967940e-01  -6.55582620e-01
C     4.758893701200000e+00   2.425993973987985e+00   1.028756006400000e+01  1.61941188e+00  -4.79881290e-01  -4.85465030e-01
C     6.055477464750000e+00   3.164200865590565e+00   1.039258919200000e+01 -3.01486842e+00  -1.20013218e+00  -5.89388600e-02
C     6.155856048524999e+00   2.415691124155710e+00   6.446683016000000e+00 -2.23696881e+00   1.57439033e+00   5.19659960e-01
C     7.330054004100000e+00   3.187460361627142e+00   6.288296056000000e+00 -1.42022672e+00   1.74961910e+00   1.45895456e+00
C     7.273333577624999e+00   2.511944045747737e+00   1.042129716000000e+01 -4.92920920e-01  -1.53714887e+00  -4.02222850e-01
C     8.448341840325000e+00   3.167981234962745e+00   1.020260766400000e+01  4.07729019e+00   1.62625757e+00  -5.58807800e-02
C     9.795655082025000e+00   4.391220487509656e+00   6.368791872000000e+00 -1.73879338e+00   2.80033063e+00   1.04752618e+00
C     3.555778152749999e+00   5.182782468152890e+00   6.432587024000000e+00  2.95724770e+00  -2.35650650e-01   4.85748360e-01
C     3.472527609150000e+00   4.605305285425245e+00   1.033841155200000e+01  3.19310258e+00  -3.09615202e+00  -3.34937780e-01
C     4.693647135525000e+00   5.215839902332060e+00   1.039735599200000e+01  3.54279064e+00   3.97577137e+00  -2.57045880e-01
C     4.821218169600000e+00   4.526138667633383e+00   6.618301824000000e+00 -1.84562834e+00  -1.83392852e+00  -4.94398750e-01
C     5.973712687575000e+00   5.258871904085600e+00   6.683893128000000e+00  4.51044174e+00   1.04480692e+00  -1.17994498e+00
C     5.974186744050000e+00   4.528166768012488e+00   1.031200429600000e+01  6.54184990e-01   2.75299844e+00  -6.63181560e-01
C     7.220715231600000e+00   5.303276402341117e+00   1.007957716800000e+01 -2.37993110e-01  -9.49108880e-01   1.15951810e+00
C     7.299347117025000e+00   4.671760796259157e+00   6.474142776000000e+00 -5.73250530e-01  -3.98276855e+00   4.73112980e-01
C     8.586708391200000e+00   5.229131235052124e+00   6.513004912000000e+00  1.07586146e+00   9.47891500e-02  -2.81350280e-01
C     8.478339140175001e+00   4.649737193904403e+00   1.019353496800000e+01  4.19516400e-02  -1.18536179e+00  -7.41671630e-01
C     9.778042225650001e+00   5.382169174066886e+00   1.024539095200000e+01 -4.72755704e+00  -1.36537059e+00   3.50039160e-01
