72
Lattice="7.395 0 0 3.6975 6.40425786098592 0 0 0 13.6 " PBC="1 1 1" Properties=species:S:1:pos:R:3:force:R:3 Energy="-570.7057841"
C     3.603365162625000e+00   6.214903488066273e+00   4.010440080000000e-01 -2.69636900e-01  -3.29615440e+00  -1.65620658e+00
C     1.091054898300000e+00   4.808420550265333e-01   4.210336960000000e-01  4.19458278e+00  -2.78850669e+00  -5.61907950e-01
C     1.497178093200000e+00   1.150170000578399e+00   3.413176360000000e+00 -1.51163232e+00  -1.84525567e+00  -6.25170470e-01
C     2.758871322375000e+00   1.770815915964896e+00   3.652662704000000e+00 -1.47565229e+00   1.94782788e+00  -1.49458510e+00
C     6.061557855600000e+00   6.091060703400474e+00   2.424669200000000e-01  1.22166085e+00   1.43441005e+00   4.12938310e-01
C     3.628603669050000e+00   4.038163806372697e-01   4.294812000000000e-01  1.72055505e+00   5.26816270e-01  -3.10307527e+00
C     3.971387579700000e+00   1.101250564574160e+00   3.433258936000000e+00  2.17608713e+00   1.99401799e+00  -2.97232480e-01
C     5.189832038775000e+00   1.902621306555770e+00   3.303114960000000e+00  1.66709182e+00  -1.18485246e+00  -1.81644008e+00
C     8.663472447524999e+00   6.130280314492534e+00   1.397466640000000e-01 -3.63030041e+00   1.37426676e+00   5.70417900e-01
C     6.141842338650000e+00   5.469164484751968e-01   1.236759520000000e-01 -1.36358000e+00  -3.42655772e+00   7.57136050e-01
C     6.483859055025000e+00   1.203613340292363e+00   3.038983240000000e+00 -3.98335367e+00  -2.57491775e+00   1.00027579e+00
C     7.660024672200000e+00   1.897110122454347e+00   3.289810488000000e+00  1.41801065e+00  -1.56100261e+00   9.11578880e-01
C     1.188926170350000e+00   1.851246926386057e+00   5.438646800000000e-01 -7.53755990e-01   1.30995834e+00  -2.10200920e+00
C     2.435574087150000e+00   2.528301480960856e+00   6.522682399999999e-01 -3.49325570e-01   1.59428640e+00  -1.25275194e+00
C     2.724319442025000e+00   3.250813393783356e+00   3.595697879999999e+00  1.89822889e+00  -1.52600512e+00  -7.09181320e-01
C     4.011763983900000e+00   3.934599399752222e+00   3.320739336000000e+00 -4.19813700e+00   1.62958800e+00  -9.65666750e-01
C     3.688456210799999e+00   1.904118942256331e+00   3.986812800000000e-01 -2.32020609e+00  -3.02245148e+00   1.84849280e+00
C     4.872473543174999e+00   2.605355654297596e+00   2.372564880000000e-01  1.82849232e+00  -9.57619730e-01  -1.81549911e+00
C     5.220377160225000e+00   3.343291645792699e+00   3.091265448000000e+00  1.16902809e+00  -3.19896140e+00   2.74898830e+00
C     6.478823540699999e+00   4.021349683531581e+00   3.197035504000000e+00 -4.94735120e-01   7.88503610e-01   1.30579592e+00
C     6.102789195750001e+00   1.907543555104387e+00   2.477444000000000e-02  1.55393072e+00   1.05165838e+00   7.40855840e-01
C     7.404464786549999e+00   2.574592609539351e+00   9.970010400000000e-02 -9.93656180e-01  -3.89812200e-02   2.02962313e+00
C     7.655507954100000e+00   3.261881296259586e+00   3.581350424000000e+00 -1.55333582e+00   1.15055941e+00  -2.78887982e+00
C     8.873568168975000e+00   3.922712520780854e+00   3.530439504000000e+00  2.06201565e+00   2.53380825e+00  -3.54404240e-01
C     2.361511646175000e+00   3.971146385954148e+00   6.163559439999999e-01  2.58582705e+00   2.25547750e-01  -2.60418385e+00
C     3.624820091250000e+00   4.673697123623128e+00   5.180104000000000e-01  1.67616395e+00   1.90099105e+00  -2.43973156e+00
C     3.896466690150000e+00   5.316038295063897e+00   2.981930016000000e+00  3.57768490e-01   1.90026668e+00   1.77895174e+00
C     5.065594485825000e+00   6.106394353952092e+00   3.170914800000000e+00  4.72440932e+00   9.13389270e-01   8.23405540e-01
C     4.955491477050000e+00   3.967562114957642e+00   9.059014400000000e-02 -3.98972358e+00   2.70854962e+00   1.98267735e+00
C     6.168606174750000e+00   4.682522831379994e+00   1.348694129600000e+01 -1.26310847e+00   1.22437533e+00   2.67603397e+00
C     6.446996200199999e+00   5.471514591216274e+00   3.315666536000000e+00 -1.85099148e+00  -2.11850027e+00  -1.15334085e+00
C     7.725484657575000e+00   6.116319032357735e+00   3.300033880000000e+00 -3.17787933e+00   2.51701180e-01   9.15079680e-01
C     7.396240807049999e+00   3.983560591517707e+00   1.268306080000000e-01  1.85913370e-01   1.18475344e+00  -2.28003960e+00
C     8.635622138024999e+00   4.709864721589428e+00   1.025479440000000e-01 -3.22676220e-01  -4.74092440e-01   3.08476741e+00
C     8.891621915250001e+00   5.380517515964792e+00   3.246517608000000e+00  6.57455910e-01  -1.34529093e+00  -2.66650630e-01
C     1.006027062585000e+01   6.070500217796415e+00   2.905189160000000e+00  2.13383895e+00   1.62709409e+00   2.54210538e+00
C     7.251245784900000e+00   3.400496974658784e-01   6.327344375999999e+00  4.53558095e+00  -3.85056768e+00   4.22884780e-01
C     1.158103995225000e+00   9.919854078196063e-01   6.429017160000000e+00  2.83374040e-01  -1.09973352e+00  -3.15553520e-01
C     1.097948369400000e+00   2.879725780811880e-01   1.030113408800000e+01  1.23751954e+00   9.83687510e-01   1.62884723e+00
C     2.368762517625000e+00   1.022326347942299e+00   1.067627322400000e+01 -3.15821244e+00  -3.97545470e-01  -3.00870730e-01
C     2.415682202700000e+00   2.243245017653640e-01   6.307167280000000e+00 -2.15800080e+00   8.62374560e-01   9.34137660e-01
C     3.561133205025000e+00   1.017665969497578e+00   6.384987840000000e+00  2.51932780e-01   8.05614630e-01  -4.11624140e-01
C     3.548929051650000e+00   2.729159116820136e-01   1.072684740800000e+01  1.17684117e+00   2.43796394e+00  -2.21552135e+00
C     4.804482101400000e+00   9.755037300040033e-01   1.043718712800000e+01 -1.98462301e+00   1.47883968e+00   1.86408109e+00
C     4.722106719075001e+00   2.962192768849314e-01   6.142081367999999e+00  4.06131014e+00  -1.41489700e+00   2.17211835e+00
C     6.036131627100000e+00   9.230291623765213e-01   6.305362832000000e+00 -2.70640323e+00   2.32035851e+00  -3.73671790e-01
C     5.935955592375000e+00   2.590969961994414e-01   1.024011401600000e+01  4.68493297e+00  -7.71281470e-01   3.10607550e-01
C     7.248472733849999e+00   9.903663473900196e-01   1.022040884000000e+01 -2.11932888e+00  -9.67271100e-01  -2.25009090e-01
C     8.624919021749999e+00   2.379738709253506e+00   6.553407111999999e+00 -3.11870166e+00   1.86836359e+00  -3.62720890e-01
C     2.394218289150000e+00   3.193467171244350e+00   6.473049608000000e+00 -2.47708800e-01  -6.57976580e-01   1.43758672e+00
C     2.303352707325000e+00   2.469426690155825e+00   1.084243190400000e+01 -3.48192100e-02  -2.29288838e+00  -2.09649931e+00
C     3.521820608550000e+00   3.188206841923303e+00   1.066355586400000e+01  2.55885563e+00  -2.69940561e+00   3.35232490e-01
C     3.586498239900000e+00   2.475177265416055e+00   6.509330328000000e+00  2.47760021e+00  -9.35922120e-01  -1.08708755e+00
C     4.909571669925000e+00   3.142990027600824e+00   6.380353776000000e+00 -3.63395876e+00  -8.44407690e-01   1.10013480e-01
C     4.843519234124999e+00   2.411944761392767e+00   1.054964552800000e+01 -3.18677984e+00   8.11455500e-01  -9.59007350e-01
C     6.012382732500000e+00   3.140152749241108e+00   1.029969412000000e+01 -9.15335750e-01   7.65021140e-01   2.33963070e-01
C     6.053276306024999e+00   2.343125503025307e+00   6.388566816000000e+00  1.34639923e+00   1.59131233e+00   6.96076860e-01
C     7.286872417574999e+00   3.088696650741102e+00   6.547159000000000e+00  2.22061496e+00  -3.85871557e+00  -7.58166790e-01
C     7.166122272675000e+00   2.394145919863098e+00   1.022582844000000e+01  4.39739413e+00  -5.90803950e-01   1.64037711e+00
C     8.443138052775000e+00   3.038548237653529e+00   1.056057992800000e+01 -4.48637710e-01   3.64545941e+00  -1.41751860e+00
C     9.790624041675001e+00   4.624875352551254e+00   6.483393632000000e+00  1.48985430e+00  -8.10287920e-01  -1.40402354e+00
C     3.713490541275000e+00   5.259284082121470e+00   6.345661536000000e+00 -5.26712765e+00   2.94972583e+00   1.56271710e-01
C     3.578601858900000e+00   4.537817984607508e+00   1.043906651200000e+01 -6.45220810e-01   1.54998858e+00  -6.41441000e-02
C     4.803429164325000e+00   5.255980509746967e+00   1.032372491200000e+01  1.56304540e-01   7.49987140e-01  -4.09303700e-02
C     4.874827445625000e+00   4.575875479068293e+00   6.252237151999999e+00  2.59304895e+00  -2.42018002e+00   1.01364071e+00
C     6.148109638125000e+00   5.192728600822363e+00   6.256051407999999e+00 -8.04645160e-01   1.52885914e+00   8.97795400e-02
C     6.040095864750000e+00   4.583973214834214e+00   1.032196072000000e+01 -4.74120200e-01  -4.11832000e-02   3.06113870e-01
C     7.230346627499999e+00   5.358210333071996e+00   1.040899813600000e+01  1.73022210e+00  -5.15642745e+00   6.78741600e-02
C     7.334802888225000e+00   4.426819195250252e+00   6.380644136000000e+00  5.34730310e-01   4.50960996e+00  -3.17429380e-01
C     8.554322173574999e+00   5.268915061261652e+00   6.279616944000000e+00 -1.66804602e+00  -5.47841700e-01   8.49747600e-01
C     8.510692967699999e+00   4.518380805832094e+00   1.039691154400000e+01 -1.92662903e+00   2.14105490e-01   8.87400180e-01
C     9.726691123799998e+00   5.230242501875992e+00   1.039714872800000e+01 -9.85383880e-01   3.82187730e-01  -6.14058410e-01
