72
Lattice="7.395 0 0 3.6975 6.40425786098592 0 0 0 13.6 " PBC="1 1 1" Properties=species:S:1:pos:R:3:force:R:3 Energy="-573.54931343"
C     3.671576309850000e+00   6.314137015308924e+00   1.312361906400000e+01  1.84078850e+00  -2.34342031e+00   8.82448050e-01
C     1.318442089425000e+00   5.809616753866926e-01   1.315589662400000e+01 -3.32541241e+00   1.87516893e+00   6.37291000e-01
C     1.336053540750000e+00   9.119893745922960e-01   3.750382512000000e+00  5.18613200e-02  -1.05597021e+00  -2.52292710e-01
C     2.491861462425000e+00   1.691726917778298e+00   3.702073544000000e+00  2.84050175e+00  -4.24502682e+00  -9.83483100e-02
C     6.286926951224999e+00   6.298271555184609e+00   1.323901479200000e+01 -7.49757278e+00   1.14393300e+00  -6.68895150e-01
C     3.693407163300000e+00   6.015650054758344e-01   1.312873429600000e+01  2.81816230e-01   3.24157283e+00   1.91629010e+00
C     3.767844382875000e+00   9.369778281233371e-01   3.660639919999999e+00 -2.01677449e+00  -3.13060580e+00   4.03963780e-01
C     5.036682143399999e+00   1.535276854218307e+00   3.618596472000000e+00 -2.71107209e+00   4.05092210e-01   1.07958598e+00
C     8.522267547749999e+00   6.311086283034734e+00   1.328502862400000e+01  4.64361337e+00  -6.78625500e-01  -4.42863410e-01
C     6.087727614375000e+00   4.962250183636746e-01   1.319842015200000e+01  2.79283947e+00   3.62842680e+00  -1.66265000e-02
C     6.201185660699999e+00   8.077736549474592e-01   3.724899511999999e+00  2.76742436e+00   2.60501829e+00   1.76351630e-01
C     7.454627992575000e+00   1.521445642560644e+00   3.744488408000000e+00  4.08697770e-01   1.53461583e+00  -4.63474340e-01
C     1.214545630200000e+00   2.030850111259570e+00   1.318899494400000e+01  1.05123390e+00   2.98845280e-01  -3.30997220e-01
C     2.483123715300000e+00   2.792813213138349e+00   1.320824057600000e+01 -2.26815592e+00  -1.07416018e+00   9.75149500e-01
C     2.516692282500000e+00   3.034056483318261e+00   3.691337976000000e+00  6.69282830e-01   3.64717474e+00  -3.22158400e-01
C     3.710032824150000e+00   3.759452297497698e+00   3.644590152000000e+00  4.48525633e+00  -2.49725250e-01   1.35487866e+00
C     3.668237800125000e+00   2.012644535313212e+00   1.331264056800000e+01  1.25658978e+00   1.79374038e+00  -2.61719828e+00
C     4.935827358600000e+00   2.677799786656395e+00   1.308588083200000e+01 -5.36285090e-01   2.12969798e+00   2.19791082e+00
C     4.969628720399999e+00   2.906735225995801e+00   3.788093544000000e+00  8.37055350e-01   4.44511966e+00  -1.92871844e+00
C     6.235459563000001e+00   3.624019150999447e+00   3.752889807999999e+00 -6.17301680e-01   1.58147690e+00  -4.05367290e-01
C     6.163108288049999e+00   1.925277329374199e+00   1.312342281600000e+01 -1.51520523e+00   1.70386295e+00  -8.50742600e-02
C     7.331151939750000e+00   2.709428366864419e+00   1.308087059200000e+01  1.74767867e+00   1.49957634e+00   5.13957110e-01
C     7.495377252675000e+00   2.968195415698914e+00   3.677161608000000e+00 -2.04807230e-01   9.50317490e-01   7.85185550e-01
C     8.764084084724999e+00   3.799243936901814e+00   3.711800808000000e+00 -3.90302982e+00  -2.65923718e+00  -5.50763590e-01
C     2.444591993850000e+00   4.228437765692541e+00   1.323103404000000e+01 -1.15905849e+00  -1.89515739e+00   2.08148500e-01
C     3.668570612100000e+00   4.846472857277251e+00   1.314136380000000e+01  1.42852909e+00   2.57832855e+00   7.21331000e-01
C     3.842336880075000e+00   5.241469101861994e+00   3.727973111999999e+00 -6.24201300e-01  -3.41808025e+00  -1.17530500e-02
C     5.160414248099999e+00   5.894184082312126e+00   3.715927728000000e+00 -6.25120907e+00   4.55093260e-01   1.00339440e-01
C     4.914162670800000e+00   4.183349997165940e+00   1.317297931200000e+01  1.17383780e-01  -1.98719995e+00  -5.29454430e-01
C     6.133060184550000e+00   4.952560669579723e+00   1.318910809600000e+01 -3.64499470e-01  -3.20563811e+00  -2.86428330e-01
C     6.246313389375000e+00   5.107345241840642e+00   3.699991519999999e+00  2.42503905e+00  -2.28198674e+00   5.94911960e-01
C     7.441338733874999e+00   5.824499160409730e+00   3.767752024000000e+00  2.22973109e+00   2.89427507e+00  -1.40836618e+00
C     7.312064890124999e+00   4.273756663885309e+00   1.308290324800000e+01  3.09617884e+00  -4.97167800e+00   1.72921654e+00
C     8.589104666999999e+00   4.954185942139435e+00   1.331233293600000e+01 -1.56522141e+00  -3.80211711e+00  -1.55145232e+00
C     8.743890890999999e+00   5.190932782875841e+00   3.709628072000000e+00 -2.25648407e+00  -1.40474156e+00   9.13976740e-01
C     9.945227794049998e+00   5.857559412462358e+00   3.830851264000000e+00  1.85575354e+00  -1.30368600e-01  -1.45661228e+00
C     1.213269179250000e-01   8.273718367654741e-02   6.754774287999999e+00 -5.78928712e+00   3.38451700e-01   3.06127270e-01
C     1.240512729000000e+00   8.021877331568100e-01   6.874557648000000e+00  2.08967125e+00   2.93460608e+00   1.54305780e-01
C     1.158728761800000e+00   5.119912124911584e-01   1.027949893600000e+01 -2.40821617e+00   1.51460923e+00  -1.16514708e+00
C     2.315432365875000e+00   1.245902320048987e+00   1.013439808800000e+01  3.40085501e+00   1.33832930e-01  -3.58203050e-01
C     2.470678410975000e+00   1.541844932994366e-01   6.960110080000000e+00  2.52903799e+00  -5.06639490e-01  -1.70043330e-01
C     3.809063521275000e+00   7.617680922269419e-01   6.970131919999999e+00 -1.34637842e+00  -4.32473300e-01   4.04244100e-01
C     3.585459870975000e+00   5.494887186446659e-01   9.958680919999999e+00  2.67993280e-01  -1.26822106e+00   2.96031328e+00
C     4.839682375349999e+00   1.277811214623544e+00   1.023043489600000e+01 -1.32880288e+00  -1.69910010e+00  -2.29695147e+00
C     5.075959650600000e+00   1.029403757345964e-01   7.011812384000000e+00 -2.01578125e+00  -6.89854940e-01  -1.47922823e+00
C     6.254350201425000e+00   8.740962133881979e-01   6.836249440000000e+00  1.01416797e+00  -8.09528240e-01   5.77009010e-01
C     6.112618481850000e+00   5.742011486619408e-01   1.014742036000000e+01 -1.85498240e+00  -2.78656000e-02   6.23380660e-01
C     7.316390299575000e+00   1.292930322536853e+00   1.026011567200000e+01  1.58280369e+00  -5.98748500e-01  -1.77038150e-01
C     8.600744360024999e+00   2.264026386111290e+00   6.901186448000000e+00  1.66499821e+00  -1.99383952e+00   4.41588090e-01
C     2.490372405225000e+00   2.838171433474377e+00   7.054077784000000e+00  4.91655960e-01   1.86367009e+00  -2.12455711e+00
C     2.391765256725000e+00   2.656394771568338e+00   1.017840605600000e+01 -1.23082598e+00   1.98022286e+00   1.52219750e-01
C     3.622578444900000e+00   3.360158219505688e+00   1.029645596000000e+01 -3.01994495e+00   2.40843696e+00  -1.38675475e+00
C     3.785005774500000e+00   2.134438725974756e+00   6.982049463999999e+00 -4.01031499e+00   1.17781237e+00   5.71483450e-01
C     4.884003124650000e+00   2.899743313434568e+00   7.005657296000001e+00  5.41163783e+00   3.27827598e+00  -3.58697150e-01
C     4.768712708250000e+00   2.690441023161092e+00   1.024583499200000e+01  5.32299133e+00  -1.70338121e+00   4.40555730e-01
C     6.046367601224999e+00   3.407628564083944e+00   1.023296041600000e+01  3.38138950e-01  -1.97192033e+00   2.05717900e-01
C     6.227470707525000e+00   2.327582113028773e+00   6.902259623999999e+00 -2.64407157e+00  -3.52140128e+00  -1.69561790e-01
C     7.421188320224999e+00   3.002827464758121e+00   6.823876840000000e+00 -4.11730690e-01   2.16990868e+00   7.26088630e-01
C     7.371686264175000e+00   2.737253010031340e+00   1.026420954400000e+01 -2.75906161e+00  -9.56553400e-01  -9.72173500e-01
C     8.575559097599999e+00   3.464792777614569e+00   1.014000876800000e+01 -5.43928640e-01  -2.97429239e+00   1.01785232e+00
C     2.478116449875000e+00   4.255562039219892e+00   6.821102712000000e+00 -5.77290320e-01   2.57430646e+00   1.26110741e+00
C     3.675776965650000e+00   5.084297918866967e+00   6.774579967999999e+00  2.08396974e+00  -2.79348646e+00   1.27597361e+00
C     3.648078993150000e+00   4.815579742041868e+00   1.022359001600000e+01 -3.60081639e+00  -3.09719240e-01  -3.32436840e-01
C     4.851977339325000e+00   5.513639686014260e+00   1.021923271200000e+01 -2.04695329e+00   8.09799740e-01   1.97482220e-01
C     4.927302698400000e+00   4.349567770771424e+00   6.994038136000000e+00 -1.05643477e+00   1.53165727e+00  -1.16238313e+00
C     6.166742930549999e+00   5.176001511845564e+00   6.958344936000000e+00 -1.91623175e+00  -3.24561565e+00   2.05306770e-01
C     6.000647643975000e+00   4.783175670249578e+00   1.021748048800000e+01  2.61939880e+00  -3.70281830e-01  -6.23716070e-01
C     7.241531269199999e+00   5.425495899767144e+00   1.010504371200000e+01 -1.69575531e+00   5.99520081e+00  -5.44769510e-01
C     7.363692638925000e+00   4.462983398959886e+00   6.900473807999999e+00  2.07807316e+00  -1.70255260e+00   9.21003100e-02
C     8.630232144375000e+00   5.069701270309877e+00   6.910975320000000e+00  2.36061238e+00  -2.25902950e-01  -1.77775100e-01
C     8.429417295825001e+00   4.843801833451581e+00   1.014414303200000e+01  6.44340536e+00  -5.04303880e-01  -5.23080290e-01
C     9.751376669099999e+00   5.552814979641930e+00   1.010626431200000e+01  5.74920670e-01  -4.09001880e-01   6.36806700e-01
