72
Lattice="7.395 0 0 3.6975 6.40425786098592 0 0 0 13.6 " PBC="1 1 1" Properties=species:S:1:pos:R:3:force:R:3 Energy="-574.14390028"
C     3.669308337300000e+00   6.321293261126844e+00   1.312489107200000e+01  2.10564905e+00  -2.75141034e+00   7.32421110e-01
C     1.308656507775000e+00   5.816783118412266e-01   1.314727844000000e+01 -3.10140965e+00   1.86482062e+00   6.76903750e-01
C     1.335381039450000e+00   9.078472286936053e-01   3.739665848000000e+00  1.30802040e-01  -8.94860280e-01  -1.82397460e-01
C     2.489579624250000e+00   1.683496357704361e+00   3.692178184000000e+00  3.10869460e+00  -3.57155481e+00  -1.24562080e-01
C     6.276218732400000e+00   6.305095996402804e+00   1.323680506400000e+01 -7.10206310e+00   3.89500480e-01  -7.21221800e-01
C     3.687554575425000e+00   5.998031300959699e-01   1.312476173600000e+01  7.90960290e-01   3.37008409e+00   1.99628180e+00
C     3.767336568225000e+00   9.383811291056202e-01   3.658000704000000e+00 -2.25584990e+00  -3.44616155e+00   4.71326070e-01
C     5.030597315549999e+00   1.537557026186782e+00   3.631796904000000e+00 -2.36259412e+00   2.87286850e-01   8.58714570e-01
C     8.528444997974999e+00   6.305728673036794e+00   1.328486392800000e+01  4.25315694e+00   1.42415990e-01  -5.92459390e-01
C     6.099235380599999e+00   5.097736741645549e-01   1.319703349600000e+01  1.91371604e+00   2.83879803e+00   1.23744070e-01
C     6.199072576424999e+00   8.201188226112883e-01   3.727926872000000e+00  3.10371312e+00   1.22680953e+00   2.84802890e-01
C     7.462897451324999e+00   1.527353058095865e+00   3.736541112000000e+00 -4.24917330e-01   9.38094100e-01  -4.07455460e-01
C     1.213938500700000e+00   2.030365437024725e+00   1.317738720800000e+01  1.20657236e+00   2.66316620e-01  -2.23594840e-01
C     2.488454918700000e+00   2.786587377902328e+00   1.319113980000000e+01 -2.81108665e+00  -4.24628450e-01   9.65951970e-01
C     2.523666174225000e+00   3.038025265956681e+00   3.681812808000000e+00  2.93019200e-02   3.06189911e+00  -2.25001610e-01
C     3.708780406950000e+00   3.763794768582248e+00   3.656348168000000e+00  4.74638976e+00  -5.72985430e-01   1.12829275e+00
C     3.666685478700000e+00   2.028495265644448e+00   1.329990960800000e+01  1.39597462e+00   7.01759560e-01  -2.49153762e+00
C     4.933626310799999e+00   2.678383854973227e+00   1.309548637600000e+01 -3.06903960e-01   2.31491662e+00   2.11116671e+00
C     4.970326105874999e+00   2.901577813098565e+00   3.782486672000000e+00  8.56640900e-01   5.11277570e+00  -1.65942162e+00
C     6.243382011374999e+00   3.626927132365938e+00   3.752227488000000e+00 -1.45917880e+00   1.18012252e+00  -3.84700980e-01
C     6.157825189124999e+00   1.923471776955729e+00   1.313810224800000e+01 -9.81506380e-01   2.30105707e+00  -1.64511220e-01
C     7.338775851974999e+00   2.710223711648053e+00   1.309535051200000e+01  1.10352552e+00   1.43542465e+00   4.52781560e-01
C     7.477108274925000e+00   2.954549479221140e+00   3.672489600000000e+00  1.00589526e+00   1.67927319e+00   6.89967440e-01
C     8.763979963124999e+00   3.797585874541860e+00   3.701825752000000e+00 -3.93614371e+00  -2.56010805e+00  -5.03143010e-01
C     9.831228359775000e+00   4.231586419069409e+00   1.321477796000000e+01 -4.40120050e-01  -2.25129609e+00   1.66451260e-01
C     3.670431120150000e+00   4.841065614280896e+00   1.312977442400000e+01  1.23377529e+00   2.90030219e+00   8.70117060e-01
C     3.835705265925000e+00   5.233942049513978e+00   3.733693272000000e+00 -4.07415420e-01  -3.15119256e+00   3.18792600e-02
C     5.152018039050000e+00   5.897270806515489e+00   3.722662448000000e+00 -5.58769299e+00  -2.47419710e-01   1.68090900e-02
C     4.921498732649999e+00   4.183118034946251e+00   1.318228144000000e+01 -2.23640480e-01  -2.14393412e+00  -6.35313840e-01
C     6.142644881024999e+00   4.940254824059155e+00   1.319723804000000e+01 -1.21299333e+00  -1.84026869e+00  -1.02900340e-01
C     6.247726388999999e+00   5.100484168267489e+00   3.704478160000000e+00  2.20843615e+00  -1.56021350e+00   5.45415280e-01
C     7.449798761775000e+00   5.818891079886885e+00   3.764822584000000e+00  1.54782217e+00   3.20326449e+00  -1.35002219e+00
C     7.304540255774999e+00   4.272859171188808e+00   1.310407246400000e+01  4.14194903e+00  -5.31256532e+00   1.44313150e+00
C     8.594873025825001e+00   4.955494267977654e+00   1.329800180000000e+01 -1.93172332e+00  -3.84042422e+00  -1.31466828e+00
C     8.744284896600000e+00   5.199073619297158e+00   3.712659648000000e+00 -2.38929835e+00  -2.42230707e+00   7.76877160e-01
C     9.943229036475000e+00   5.841320968360278e+00   3.834565424000000e+00  2.07683883e+00   1.68624101e+00  -1.45541673e+00
C     1.168688052000000e-01   8.381405963570640e-02   6.778484391999999e+00 -5.65828555e+00   1.16401540e-01   2.23511590e-01
C     1.235169582675000e+00   8.084447571286086e-01   6.874448032000000e+00  2.65285984e+00   2.37130805e+00   2.14758820e-01
C     1.155702949650000e+00   5.210728343921101e-01   1.027820476000000e+01 -1.94734836e+00   9.59693750e-01  -1.14130079e+00
C     2.331081960675000e+00   1.255687641803595e+00   1.013720730400000e+01  2.27211649e+00  -5.28538740e-01  -3.16802190e-01
C     2.480267618400000e+00   1.426585583010588e-01   6.948347304000000e+00  1.76296512e+00   5.61609370e-01  -1.93815840e-01
C     3.810363525300000e+00   7.594735106782825e-01   6.952291304000000e+00 -1.39938704e+00  -1.07159780e-01   4.35765690e-01
C     3.579224222100000e+00   5.556494225782501e-01   9.977762400000000e+00  9.45896840e-01  -1.58248640e+00   2.83614485e+00
C     4.842827025149999e+00   1.275479040081246e+00   1.023628140000000e+01 -1.63705743e+00  -1.60138701e+00  -2.25660739e+00
C     5.072016932400000e+00   1.056575742594372e-01   7.008259927999999e+00 -2.00758393e+00  -9.38881710e-01  -1.38384811e+00
C     6.250570875749999e+00   8.643172318488709e-01   6.854102431999999e+00  1.28201158e+00  -2.45247360e-01   4.57053550e-01
C     6.109562202299999e+00   5.683356169731241e-01   1.015792228000000e+01 -1.56970158e+00   4.49308520e-01   6.15016600e-01
C     7.318914619799999e+00   1.289678944863910e+00   1.026312086400000e+01  1.47095174e+00  -3.97100520e-01  -2.85711830e-01
C     8.605836963749999e+00   2.265780960637194e+00   6.903295672000000e+00  1.00395828e+00  -2.05152032e+00   2.55930950e-01
C     2.483762606325000e+00   2.833782339392604e+00   7.034042128000000e+00  1.08546254e+00   2.29747151e+00  -1.90885089e+00
C     2.393562870300000e+00   2.649849555992839e+00   1.016719829600000e+01 -1.28465095e+00   2.86339001e+00   2.67826360e-01
C     3.623337911400000e+00   3.364368890963481e+00   1.028556984000000e+01 -3.09329018e+00   2.14801327e+00  -1.37904668e+00
C     3.788933037150000e+00   2.141374281066821e+00   6.961394328000000e+00 -4.71712385e+00   2.38129680e-01   5.68807190e-01
C     4.882986164249999e+00   2.887322255315098e+00   6.994651632000000e+00  5.91872278e+00   4.38180556e+00  -2.88444800e-01
C     4.765495106775000e+00   2.685763033007254e+00   1.024073839200000e+01  5.64394091e+00  -1.35096641e+00   4.93017770e-01
C     6.055045818600000e+00   3.410276532581319e+00   1.023585449600000e+01 -6.84058200e-02  -1.93023903e+00   1.27350230e-01
C     6.228502790700000e+00   2.328598276623419e+00   6.904126903999999e+00 -2.78719495e+00  -3.88665098e+00  -1.35948790e-01
C     7.417133863575000e+00   3.007337215057976e+00   6.826379784000000e+00 -1.19154000e-02   1.76041612e+00   7.21231560e-01
C     7.373616950774998e+00   2.741353400168784e+00   1.025633392000000e+01 -3.12960418e+00  -1.28743094e+00  -7.79535400e-01
C     8.562281707875000e+00   3.465790112691107e+00   1.014141528000000e+01  3.93459060e-01  -3.09228944e+00   8.96986580e-01
C     2.480452752225000e+00   4.260517782037117e+00   6.828992208000000e+00 -7.83049170e-01   2.22539901e+00   1.15214292e+00
C     3.677430265799999e+00   5.075754382711413e+00   6.785358240000000e+00  2.06973568e+00  -2.16749358e+00   1.23193172e+00
C     3.651481987275000e+00   4.819626528541025e+00   1.021818347200000e+01 -3.94097621e+00  -5.49382160e-01  -2.62503260e-01
C     4.847191591125000e+00   5.503174232074920e+00   1.022406764800000e+01 -1.55651434e+00   1.94524729e+00   1.31840370e-01
C     4.925806209225000e+00   4.358639081817221e+00   6.990759448000000e+00 -9.45322650e-01   7.84326690e-01  -1.11409494e+00
C     6.162442959900000e+00   5.179402044684068e+00   6.953416568000000e+00 -1.39675132e+00  -3.98627216e+00   1.81219810e-01
C     6.006424063350000e+00   4.790424969934204e+00   1.022400318400000e+01  2.33860458e+00  -9.51380520e-01  -5.25662770e-01
C     7.241840454149999e+00   5.426556060613288e+00   1.012853431200000e+01 -1.38544298e+00   6.18308033e+00  -6.32300890e-01
C     7.369454416200000e+00   4.452628290383474e+00   6.895702384000000e+00  1.62803479e+00  -9.67973960e-01   1.51266750e-01
C     8.632767187350000e+00   5.071683964500754e+00   6.911787647999999e+00  2.24810048e+00  -4.12569650e-01  -1.53042610e-01
C     8.432812414274999e+00   4.841882605456097e+00   1.015968606400000e+01  6.09732442e+00  -1.25433590e-01  -5.86680250e-01
C     9.752518124324999e+00   5.563393468732500e+00   1.011673821600000e+01  5.30896180e-01  -1.10249857e+00   5.86281690e-01
