72
Lattice="7.395 0 0 3.6975 6.40425786098592 0 0 0 13.6 " PBC="1 1 1" Properties=species:S:1:pos:R:3:force:R:3 Energy="-570.62116218"
C     3.679467033674999e+00   6.214347470398868e+00   1.354248111200000e+01  8.27361530e-01   3.51042470e-01   9.66919570e-01
C     1.131487023825000e+00   6.367733736998634e-01   3.917004000000000e-02  2.96848493e+00  -6.87617807e+00  -6.42250570e-01
C     1.441347876825000e+00   9.740774377360026e-01   3.751309216000000e+00 -2.33780310e+00   1.29953640e-01  -2.93039150e-01
C     2.624215582500000e+00   1.738721682167871e+00   3.903038023999999e+00 -7.36664170e-01  -1.36697110e-01   8.50341400e-02
C     6.038302318425000e+00   6.198307238077555e+00   1.346703878400000e+01  3.74994690e+00   1.38686720e+00  -1.79176110e-01
C     3.618283207050000e+00   5.776481764125072e-01   1.342919365600000e+01  1.63634280e+00  -1.05867330e+00   1.20985648e+00
C     3.783280114275000e+00   9.391883217662946e-01   3.797562272000000e+00  3.23068528e+00   4.41960032e+00  -1.47437310e+00
C     5.023338494474999e+00   1.726591057142352e+00   3.515618768000000e+00  1.98646326e+00  -1.04935340e+00   2.21730533e+00
C     8.708187239399999e+00   6.222367330389210e+00   1.327934396000000e+01 -4.54331767e+00  -4.00152000e-02   2.08542471e+00
C     6.235220889374999e+00   5.581025735515230e-01   1.342166809600000e+01 -4.20512863e+00  -4.52716100e-01  -5.81107830e-01
C     6.336358791749999e+00   1.054792925291305e+00   3.475924991999999e+00 -2.17344512e+00  -2.31579744e+00  -4.30970100e-02
C     7.557183775274999e+00   1.684172327121484e+00   3.728975296000000e+00  1.15688514e+00   1.76102985e+00  -2.95946490e-01
C     1.216434572025000e+00   1.967787576239886e+00   7.985620800000000e-02 -3.96895930e-01   2.28980670e+00   6.89906300e-02
C     2.439433426725000e+00   2.702399501735333e+00   1.622239280000000e-01  1.64234260e-01  -2.28317492e+00   3.02615300e-01
C     2.649603911625000e+00   3.217038874851602e+00   3.938852944000000e+00 -1.17469602e+00  -2.57440953e+00  -1.84530931e+00
C     3.892227247575000e+00   3.806325252902773e+00   3.492893304000000e+00 -3.15139742e+00   1.44818099e+00   2.62914078e+00
C     3.679128675450000e+00   2.054573787905840e+00   1.960229200000000e-01 -4.11131580e-01  -4.67593979e+00  -3.43560912e+00
C     4.866146455125000e+00   2.697596180255176e+00   1.337839656800000e+01  1.73227706e+00  -3.89530501e+00   1.39101981e+00
C     5.118262082550000e+00   3.173672891050662e+00   3.669183848000000e+00 -3.80115214e+00  -5.02907468e+00  -1.98982015e+00
C     6.276208971000000e+00   3.781224212518553e+00   3.603135176000000e+00  5.31738973e+00   4.73943103e+00   7.02829290e-01
C     6.147326914349999e+00   1.987950293388259e+00   1.333571242400000e+01  3.13277520e-01  -1.45999305e+00   8.58891420e-01
C     7.392009609900001e+00   2.642072609503127e+00   1.349412236800000e+01 -1.13628767e+00   1.26784329e+00  -1.88604542e+00
C     7.528538799074999e+00   3.149891896296546e+00   3.814531808000000e+00 -8.05573490e-01  -2.30193143e+00  -3.75021600e-02
C     8.708415966750000e+00   3.907062627976108e+00   3.936559984000000e+00  4.02235652e+00  -3.00489266e+00  -1.68242272e+00
C     2.464193587575000e+00   4.043930648447891e+00   6.382003999999999e-02 -1.64557713e+00   4.20915286e+00   1.99382520e-01
C     3.692597632650000e+00   4.774212078820985e+00   9.117807200000000e-02  6.30516320e-01   2.58080950e-01  -1.99667049e+00
C     3.852195635250000e+00   5.194824778462520e+00   3.416053576000000e+00  1.07943331e+00   3.56034871e+00  -3.53229230e-01
C     5.134346503350000e+00   5.933450636614301e+00   3.507904712000000e+00 -1.75393279e+00   1.90847991e+00   7.08317990e-01
C     4.927832143424999e+00   4.017218488913830e+00   1.339495552000000e+01 -7.01417610e-01   5.19643071e+00   8.72934850e-01
C     6.170979489074999e+00   4.724177853651056e+00   1.327230922400000e+01 -2.07631122e+00   2.47158559e+00  -9.41710900e-02
C     6.351181255800000e+00   5.296541812860699e+00   3.602992647999999e+00 -1.58305711e+00  -3.82108909e+00   2.23259340e-01
C     7.528736023725000e+00   5.987143358129334e+00   3.736797880000000e+00  2.16603501e+00  -2.28020229e+00  -1.70571808e+00
C     7.399825681199999e+00   4.024566029914030e+00   1.315541844800000e+01  3.92760300e-02   1.68341349e+00   3.32994362e+00
C     8.567059802249998e+00   4.766632383473360e+00   1.350733368000000e+01  3.07545107e+00   1.64399913e+00  -2.39871566e+00
C     8.795465173949999e+00   5.188096465154803e+00   3.513945832000000e+00 -7.57604330e-01   6.17586513e+00   1.37896318e+00
C     1.003761937110000e+01   5.987808952648724e+00   3.365110424000000e+00 -7.09649380e-01  -1.75398799e+00   9.70445270e-01
C     7.405940015100000e+00   1.295692799164764e-01   6.887628744000000e+00  6.21816190e-01   3.30678353e+00   1.68580840e-01
C     1.239720687525000e+00   8.547919870059570e-01   7.016796784000000e+00 -5.57502080e-01   2.51228647e+00  -4.19641800e-01
C     1.070857563375000e+00   4.321902529582638e-01   9.860938127999999e+00  8.52868740e-01   1.46433454e+00  -6.89426690e-01
C     2.319412576725000e+00   1.181747795021594e+00   1.006948188800000e+01  2.21970900e-02  -2.31426056e+00  -6.61894410e-01
C     2.443261337550000e+00   1.710577274406000e-01   6.988529591999999e+00  2.94976371e+00  -1.18126896e+00  -6.25345550e-01
C     3.781683422850000e+00   8.835260347889976e-01   6.966761023999999e+00 -3.42028985e+00  -4.01774140e-01   3.20786400e-01
C     3.611569175625000e+00   4.496304560477730e-01   9.975043624000000e+00 -7.19371441e+00  -3.00471567e+00   8.34638340e-01
C     4.738119297450000e+00   1.063512450452853e+00   9.976621496000000e+00  7.03945585e+00   4.72758974e+00  -1.51536594e+00
C     4.997414064825001e+00   1.689242770196982e-01   6.909185423999999e+00 -6.02808650e-01  -1.19737950e-01  -4.76538850e-01
C     6.204972603225000e+00   9.018499614206082e-01   6.881764560000000e+00  1.66121000e-02  -2.59289917e+00   1.97643260e-01
C     6.037411812525000e+00   4.263573829845330e-01   9.718222040000001e+00 -2.04176911e+00   2.21276917e+00   7.02911680e-01
C     7.233641913450000e+00   1.118416153086633e+00   9.640519392000000e+00  1.02789721e+00   1.58848843e+00   2.26754256e+00
C     8.597197718024999e+00   2.393978256392323e+00   7.091727616000000e+00  3.95877393e+00  -3.86525280e+00   3.33700190e-01
C     2.474096158125000e+00   3.096233053305592e+00   7.214648904000000e+00 -2.41462270e-01  -6.01742650e+00  -2.19703650e+00
C     2.307886729725000e+00   2.588839969872757e+00   1.012935507200000e+01 -2.74804720e-01  -1.98044039e+00  -4.87775400e-01
C     3.542238166575000e+00   3.219962930905321e+00   1.011232501600000e+01  1.26562273e+00   3.22794344e+00  -1.83766613e+00
C     3.689604950100000e+00   2.297721300117844e+00   7.030997087999999e+00  1.86544811e+00   1.69942161e+00   6.34395260e-01
C     4.955495100599999e+00   3.074225909893538e+00   7.008895320000000e+00 -1.07228526e+00  -5.04942571e+00  -4.21757530e-01
C     4.765479947025000e+00   2.495730898464203e+00   9.897497784000000e+00 -3.79382640e-01   2.29748878e+00   6.34397400e-01
C     5.989824950550000e+00   3.306370394761434e+00   9.651090536000000e+00  1.51789380e-01  -3.65315663e+00   2.31112214e+00
C     6.233766514725000e+00   2.241171126830837e+00   7.015172536000000e+00 -1.70263851e+00   6.04521264e+00  -7.37276120e-01
C     7.442565305550000e+00   3.055237925764425e+00   7.067760199999999e+00 -3.07967746e+00   8.28412500e-01  -1.04056761e+00
C     7.225078725300000e+00   2.527282435450172e+00   9.767592351999999e+00  1.09543393e+00   2.10862779e+00  -4.73669340e-01
C     8.496773987775001e+00   3.246594140620031e+00   9.875062816000000e+00 -2.21981645e+00   2.11524179e+00   1.29913339e+00
C     9.850580815950000e+00   4.396047953041945e+00   6.952880319999999e+00  1.98343068e+00   4.43341252e+00   5.22714160e-01
C     3.685013542500000e+00   5.187573237287642e+00   6.935753296000000e+00 -7.15331860e-01  -3.50652304e+00  -7.36088720e-01
C     3.483107191950000e+00   4.720709115466344e+00   9.825923024000000e+00  3.47429295e+00  -1.41856877e+00   5.76352760e-01
C     4.717567076475000e+00   5.455984842288982e+00   9.709881432000000e+00  2.34497963e+00  -3.29126969e+00   1.76344591e+00
C     4.866431273549999e+00   4.435519059340169e+00   6.938195448000000e+00  3.71111598e+00   1.19906586e+00  -4.63049400e-02
C     6.179894050649999e+00   5.090515940908398e+00   6.910311639999999e+00 -2.95366668e+00   4.52463247e+00   3.13899630e-01
C     6.011587733024999e+00   4.666159376164487e+00   9.776720943999999e+00 -4.89718780e-01   3.67679346e+00  -1.32717100e-02
C     7.301454211349999e+00   5.417109908354945e+00   9.884074584000000e+00 -3.31471963e+00  -5.08506300e-01   6.89091700e-02
C     7.413147810675000e+00   4.532774311329865e+00   6.978559568000000e+00  1.07114133e+00  -4.45022928e+00  -1.86245100e-02
C     8.685001289174998e+00   5.131059055929807e+00   6.933122784000000e+00 -2.12522747e+00   2.48722555e+00  -2.48264020e-01
C     8.479983566325000e+00   4.734004290741126e+00   9.931155064000000e+00  1.72996074e+00  -1.54438904e+00  -8.53905280e-01
C     9.747278064300000e+00   5.505357123366501e+00   9.789168072000001e+00 -2.77145418e+00  -5.50509531e+00   1.24631318e+00
