72
Lattice="7.395 0 0 3.6975 6.40425786098592 0 0 0 13.6 " PBC="1 1 1" Properties=species:S:1:pos:R:3:force:R:3 Energy="-575.6932849"
C     3.677638324125000e+00   6.168663081210030e+00   1.355528537600000e+01  1.24663679e+00   2.19233703e+00   4.80768040e-01
C     1.238561595225000e+00   5.745252681522355e-01   6.048518400000000e-02 -1.11709329e+00  -1.36660769e+00  -8.73614470e-01
C     1.445221303875000e+00   9.917061821769103e-01   3.725674712000000e+00 -1.13979397e+00   9.30187990e-01  -4.45259320e-01
C     2.590093758375000e+00   1.842582285714370e+00   3.879688456000000e+00  1.18587897e+00  -3.59659363e+00  -9.54852360e-01
C     6.142362946650000e+00   6.216623991940362e+00   1.347079102400000e+01  1.01251450e-01   8.79450710e-01   1.04164127e+00
C     3.683173777425000e+00   5.381867405436522e-01   1.349013988000000e+01 -7.48505820e-01  -1.21304890e-01  -8.28047500e-02
C     3.802288148325000e+00   1.042874793541581e+00   3.735535392000000e+00  9.89919660e-01  -1.28778760e+00  -6.42643730e-01
C     5.086083775350000e+00   1.677941560606912e+00   3.557946320000000e+00 -2.29410129e+00   8.32314490e-01   1.25104810e+00
C     8.623275556949999e+00   6.272521891564329e+00   1.337258950400000e+01 -9.44547590e-01  -2.70971791e+00   9.15811170e-01
C     6.160025867174999e+00   5.343388062510499e-01   1.348232545600000e+01  3.22464110e-01  -1.76237556e+00   7.73839800e-02
C     6.281511592725000e+00   1.007652656163153e+00   3.485406232000000e+00  3.06224858e+00   3.73610500e-02   2.12403290e-01
C     7.571515174350000e+00   1.631182921204637e+00   3.654379024000000e+00 -7.64864970e-01   3.78349368e+00   1.73472290e-01
C     1.203435345225000e+00   2.057826318345198e+00   1.135916880000000e-01 -2.52175860e-01  -4.96572564e+00  -6.07416360e-01
C     2.411670711000000e+00   2.716755734452360e+00   1.466211920000000e-01  1.65896295e+00  -1.26227566e+00  -5.65901650e-01
C     2.576522528325000e+00   3.249163785043777e+00   3.822091096000000e+00  3.72682939e+00  -3.23945263e+00  -5.42038910e-01
C     3.870353614050000e+00   3.813150590717068e+00   3.598279296000000e+00 -1.25503450e-01   3.10787111e+00   1.46770050e-01
C     3.625896248625000e+00   1.924115020615188e+00   6.163751200000001e-02  2.62071305e+00   2.06321751e+00  -5.20181600e-01
C     4.966971992700000e+00   2.640464372269324e+00   1.354488219200000e+01 -3.13376150e+00   3.50939500e-02  -1.59120400e-02
C     5.090543810774999e+00   3.071220455722419e+00   3.654389224000000e+00 -4.54801470e-01   2.45975636e+00  -9.81221840e-01
C     6.302621840399999e+00   3.873139914517474e+00   3.627983600000000e+00  5.53677040e-01  -6.57423897e+00   4.46675820e-01
C     6.187284946424999e+00   1.938444547576938e+00   1.349628123200000e+01 -3.62461778e+00  -1.86649671e+00   2.64463000e-03
C     7.336534982099999e+00   2.603805503682583e+00   1.350396387200000e+01  3.36242245e+00   2.82192525e+00   2.22319810e-01
C     7.545962639250000e+00   3.149992891442998e+00   3.761382192000000e+00  3.33876500e-01  -1.93180159e+00  -6.52116140e-01
C     8.786564588925000e+00   3.862057154163008e+00   3.775215296000000e+00 -2.76589280e+00   2.62121250e+00  -7.72047120e-01
C     2.455335819600000e+00   4.100570481344938e+00   2.106041600000000e-02 -2.10947327e+00   3.53528990e-01  -1.66746750e-01
C     3.688520325450000e+00   4.736263008445769e+00   1.024692000000000e-02 -2.70753600e-02   2.70126254e+00  -8.25300770e-01
C     3.919141756800000e+00   5.315946458006184e+00   3.407957088000000e+00 -7.23640590e-01  -1.37210170e+00   1.06253551e+00
C     5.181175340849999e+00   5.987156358772790e+00   3.501171760000000e+00 -2.06444281e+00  -3.30957940e-01   5.86437380e-01
C     4.910775649874999e+00   4.074097520841949e+00   1.348060804800000e+01  1.18415153e+00  -9.75333380e-01   9.81397700e-01
C     6.137616059175000e+00   4.801776965289104e+00   1.344345556800000e+01  2.80599100e-02  -1.49906714e+00  -9.74245220e-01
C     6.326569179824999e+00   5.180068023458928e+00   3.616271824000000e+00  1.08734774e+00   5.90870796e+00  -1.16944100e-02
C     7.547466967124999e+00   5.940288526774002e+00   3.674769504000000e+00  3.15165520e-01   2.10022626e+00  -2.68925630e-01
C     7.353480106949999e+00   3.978176019594177e+00   1.335215577600000e+01 -1.69153570e-01   4.92323729e+00   1.15823634e+00
C     8.567158192725000e+00   4.776623474033011e+00   1.344825174400000e+01  1.58539240e+00   6.12338370e-01  -2.64131310e-01
C     8.818212341850000e+00   5.290905809773584e+00   3.591530160000000e+00 -9.61828310e-01   3.48909100e-01   2.38997990e-01
C     1.004270080837500e+01   6.049148486133753e+00   3.432903024000000e+00  1.48957900e-02  -3.88985997e+00   3.94388450e-01
C     7.435317207224999e+00   1.828543063761414e-01   6.983617816000000e+00 -4.59781200e-01  -1.25790425e+00  -5.63822000e-02
C     1.228722732600000e+00   9.168104999093040e-01   7.050888040000000e+00  1.61010505e+00  -3.28110980e-01  -1.02259555e+00
C     1.076683122525000e+00   4.127993129245986e-01   9.815006031999999e+00  8.01543690e-01  -5.23442210e-01   1.19956490e-01
C     2.260872055875000e+00   1.119762904472012e+00   9.992212263999999e+00  2.71226107e+00   3.47976980e-01   3.30176620e-01
C     2.497275452850000e+00   2.314414254400248e-01   6.887354840000000e+00 -1.45433406e+00  -2.19687939e+00   3.82237990e-01
C     3.769348414950000e+00   8.557163135428908e-01   6.839413208000000e+00 -2.79023830e-01   2.00595450e-01   7.45824400e-01
C     3.533510180850000e+00   3.463450829422584e-01   1.006365809600000e+01  7.17713600e-02   3.23909046e+00  -8.75578600e-01
C     4.832154930900000e+00   1.140804541969092e+00   9.915430880000001e+00 -4.19237988e+00  -1.78580662e+00   9.66768990e-01
C     5.030269569150000e+00   1.534566493936476e-01   6.926766824000000e+00 -8.98117210e-01   1.60069971e+00  -3.81776800e-01
C     6.268277426774999e+00   9.134277068650734e-01   7.015868040000000e+00 -2.91104901e+00   7.36240670e-01  -9.73598190e-01
C     5.999024182649999e+00   5.044660814205012e-01   9.755669912000000e+00  2.55387288e+00  -4.33033060e+00   2.37645700e-01
C     7.291648034624999e+00   1.107832540589775e+00   9.664463008000000e+00 -2.48831682e+00   3.01219117e+00   1.15913575e+00
C     8.591288188649999e+00   2.317764449771971e+00   7.124580184000000e+00  1.11234275e+00   1.69777109e+00  -9.92079050e-01
C     2.506675644075000e+00   2.946880764689261e+00   7.083611952000000e+00 -2.44562383e+00   2.20757260e+00  -1.00747687e+00
C     2.305535230650000e+00   2.587803184567802e+00   1.001653056000000e+01  5.55639880e-01  -2.37599349e+00  -1.52762270e-01
C     3.565626480975000e+00   3.215912109723714e+00   9.952759752000000e+00 -1.24198288e+00   2.22295506e+00  -1.14321930e-01
C     3.718303059375000e+00   2.274846123595446e+00   6.909980888000000e+00  5.89632680e-01  -3.50035250e-01   4.52268230e-01
C     4.927702435124999e+00   3.002211631322303e+00   6.940549335999999e+00  6.74583700e-02   1.22429169e+00  -2.47619390e-01
C     4.786823396025000e+00   2.503669488422302e+00   9.903168576000001e+00 -7.73427540e-01   2.11404484e+00  -6.00610680e-01
C     5.935300506299999e+00   3.232213187467665e+00   9.661142975999999e+00  3.92773381e+00   1.54251221e+00   1.71761209e+00
C     6.184997820825000e+00   2.377468591969872e+00   6.984424024000000e+00  2.65595150e-01  -1.06462330e+00  -3.07313220e-01
C     7.375450171275000e+00   3.164685860038303e+00   7.027327264000000e+00  1.44347731e+00  -4.18265017e+00  -1.69956680e-01
C     7.267829811899999e+00   2.562548377952363e+00   9.682657224000000e+00 -4.36702050e-01   2.06044970e-01   1.21855007e+00
C     8.524098586725000e+00   3.325881158459660e+00   9.916079600000000e+00 -2.26138024e+00  -2.67062097e+00  -3.72468050e-01
C     9.845975099024999e+00   4.422173162343136e+00   6.999201784000000e+00  4.07095250e-01  -1.84135126e+00   1.59984000e-02
C     3.632424850425000e+00   5.138531415915698e+00   6.950775040000001e+00  2.68987433e+00   1.01575913e+00  -4.64610400e-02
C     3.501029972775000e+00   4.648623237292234e+00   9.760061080000000e+00  1.49960440e+00   1.43170882e+00   9.36396410e-01
C     4.807698963375000e+00   5.411885122665021e+00   9.730513448000000e+00 -3.66552839e+00  -7.80607320e-01   8.75180670e-01
C     4.892378775599999e+00   4.444115494665647e+00   6.962452680000000e+00 -6.43890280e-01  -7.39969950e-01  -7.01360010e-01
C     6.085635088200000e+00   5.161221893641414e+00   6.896177975999999e+00  3.36545662e+00   2.42255340e+00  -7.40209300e-02
C     5.975002449525000e+00   4.717029805283196e+00   9.788497048000000e+00  1.18337075e+00  -3.17118847e+00   1.44841350e-01
C     7.217173803074999e+00   5.364139459041364e+00   9.974781007999999e+00  6.05736940e-01   4.11745310e-01  -2.72993720e-01
C     7.424148205949999e+00   4.535938591095912e+00   6.928924735999999e+00 -3.52457530e+00  -6.90708740e-01   2.25250400e-02
C     8.652191485949999e+00   5.152169987496933e+00   6.958251096000000e+00  8.19895710e-01   1.32370468e+00  -2.38697050e-01
C     8.500515561975000e+00   4.702243910906343e+00   9.954675992000000e+00 -2.78758861e+00   4.65444860e-01  -4.74525000e-02
C     9.636323225475000e+00   5.423392933613655e+00   9.825579624000000e+00  4.31083363e+00   9.04870620e-01   9.98094100e-02
