72
Lattice="7.395 0 0 3.6975 6.40425786098592 0 0 0 13.6 " PBC="1 1 1" Properties=species:S:1:pos:R:3:force:R:3 Energy="-568.20825534"
C     3.732225330074999e+00   6.078787391509834e+00   2.181025200000000e-01 -2.09092300e+00   3.38176757e+00  -1.40764636e+00
C     1.225970794275000e+00   4.438337060883726e-01   1.253294400000000e-02  2.94942600e-01   5.63971270e-01   1.40929564e+00
C     1.526419328250000e+00   1.042872295881016e+00   3.260437344000000e+00 -2.77699398e+00   1.96272236e+00   9.88256250e-01
C     2.652084564375000e+00   1.946174614899115e+00   3.028402032000000e+00  1.21357485e+00  -5.85036299e+00   1.04139528e+00
C     6.163041363300000e+00   6.149191127314436e+00   2.714353280000000e-01 -2.27587484e+00  -4.58214920e-01  -2.13746600e-01
C     3.603824798850000e+00   5.295916501123249e-01   3.153279680000000e-01  3.71442202e+00  -9.97628840e-01  -1.51682050e+00
C     3.887233071299999e+00   1.160332148865490e+00   3.238269888000000e+00 -1.27437540e-01  -2.26889050e+00   1.84455334e+00
C     5.106852484949999e+00   1.803334239717411e+00   3.595398544000000e+00 -1.41178480e-01  -1.00765122e+00  -2.26063280e+00
C     8.623372542375000e+00   6.230501058084304e+00   4.303524160000000e-01 -1.36046411e+00  -2.91103649e+00  -1.67128554e+00
C     6.159682924049999e+00   4.894497618458448e-01   3.198291600000000e-01  6.50614770e-01  -3.25888789e+00   3.73063030e-01
C     6.346208561999999e+00   1.077270333358019e+00   3.722930776000000e+00  4.31070910e-01   2.69457633e+00  -9.73105040e-01
C     7.582618951724999e+00   1.735645012649348e+00   3.411465480000000e+00  2.54346865e+00   2.00036775e+00  -3.40989990e-01
C     1.213559359050000e+00   1.950265206522033e+00   1.355859738400000e+01 -1.39632467e+00  -2.49620173e+00   1.19738530e-01
C     2.410057676625000e+00   2.644019567935146e+00   1.339074686400000e+01  1.78617598e+00  -6.05447420e-01   1.23208780e+00
C     2.668178154975000e+00   3.315074357576382e+00   3.087710408000000e+00  2.05183921e+00   3.90993800e-01   1.89757853e+00
C     3.917292821925000e+00   3.884379835359824e+00   3.584590487999999e+00 -7.37885040e-01   4.13266187e+00  -1.67922916e+00
C     3.677451674325000e+00   1.900341390757610e+00   1.349055372800000e+01 -4.87902760e-01   2.24711910e-01   3.23012532e+00
C     4.891257878475000e+00   2.570114688401060e+00   3.827597599999999e-01 -2.40685360e-01   8.13662450e-01  -2.18545691e+00
C     5.118667809225000e+00   3.196010750338607e+00   3.430512280000000e+00  1.21100098e+00   1.01982651e+00   1.99461930e+00
C     6.348192529574999e+00   3.952424947037167e+00   3.490642368000000e+00  1.71284714e+00  -4.32284070e+00  -2.52451500e-01
C     6.140883207150000e+00   1.846394292120378e+00   4.835870320000000e-01  5.62350400e-02   2.28008368e+00  -1.59203614e+00
C     7.351012469400000e+00   2.600587748363405e+00   2.616572000000000e-01  2.23555890e-01  -5.43123430e-01   2.02688121e+00
C     7.628039818200000e+00   3.251063736223103e+00   3.287823800000000e+00 -1.24160090e+00  -1.81083347e+00   2.94298430e-01
C     8.870868956999999e+00   3.991344454605908e+00   3.135882696000000e+00 -2.12661776e+00   7.84232150e-01   2.84115334e+00
C     2.476222109700000e+00   4.049658168379824e+00   2.506656800000000e-02 -3.21163255e+00  -1.50674126e+00  -9.91311920e-01
C     3.677276153999999e+00   4.685803092255886e+00   4.642686400000000e-02  2.05390749e+00   2.31916486e+00   1.37218614e+00
C     4.029895266750000e+00   5.429018882015930e+00   3.823856376000000e+00 -4.03156943e+00  -3.08952632e+00  -1.58724026e+00
C     5.274014130524999e+00   6.026093926348696e+00   3.640102968000000e+00 -3.49990954e+00   3.99027253e+00  -9.99953630e-01
C     4.905704750475000e+00   4.041506380677566e+00   3.099365200000000e-01 -1.25412040e+00  -3.44247974e+00  -3.03691910e-01
C     6.068165620875000e+00   4.706000648567018e+00   5.224924160000000e-01  3.58951371e+00   1.73882581e+00   1.07021490e-01
C     6.398708809875000e+00   5.295787583412527e+00   3.552065680000000e+00  1.52300860e+00   6.49202220e-01  -9.08820460e-01
C     7.581617040150000e+00   5.988743333870498e+00   3.402487032000000e+00  2.34767070e+00   4.60217076e+00   5.59725530e-01
C     7.319722116825000e+00   3.935260255120795e+00   7.121599199999999e-01  2.31002697e+00   2.86508490e+00  -5.50394972e+00
C     8.634375821699999e+00   4.708997905288077e+00   2.057032640000000e-01 -2.53401244e+00   2.30149625e+00   3.40424188e+00
C     8.861009277450000e+00   5.369725701044906e+00   3.586858560000000e+00 -3.22550310e-01  -2.52666700e-02  -1.65875865e+00
C     1.006820849280000e+01   6.137597243140163e+00   3.815409824000000e+00  1.83713963e+00  -4.20044155e+00  -1.11349943e+00
C     7.341035911875000e+00   2.205139042960854e-01   6.515980592000000e+00  3.72106110e+00  -2.20672190e+00   5.09834500e-01
C     1.152110680500000e+00   9.763795763089368e-01   6.428254880000000e+00  1.62410068e+00  -1.36430686e+00   7.03514580e-01
C     1.085604524475000e+00   3.481893170782026e-01   1.028705727200000e+01  1.79479020e-01   1.08662387e+00   7.17790900e-02
C     2.219410176600000e+00   1.028162227917224e+00   9.815500119999999e+00  3.14771134e+00   4.42132880e-01   1.45410633e+00
C     2.405735151225000e+00   2.780533432947270e-01   6.642703623999999e+00  6.66524690e-01  -1.07531906e+00   1.44166660e-01
C     3.704459952150000e+00   9.218557742514121e-01   6.666562920000000e+00 -7.23617930e-01  -1.03712010e-01  -5.29311870e-01
C     3.516948893475000e+00   2.731639485889314e-01   9.844394135999998e+00  1.07739537e+00   2.54908105e+00   6.43811070e-01
C     4.915109045925000e+00   1.061605326504723e+00   1.001655313600000e+01 -7.10768308e+00  -1.98782573e+00  -3.07859660e-01
C     4.976454416325000e+00   1.744776651804186e-01   6.737465704000000e+00 -5.16807200e-01   3.62191029e+00  -2.34720310e-01
C     6.250475960925000e+00   9.139656645253134e-01   6.656629615999999e+00 -6.88552601e+00   4.13115228e+00  -5.11213600e-01
C     5.990792327474999e+00   3.933517592514510e-01   1.037996839200000e+01  3.61427244e+00  -3.23746245e+00   6.81814350e-01
C     7.294636354125000e+00   1.017248027629634e+00   1.059607783200000e+01 -2.08449997e+00   2.40325019e+00  -2.55833452e+00
C     8.558322868574999e+00   2.363886057644912e+00   6.317871432000000e+00 -6.49103210e-01   2.26367779e+00  -1.16325870e-01
C     2.419338105825000e+00   3.034768572749714e+00   6.281936151999999e+00 -1.74914540e-01   4.89006030e-01   2.41657360e+00
C     2.286379481475000e+00   2.514109325330203e+00   9.803177024000000e+00  1.24291338e+00  -2.44752672e+00   5.36290610e-01
C     3.552789093750000e+00   3.153648569914643e+00   9.863634328000000e+00  6.48234080e-01   1.36047338e+00   2.11828416e+00
C     3.652476910574999e+00   2.337967129489392e+00   6.513838048000000e+00  4.62626170e-01  -4.94391680e-01  -2.86943020e-01
C     4.886755284825000e+00   3.058845124004070e+00   6.582861040000000e+00 -1.46983153e+00   8.87046420e-01   2.48107430e-01
C     4.773203617800000e+00   2.393309331658846e+00   1.017817118400000e+01 -1.06029154e+00   3.76594189e+00  -1.36124641e+00
C     5.925104132400000e+00   3.118154379662322e+00   1.040458126400000e+01  4.17282450e+00   2.85480661e+00  -1.00294505e+00
C     6.133468906199999e+00   2.448076239344736e+00   6.492110960000000e+00  1.14809454e+00  -2.48637615e+00   9.71748910e-01
C     7.315652870175000e+00   3.231764825374886e+00   6.367020063999999e+00  1.07821466e+00  -4.95765879e+00   7.10305690e-01
C     7.260623051625000e+00   2.414598045424165e+00   1.035679752800000e+01  3.22808100e-02   2.75979298e+00   4.98069460e-01
C     8.572770184275001e+00   3.250299900388141e+00   1.010058549600000e+01 -4.66370921e+00  -2.92926899e+00  -5.02178900e-02
C     9.776009007375000e+00   4.466701711073402e+00   6.553373928000000e+00  1.97481996e+00  -1.59042052e+00  -1.50271216e+00
C     3.588934670550000e+00   5.172495052582057e+00   6.553508160000000e+00  8.59835290e-01   1.09678212e+00   9.94099440e-01
C     3.533529814575000e+00   4.568029878934322e+00   1.020126534400000e+01 -6.96954780e-01   1.91158065e+00   5.17059500e-01
C     4.763907215400000e+00   5.392231031675888e+00   1.041811897600000e+01  5.80322030e-01  -5.06328372e+00  -1.84779930e+00
C     4.771717074900000e+00   4.469569986041161e+00   6.689029168000000e+00  4.80477682e+00   7.97749920e-01  -3.58754700e-01
C     6.118817673375000e+00   5.234943803528440e+00   6.792030263999999e+00 -3.12029218e+00   7.01761330e-01  -1.50189606e+00
C     5.990941817400000e+00   4.654719514391747e+00   1.027363924000000e+01 -4.64021200e-01  -2.61749845e+00   6.44679590e-01
C     7.257816944924999e+00   5.302730183188238e+00   1.008261636000000e+01 -1.99761912e+00   2.75964800e-01  -1.35439260e-01
C     7.335324087825001e+00   4.581227133106425e+00   6.583147728000000e+00  8.58747460e-01   5.52272210e-01   3.81650290e-01
C     8.645925924300000e+00   5.214843079596150e+00   6.617844048000000e+00 -3.44402718e+00  -2.66366170e-01   3.11713810e-01
C     8.512905329850000e+00   4.636359787958699e+00   1.006729813600000e+01 -2.59576780e+00  -3.50124820e-01   7.82400640e-01
C     9.612095578575000e+00   5.365582210252064e+00   1.026628164000000e+01  6.00085700e+00  -6.45668400e-01  -6.03808450e-01
