72
Lattice="7.395 0 0 3.6975 6.40425786098592 0 0 0 13.6 " PBC="1 1 1" Properties=species:S:1:pos:R:3:force:R:3 Energy="-578.02050017"
C     3.677831888250000e+00   6.326733934349229e+00   1.313473298400000e+01  1.64954835e+00  -2.66150975e+00   1.48961430e-01
C     1.246770414975000e+00   5.986702168805359e-01   1.311816097600000e+01 -1.29285122e+00   1.10742028e+00   7.45790030e-01
C     1.333671204525000e+00   8.856088915728055e-01   3.695351335999999e+00 -5.82399500e-02   1.59321200e-02   4.10016900e-02
C     2.505890073225000e+00   1.628818277074989e+00   3.651018872000000e+00  2.42304236e+00   2.24949650e-01  -1.70689910e-01
C     6.183966551099999e+00   6.331300426373724e+00   1.322165602400000e+01 -1.65652323e+00  -1.33657835e+00  -7.74025820e-01
C     3.671955821250000e+00   6.174305296427268e-01   1.312534776000000e+01  9.15151760e-01   1.45140570e+00   2.04429550e+00
C     3.747434367749999e+00   9.153562210344552e-01   3.651539888000000e+00 -1.12922758e+00  -3.14185496e+00   6.08378760e-01
C     4.990874296574999e+00   1.548743151263108e+00   3.690520344000000e+00 -1.02666990e-01   3.64874580e-01   6.97556600e-02
C     8.582317794824998e+00   6.290855168412415e+00   1.327818904800000e+01  1.06518153e+00   2.19573916e+00  -1.07499522e+00
C     6.154517849325000e+00   5.795938539929538e-01   1.319333511200000e+01 -1.03471070e+00  -1.21096529e+00   4.59268930e-01
C     6.215411791950000e+00   8.713766452879489e-01   3.742842264000000e+00  1.95118907e+00  -2.11939230e+00   3.33710520e-01
C     7.487941358324999e+00   1.554073286994829e+00   3.701715864000000e+00 -2.06418231e+00  -1.19963861e+00  -1.12167380e-01
C     1.221250972500000e+00   2.030605468609318e+00   1.312955233600000e+01  7.13265750e-01   4.02941900e-01   2.27563260e-01
C     2.484355278600000e+00   2.762833088903488e+00   1.312943279200000e+01 -3.34282495e+00   1.53450072e+00   7.08504920e-01
C     2.548006114200000e+00   3.071566093519123e+00   3.642207704000000e+00 -1.43304359e+00  -7.19959300e-01   1.54300840e-01
C     3.741598751400000e+00   3.773827294690253e+00   3.710970528000000e+00  3.42046305e+00  -2.06016011e+00   2.95273100e-02
C     3.671853400500000e+00   2.090141883293865e+00   1.323002492000000e+01  9.75966460e-01  -2.81894321e+00  -1.42863376e+00
C     4.924288237575000e+00   2.700062331871905e+00   1.315022093600000e+01  6.42151020e-01   2.13902208e+00   1.36375949e+00
C     4.979469062025000e+00   2.923773305734281e+00   3.748649736000000e+00  3.47713310e-01   4.43060158e+00  -4.88729800e-01
C     6.258652686375000e+00   3.645410973316312e+00   3.746584304000000e+00 -3.00387198e+00  -5.28439600e-02  -3.28948690e-01
C     6.133019622975000e+00   1.939646242521788e+00   1.319578284000000e+01  1.14031607e+00   4.18645625e+00  -2.37289130e-01
C     7.373798608950000e+00   2.724096038641177e+00   1.315711980800000e+01 -8.51900290e-01   7.55369810e-01   2.53925560e-01
C     7.419572697600000e+00   2.918154530100810e+00   3.658226600000000e+00  4.25796519e+00   3.84117075e+00   1.88227850e-01
C     8.733188107499998e+00   3.771743477267766e+00   3.658105968000000e+00 -2.65367611e+00  -1.59412308e+00  -5.12070400e-02
C     9.800068381050000e+00   4.224496969660968e+00   1.315006004800000e+01  2.33068940e+00  -2.50588255e+00   4.21753900e-02
C     3.685549716975000e+00   4.843045490598316e+00   1.309107426400000e+01  2.51918400e-02   2.36552243e+00   1.35086310e+00
C     3.807635583750000e+00   5.181962466976495e+00   3.757437240000000e+00  6.06066010e-01  -6.43927530e-01   2.20987310e-01
C     5.080974126150000e+00   5.901253614478622e+00   3.749362919999999e+00 -1.25739415e+00  -3.05722944e+00  -2.93633190e-01
C     4.946744412225000e+00   4.165020050531941e+00   1.321417942400000e+01 -1.39018794e+00  -1.39262535e+00  -8.12966990e-01
C     6.165994889324999e+00   4.885577832153619e+00   1.323028848800000e+01 -2.78710197e+00   2.04570496e+00   2.33145990e-01
C     6.267802408950000e+00   5.067742399958238e+00   3.726469496000000e+00  2.51931700e-01   2.20110305e+00   2.13825710e-01
C     7.489761526650000e+00   5.822617397322727e+00   3.742883064000000e+00 -1.80861211e+00   2.68833076e+00  -8.20043000e-01
C     7.312924521899999e+00   4.226015675369889e+00   1.319904357600000e+01  4.91337514e+00  -4.06100553e+00   3.16123450e-01
C     8.601054025650001e+00   4.931468374402971e+00   1.323162033600000e+01 -2.03121614e+00  -2.25221919e+00  -1.55071220e-01
C     8.728096243274999e+00   5.206809514493988e+00   3.730022088000000e+00 -7.33973240e-01  -4.05378357e+00   1.96677510e-01
C     9.951482965724999e+00   5.799225525276183e+00   3.838068920000000e+00  9.70959990e-01   4.81725493e+00  -1.25729926e+00
C     5.943416962499999e-02   8.823908160407340e-02   6.875584176000000e+00 -1.16848916e+00  -2.72439880e-01  -1.11479100e-01
C     1.235464865025000e+00   8.459340017894765e-01   6.875932472000001e+00  1.87402430e+00  -1.43913265e+00   2.95219710e-01
C     1.132977449100000e+00   5.612467439478901e-01   1.026420736800000e+01  1.01789887e+00  -1.13211934e+00  -8.10935290e-01
C     2.402530638900000e+00   1.286924217388009e+00   1.014650684800000e+01 -2.59965583e+00  -1.68150125e+00  -9.65836600e-02
C     2.526800175225000e+00   1.067792800236162e-01   6.899200440000000e+00 -1.40403212e+00   2.31078659e+00  -1.24433520e-01
C     3.804194468400000e+00   7.520677549741357e-01   6.883755735999999e+00 -1.31894117e+00   1.17472173e+00   4.47445560e-01
C     3.566497020374999e+00   5.656817565585186e-01   1.007622014400000e+01  2.81187630e+00  -2.21321648e+00   1.82958934e+00
C     4.841452220699999e+00   1.254701834391205e+00   1.024265082400000e+01 -1.43658992e+00  -5.27407350e-01  -1.52875370e+00
C     5.041091744925000e+00   1.075650824630382e-01   6.983562600000000e+00 -9.32685720e-01  -1.39629801e+00  -8.88178540e-01
C     6.245357141924999e+00   8.262736986702198e-01   6.929079912000000e+00  1.99168570e-01   1.11086303e+00   4.51865000e-03
C     6.087501845024999e+00   5.520073851758466e-01   1.020510816000000e+01  1.58364200e-02   1.93519092e+00   4.14602310e-01
C     7.337894072175000e+00   1.275396745367745e+00   1.027199921600000e+01 -7.34576490e-01   7.40021280e-01  -7.32574910e-01
C     8.628955064849999e+00   2.257534710131501e+00   6.912446160000000e+00 -1.34415200e+00  -8.48754790e-01  -4.00871120e-01
C     2.469772301625000e+00   2.837545353225984e+00   6.939670912000000e+00  2.37835388e+00   3.23639849e+00  -7.92224530e-01
C     2.390724188625000e+00   2.651310303168127e+00   1.012473732800000e+01 -9.94356790e-01   3.96948680e+00   5.48380010e-01
C     3.604649415300000e+00   3.394553823364705e+00   1.023069316000000e+01 -6.83059260e-01  -2.15950900e-01  -1.09695780e+00
C     3.766689838500000e+00   2.167221353449152e+00   6.882401855999999e+00 -2.72738870e+00  -5.98991490e-01   5.43712450e-01
C     4.924116229875000e+00   2.876027129769994e+00   6.948308272000000e+00  2.37506486e+00   4.45481702e+00  -1.36948670e-01
C     4.795210878974999e+00   2.660559716625010e+00   1.022435556000000e+01  2.92172876e+00   1.07159814e+00   4.65198130e-01
C     6.086885952449999e+00   3.406356230174898e+00   1.024785540800000e+01 -1.30017953e+00  -1.21357348e+00  -2.43458410e-01
C     6.212124492599999e+00   2.301405925835016e+00   6.910853464000000e+00 -8.61659530e-01  -2.87468463e+00   6.05979000e-03
C     7.403041840649999e+00   3.033565917166185e+00   6.842311912000000e+00  8.11978010e-01  -1.95891491e+00   7.08402530e-01
C     7.354650587549999e+00   2.744906802642404e+00   1.021986116800000e+01 -2.93424941e+00  -2.35258552e+00   3.58504900e-02
C     8.518199632199998e+00   3.446510670786784e+00   1.015315276000000e+01  2.92413933e+00  -1.51494895e+00   2.87700850e-01
C     2.482885115625000e+00   4.294910824192989e+00   6.869015240000000e+00 -6.42326990e-01   2.51012830e-01   4.39556970e-01
C     3.698334673650000e+00   5.030544036689371e+00   6.838366688000000e+00  1.87873200e-02   1.55397354e+00   9.07260090e-01
C     3.632708448675000e+00   4.830446394110337e+00   1.019476291200000e+01 -3.25664973e+00  -6.97550520e-01   3.82304100e-02
C     4.820311431675000e+00   5.482541890697672e+00   1.024407936800000e+01  8.53110270e-01   3.68476910e+00  -1.96298460e-01
C     4.915051956525000e+00   4.395504295592210e+00   6.969143744000000e+00  1.06423331e+00  -2.31369307e+00  -7.20892340e-01
C     6.138464117774999e+00   5.158107823256989e+00   6.934644079999999e+00  1.00158084e+00  -3.80714091e+00  -2.29001200e-02
C     6.044059473825000e+00   4.809455542378087e+00   1.024683241600000e+01 -3.07507100e-01  -1.47472692e+00  -2.01490320e-01
C     7.238036503125000e+00   5.478505799309143e+00   1.021794968800000e+01  1.91182804e+00   3.81370126e+00  -7.70202530e-01
C     7.401961579049999e+00   4.409048980753218e+00   6.878145463999999e+00 -3.17059880e-01   1.87667965e+00   3.76411180e-01
C     8.659347812324999e+00   5.075617139465472e+00   6.914120455999999e+00  9.48040400e-01  -4.87230180e-01  -1.13884400e-02
C     8.488629319650000e+00   4.836449040959937e+00   1.021738134400000e+01  1.70752350e+00   1.17165824e+00  -7.03842870e-01
C     9.760767283800000e+00   5.591921043242134e+00   1.016330366400000e+01  1.40851600e-01  -3.24623702e+00   2.90244300e-01
