32
Lattice="9.86 0 0 4.93 8.53901048131456 0 0 0 30 " PBC="1 1 1" Properties=species:S:1:pos:R:3:force:R:3 Energy="-254.80249413"
C     1.051323352890000e+01   1.139373062252225e+00   3.831137400000000e+00 -1.34393760e+00  -9.94877650e-01   1.83894039e+00
C     1.870629685100000e+00   1.817284079578167e+00   4.015997400000001e+00  1.83260670e+00  -1.18959522e+00  -1.13330323e+00
C     3.137866317199999e+00   1.141197763401696e+00   3.884847600000001e+00 -3.54031210e-01  -1.98910201e+00  -8.49069500e-01
C     4.380921693700000e+00   1.831829259249590e+00   3.768404100000000e+00 -9.08292920e-01  -1.93847770e-01   4.76731800e-02
C     5.643686766499999e+00   1.151181830625227e+00   3.755147400000000e+00 -1.27629977e+00  -2.52614110e-01   4.13257990e-01
C     6.848878609100000e+00   1.909727577814857e+00   3.776749800000000e+00  7.82885420e-01  -5.38095932e+00   5.60422650e-01
C     8.087069258800000e+00   1.054611172453238e+00   3.919218000000000e+00 -7.00590970e-01   3.60221936e+00  -2.49187530e-01
C     9.244649330600000e+00   1.877880569718754e+00   3.981927600000000e+00  2.73286544e+00  -3.03649848e+00  -8.26620010e-01
C     1.929584745000000e+00   3.192710743000979e+00   4.045002900000000e+00 -1.93448849e+00   3.30486477e+00  -1.05982746e+00
C     3.087316660800000e+00   3.959525497159232e+00   3.861030600000000e+00  1.95262744e+00  -2.64334780e-01   8.80508070e-01
C     4.292692836100001e+00   3.224458698575515e+00   3.701448600000000e+00  3.76533473e+00   2.38299661e+00   3.62570030e-01
C     5.662387242499999e+00   3.993736786477037e+00   3.661938300000000e+00 -3.82325955e+00  -2.33223053e+00   8.36613110e-01
C     6.873555379000000e+00   3.271083147428096e+00   3.750708300000000e+00  2.04990660e-01   1.93042773e+00  -7.04030550e-01
C     8.109603943699998e+00   3.983451889914297e+00   3.753744600000000e+00  4.48474700e-02  -6.52601230e-01   1.70583663e+00
C     9.338427987799999e+00   3.273582857356011e+00   3.987960600000001e+00 -9.99591440e-01   1.02012692e+00  -1.62831277e+00
C     1.058564211510000e+01   3.966380187822052e+00   3.893096100000000e+00 -1.32110132e+00   1.09071076e+00   1.95469163e+00
C     3.141751354399999e+00   5.398350300061118e+00   3.970627800000000e+00 -1.65580775e+00  -1.00235821e+00  -7.84862240e-01
C     4.355356192700000e+00   6.038435123372652e+00   3.777759900000000e+00 -5.52692680e-01   1.50987710e+00   3.04040100e-01
C     5.533060918900000e+00   5.358234455776603e+00   3.794859300000000e+00  5.27804681e+00   1.56587350e+00  -1.22545914e+00
C     6.837170401400000e+00   6.181667204312600e+00   3.748015500000000e+00 -8.91863500e-01  -4.95026335e+00   7.21438340e-01
C     8.093069364600000e+00   5.368940752506531e+00   3.834260700000000e+00 -2.20939843e+00   2.82608311e+00  -1.19564398e+00
C     9.276206802899999e+00   6.119755706558093e+00   3.853046100000000e+00  1.16958303e+00   7.92839150e-01   5.20201670e-01
C     1.051338266140000e+01   5.464361632917387e+00   3.943577700000000e+00  2.53301734e+00  -2.29886420e+00  -9.03489000e-03
C     1.180829148210000e+01   6.170714984080847e+00   4.042830600000000e+00 -2.41722701e+00  -1.34723373e+00  -1.62274192e+00
C     4.397926644099999e+00   7.450086574784454e+00   3.707955600000000e+00  6.95508500e-02   1.50820898e+00   1.83005820e+00
C     5.605990754000000e+00   8.221247599886922e+00   3.809519400000000e+00 -1.46003246e+00   1.38030054e+00  -1.00638864e+00
C     6.821343868900000e+00   7.552855102933140e+00   3.773575800000000e+00  1.22432412e+00  -2.28630170e-01  -4.53081760e-01
C     8.066708358800000e+00   8.222133436834117e+00   3.706803900000000e+00 -6.09050020e-01   3.20376972e+00   1.87193027e+00
C     9.272198515700000e+00   7.571191090917053e+00   3.859438800000000e+00  1.22335655e+00  -1.98691922e+00  -6.70237760e-01
C     1.052645376760000e+01   8.243616220960119e+00   3.877619100000000e+00  7.38891900e-01   1.87620444e+00  -8.61483910e-01
C     1.177460045370000e+01   7.572247366513430e+00   3.828677400000001e+00  5.50753290e-01  -1.61263074e+00   2.02724218e+00
C     1.306330294670000e+01   8.177284248260326e+00   3.914195100000000e+00 -1.64601664e+00   1.71905805e+00  -1.59613916e+00
