32
Lattice="9.86 0 0 4.93 8.53901048131456 0 0 0 30 " PBC="1 1 1" Properties=species:S:1:pos:R:3:force:R:3 Energy="-255.58086018"
C     1.088011855800000e+00   1.234390815978320e+00   3.339434400000000e+00 -3.81052110e-01  -2.72041762e+00   6.13607270e-01
C     2.403265356800000e+00   1.857106011121961e+00   3.358848900000000e+00 -5.36838018e+00   2.74566938e+00   9.34870130e-01
C     3.571441625499999e+00   1.203342034581887e+00   3.392415000000000e+00  1.91433998e+00  -3.15921050e+00  -2.93830200e-02
C     4.756297464599999e+00   1.940025780190098e+00   3.537217200000000e+00  2.02679814e+00  -4.18649550e-01  -1.28015580e-01
C     6.033026959599999e+00   1.251234355710539e+00   3.454430100000000e+00 -3.40587947e+00  -2.97820990e+00   1.02881340e-01
C     7.190739746999999e+00   1.914585677047243e+00   3.363066900000000e+00  3.36964111e+00   1.94544589e+00   7.22595970e-01
C     8.453859237500000e+00   1.221128451851308e+00   3.274572000000000e+00 -6.14625220e-01  -1.63759088e+00   1.61025708e+00
C     9.655065717399999e+00   1.911866856110411e+00   3.498155400000000e+00  3.68614314e+00   7.39441300e-01  -1.68900888e+00
C     2.340030268100000e+00   3.266782645580054e+00   3.546903600000000e+00  6.04408000e-02   2.50813079e+00  -2.92141570e-01
C     3.573614670900000e+00   4.039611424819371e+00   3.557312700000000e+00 -1.96326307e+00   1.01897387e+00  -6.72100370e-01
C     4.776749569600000e+00   3.356891663741616e+00   3.606766200000000e+00  1.37528941e+00  -8.32240100e-02  -1.08722430e+00
C     6.023281138400000e+00   4.096010649748617e+00   3.445545300000000e+00 -4.84117550e-01  -1.98088429e+00   1.01030886e+00
C     7.246685436300000e+00   3.352170017896700e+00   3.520019100000000e+00 -1.20830942e+00  -1.44343112e+00  -1.48934109e+00
C     8.472925568799999e+00   3.986120245299192e+00   3.461574900000000e+00  1.08505617e+00   1.70427353e+00   1.40297550e-01
C     9.765137383699999e+00   3.354130062362279e+00   3.523275300000000e+00 -3.70555077e+00  -1.67749298e+00   1.46021750e-01
C     1.093540318360000e+01   4.059195901525565e+00   3.593823300000000e+00  3.27182625e+00  -1.15640733e+00  -1.50291980e-01
C     3.554170011400000e+00   5.482365111833210e+00   3.357760200000000e+00  7.96237640e-01   2.15706860e-01   2.07496574e+00
C     4.822570468600000e+00   6.229102432210258e+00   3.429013200000000e+00 -1.88186849e+00  -2.96232714e+00  -1.06424033e+00
C     6.017156845900000e+00   5.476985791401124e+00   3.350766600000000e+00  9.34757350e-01   1.29561811e+00   4.57054790e-01
C     7.297798493100000e+00   6.177013358210895e+00   3.308987700000000e+00 -3.28052920e+00  -2.31672796e+00   4.13851900e-02
C     8.427932909799999e+00   5.393880981975887e+00   3.363629400000000e+00  3.58002659e+00   1.76898365e+00   6.05673630e-01
C     9.684343409800000e+00   6.152482915854476e+00   3.457371300000000e+00  1.40656944e+00  -7.56333960e-01   1.82703700e-01
C     1.097017585400000e+01   5.478653203977554e+00   3.608327400000000e+00 -1.66447067e+00  -1.41742900e-02  -9.94449200e-01
C     1.218098848820000e+01   6.212403201755150e+00   3.470917800000000e+00  2.55609760e-01  -2.88928776e+00  -2.33141320e-01
C     4.809881240199999e+00   7.609928055789259e+00   3.387492300000000e+00 -2.21065777e+00   7.35806760e-01  -8.78834300e-02
C     5.990720509700000e+00   8.293556879922715e+00   3.323496600000000e+00  2.59323530e+00   2.23333323e+00  -1.28261100e-02
C     7.237976788499999e+00   7.539923796242437e+00   3.310047000000000e+00  1.37575569e+00   3.76760807e+00  -2.70506490e-01
C     8.492849177800000e+00   8.278561267448472e+00   3.319228500000000e+00  2.62048890e-01   5.09201090e-01   3.77786320e-01
C     9.758040697999999e+00   7.575220735352670e+00   3.402302700000000e+00 -2.17065908e+00   6.20693120e-01   5.13744400e-02
C     1.097231148070000e+01   8.322795988828121e+00   3.454081500000000e+00 -8.54981300e-01   4.43861140e-01  -6.09721920e-01
C     1.216179589960000e+01   7.576737092833709e+00   3.380268900000000e+00  1.56161557e+00   2.90365258e+00   4.71256980e-01
C     1.341318672290000e+01   8.301376222599460e+00   3.365416500000000e+00 -3.61046920e-01   1.03796991e+00  -7.32765140e-01
