32
Lattice="9.86 0 0 4.93 8.53901048131456 0 0 0 30 " PBC="1 1 1" Properties=species:S:1:pos:R:3:force:R:3 Energy="-252.07202007"
C     1.110415599900000e+00   1.079052979880876e+00   3.728936100000000e+00  5.31454560e-01  -1.11875537e+00   2.41326760e-01
C     2.365095275500000e+00   1.743576536576275e+00   3.518788500000000e+00 -1.30433106e+00   1.74340390e-01   1.77589380e-01
C     3.561740618000000e+00   1.104878960907322e+00   3.817698000000000e+00  7.44122920e-01  -3.60508175e+00   1.56095283e+00
C     4.764556348499999e+00   1.817909476705722e+00   3.836501700000000e+00  1.01105330e+00   1.42160519e+00  -2.49280490e-01
C     5.983305000900000e+00   1.131355785312553e+00   4.068077100000000e+00  3.09449030e+00  -2.80541100e-01   6.51982000e-02
C     7.294874510100000e+00   1.788855664327732e+00   4.014807300000000e+00  5.10856790e-01   2.19751138e+00  -1.95493805e+00
C     8.583011482800000e+00   1.175907133200800e+00   3.820098000000000e+00 -2.98727917e+00  -3.10322033e+00   1.10312213e+00
C     9.787552762599999e+00   1.851411174252640e+00   3.517113300000000e+00 -3.00645620e-01   2.37888090e-01   1.62510712e+00
C     2.375190929500000e+00   3.110613878372801e+00   3.173743200000000e+00  3.95275300e-01   4.30283208e+00   6.60594900e-01
C     3.635326340300000e+00   3.919621078774201e+00   3.329278500000000e+00 -2.00859472e+00   1.74526289e+00   9.62727350e-01
C     4.826585854999999e+00   3.315881187329111e+00   3.630145800000000e+00  1.30005493e+00  -4.76508628e+00   3.40212480e-01
C     6.104147484699999e+00   3.926433842895564e+00   3.852914700000000e+00 -9.08057650e-01  -1.05371703e+00   2.64167890e-01
C     7.368589792799999e+00   3.229521904839630e+00   3.846338700000000e+00 -3.18876938e+00  -1.43645018e+00   9.66926120e-01
C     8.524379584399998e+00   3.978896925553950e+00   3.797670600000000e+00  2.79401739e+00   1.08623150e-01   5.85371800e-01
C     9.794288868099999e+00   3.321333943251324e+00   3.485642100000000e+00 -1.11106720e+00  -1.68363378e+00  -6.60333300e-01
C     1.099759547870000e+01   3.987465395620106e+00   3.160635900000000e+00  6.27048220e-01  -2.54220350e+00   9.72729150e-01
C     3.656633701700000e+00   5.398982784567372e+00   3.596675400000000e+00 -4.02098804e+00  -1.20793645e+00  -1.38201316e+00
C     4.842475935200000e+00   6.046946552848802e+00   3.874675800000000e+00 -5.03493400e-02   8.97311670e-01   2.32213600e-01
C     6.048299606600000e+00   5.268260866321253e+00   4.118113200000000e+00 -9.57024970e-01   2.13094763e+00  -1.23463094e+00
C     7.235012823200000e+00   5.951662296605626e+00   4.287162300000000e+00  2.15493294e+00   2.72268539e+00   1.00259407e+00
C     8.519843343500000e+00   5.352291987603361e+00   4.217828700000000e+00  1.36479768e+00  -2.67909890e-01  -3.78849689e+00
C     9.757097095999999e+00   6.112612568121259e+00   3.814487400000000e+00 -6.87945800e-02  -2.58161792e+00   1.01609427e+00
C     1.096808183650000e+01   5.382003133008102e+00   3.279895800000000e+00 -2.20468640e-01   2.69458336e+00   3.02097198e+00
C     1.215763414150000e+01   6.138481414980314e+00   3.597755100000000e+00  2.77714293e+00  -2.67772490e+00  -1.80508854e+00
C     4.793020147199999e+00   7.521961902307653e+00   3.846565200000000e+00  1.40759120e-01  -1.80618765e+00   2.65405197e+00
C     5.992021980400000e+00   8.183589709769073e+00   4.179964500000000e+00  2.19715293e+00   1.35147945e+00  -2.68255302e+00
C     7.274854568899999e+00   7.388601259043003e+00   4.314594300000000e+00 -1.47015834e+00   1.75681581e+00  -4.94087210e-01
C     8.509024212000000e+00   8.084599352197369e+00   4.225239900000000e+00  2.57293180e-01   3.62559765e+00  -8.85828960e-01
C     9.822147016300001e+00   7.475753303265448e+00   4.165713600000000e+00 -1.14964921e+00   5.53323320e-01  -7.46863810e-01
C     1.104177039860000e+01   8.253581587750698e+00   4.121757900000000e+00 -3.42757154e+00  -5.72525840e-01  -1.23345007e+00
C     1.218451881190000e+01   7.514744474479643e+00   3.788360400000000e+00  9.76355710e-01   1.57049819e+00   1.93634676e+00
C     1.341052560750000e+01   8.222293884841035e+00   3.946569900000000e+00  2.29694126e+00   1.21128630e+00  -2.27073432e+00
