32
Lattice="9.86 0 0 4.93 8.53901048131456 0 0 0 30 " PBC="1 1 1" Properties=species:S:1:pos:R:3:force:R:3 Energy="-253.03293872"
C     1.118324158000000e+00   8.123420255542592e-01   3.863139300000000e+00  4.78564267e+00  -4.36996380e-01  -6.11175620e-01
C     2.441592951600000e+00   1.574769777688307e+00   3.862035300000000e+00 -2.39458760e+00  -1.79992084e+00  -9.37513670e-01
C     3.583322038100000e+00   7.432886702144904e-01   3.631156500000000e+00  3.11629626e+00   4.98496243e+00   9.73339740e-01
C     4.974843822300000e+00   1.434128774088411e+00   3.693747900000000e+00 -2.28935370e+00  -6.39719750e-01  -3.47084430e-01
C     6.279312603199999e+00   8.210533532657456e-01   3.694590000000000e+00 -5.68919961e+00  -1.83836340e+00   5.96188530e-01
C     7.419366426399999e+00   1.581808825587390e+00   3.724479900000000e+00  1.05065055e+00  -3.57938192e+00  -1.46371220e+00
C     8.615505605799999e+00   7.504615244077952e-01   3.588965700000000e+00  3.29582500e-02   3.95594889e+00   6.65031030e-01
C     9.813437826199999e+00   1.523657139537333e+00   3.673311300000000e+00  4.31005000e-01  -1.17544731e+00   1.11100422e+00
C     2.459688467300000e+00   3.016766396032990e+00   3.810619200000000e+00 -3.36914831e+00  -2.16165280e+00   8.26626000e-03
C     3.650796532400000e+00   3.627395561133344e+00   3.687405600000000e+00  3.03834620e+00  -2.87096830e+00   9.92816720e-01
C     4.904375634799999e+00   2.797312716625627e+00   3.742024500000000e+00 -2.60827840e-01   4.50499867e+00  -7.52382030e-01
C     6.097239125000000e+00   3.612939016390704e+00   3.701477400000000e+00  9.27799290e-01   6.14904260e-01   7.51375090e-01
C     7.358824399500000e+00   2.962313638542659e+00   3.619974000000000e+00 -4.18276910e-01  -3.63197070e-01   5.34707480e-01
C     8.597079040599999e+00   3.583071948654598e+00   3.609860100000000e+00  1.86048981e+00   2.79328767e+00   2.03293520e+00
C     9.863835786499999e+00   2.920401101063046e+00   3.828666300000001e+00 -1.21662667e+00   2.20541096e+00  -2.16740979e+00
C     1.106113800220000e+01   3.778650298589566e+00   3.791449500000001e+00  1.31977880e-01  -4.82839440e+00   5.83491140e-01
C     3.648495504200000e+00   4.967268432010685e+00   3.806929200000000e+00  2.50251342e+00   4.17961088e+00  -4.58116710e-01
C     4.917853071600000e+00   5.716726451906871e+00   3.685549500000000e+00 -1.33755150e+00   2.16950267e+00   7.34517220e-01
C     6.126936902700000e+00   5.082978769832964e+00   3.815037300000000e+00  2.05221400e+00  -1.92223985e+00  -2.18332118e+00
C     7.429984512500000e+00   5.811075942672801e+00   3.606349500000000e+00 -2.41614441e+00  -3.03483890e+00   1.83087179e+00
C     8.639647520000000e+00   5.018805288202305e+00   3.775697700000000e+00 -1.76265954e+00   6.72618020e-01  -2.51327996e+00
C     9.816033520500000e+00   5.767166984542964e+00   3.715766400000000e+00 -4.24242850e-01   2.50314076e+00   6.58731930e-01
C     1.105653219900000e+01   5.157989792784630e+00   3.766637999999999e+00  1.71520635e+00  -1.05750377e+00   1.22078900e+00
C     1.235325560480000e+01   5.727870031363480e+00   3.962508300000000e+00 -1.71943050e+00   4.08420707e+00  -2.18883003e+00
C     4.956485882699999e+00   7.180793850639208e+00   3.613560900000000e+00 -1.97764786e+00  -1.48202715e+00   1.18393755e+00
C     6.149244906200000e+00   7.885065732608064e+00   3.809226900000000e+00 -1.88328026e+00   1.83236001e+00  -1.58986251e+00
C     7.336212510800000e+00   7.200585654519858e+00   3.584727600000000e+00  8.84820920e-01  -1.69072900e-01   4.38264530e-01
C     8.504686354299999e+00   7.951491975983556e+00   3.497404800000000e+00  2.12330596e+00  -3.41939567e+00   1.45577715e+00
C     9.739566755500000e+00   7.206095109471658e+00   3.722814600000000e+00  1.71444206e+00   1.00978428e+00  -9.97086630e-01
C     1.101745199040000e+01   7.921231174474217e+00   3.792221100000000e+00  3.20544352e+00  -1.68068910e-01  -6.33654230e-01
C     1.235517697370000e+01   7.275017561780769e+00   3.798673800000000e+00 -3.06135430e+00  -4.81161030e+00   6.91006870e-01
C     1.356456597180000e+01   7.902090299362460e+00   3.609282000000000e+00  6.47219720e-01   2.48063040e-01   3.80377540e-01
