32
Lattice="9.86 0 0 4.93 8.53901048131456 0 0 0 30 " PBC="1 1 1" Properties=species:S:1:pos:R:3:force:R:3 Energy="-253.37304745"
C     4.950139543000001e+00   8.383012834562766e+00  -6.602786999999992e-01  6.30925620e-01  -1.24379471e+00  -4.65353800e-01
C     1.227342431200000e+00   5.223905317943311e-01  -6.918006000000005e-01  2.79951564e+00   1.88847183e+00  -2.00051710e-01
C     7.447278755299999e+00   8.371647326223782e+00  -7.514813999999994e-01 -1.45583035e+00  -6.13611100e-02  -4.26083140e-01
C     3.733002655500000e+00   5.289193738172344e-01  -8.138630999999990e-01  1.30273976e+00   1.33674622e+00   2.70784754e+00
C     9.885505700100001e+00   8.328625912843236e+00  -5.364447000000006e-01  1.03330833e+00   6.43935210e-01  -1.36386030e-01
C     6.201700845700000e+00   4.648711594703176e-01  -4.660179000000007e-01  3.78606400e-01   2.52664073e+00  -2.01550092e+00
C     1.237366940370000e+01   8.322723578019250e+00  -5.856972000000020e-01 -1.71894000e-03   4.42250776e+00   7.44436760e-01
C     8.682797492900001e+00   6.034475157262552e-01  -7.067645999999996e-01 -1.11672889e+00  -6.78560144e+00   5.24335000e-01
C     1.281667087200000e+00   2.001705614590282e+00  -5.803181999999971e-01  1.22483918e+00  -2.95683445e+00   8.42008230e-01
C     2.544206711100000e+00   2.636308393173655e+00  -2.283002999999972e-01 -4.11301630e-01   2.01279047e+00  -2.36439064e+00
C     3.795710776500000e+00   2.027947786987522e+00  -5.256435000000010e-01 -2.54754784e+00  -4.96389363e+00   9.34368800e-02
C     5.021303452100000e+00   2.621730594482199e+00  -4.590476999999993e-01  1.99458154e+00  -4.14887390e-01  -7.35386990e-01
C     6.275182939400000e+00   1.918652466178448e+00  -6.297941999999992e-01 -1.18645409e+00  -1.63894841e+00   9.88716470e-01
C     7.506881962300000e+00   2.614398146183023e+00  -7.059113999999980e-01 -3.36920377e+00   1.61464363e+00  -6.82502280e-01
C     8.707165299700000e+00   1.918924604442446e+00  -7.715625000000017e-01 -6.12021930e-01   2.54896693e+00   1.47279430e-01
C     9.895881427399999e+00   2.615313271936165e+00  -6.404232000000007e-01  7.98007340e-01   1.58852424e+00   6.23213500e-01
C     2.555383662000000e+00   4.110018554880638e+00  -1.621698000000009e-01  1.32645540e-01  -2.39650250e+00   3.08425160e-01
C     3.839507072400000e+00   4.765579566176228e+00  -2.398518000000003e-01 -2.56602161e+00   1.52115198e+00   7.82658100e-02
C     5.033610852000000e+00   3.988771778833442e+00  -4.402296000000021e-01 -1.80253450e+00   3.62412865e+00   2.77339310e-01
C     6.177005686899999e+00   4.731110398741928e+00  -6.987623999999997e-01 -5.73569740e-01   2.89209028e+00  -2.39042390e-01
C     7.337815598899999e+00   4.057637446722860e+00  -7.891826999999978e-01  5.67756833e+00  -7.87506950e-01   8.86810500e-01
C     8.605862131399999e+00   4.799036092357707e+00  -6.042264000000017e-01  9.37414550e-01  -2.79129750e-01   1.36788570e-01
C     9.791963387100001e+00   3.982371363528158e+00  -4.075530000000001e-01  2.49712821e+00   3.79855219e+00  -2.22238980e-01
C     1.114127135610000e+01   4.734782514808747e+00  -1.859910000000013e-01 -1.88207770e+00  -7.83672950e-01  -7.38578710e-01
C     3.760594978100000e+00   6.248280622797814e+00  -2.839644000000021e-01  1.31308822e+00  -7.84320600e-01  -1.33975875e+00
C     5.017626707400000e+00   6.912126267451204e+00  -6.213383999999991e-01 -2.57738420e+00   1.54182577e+00   5.74474740e-01
C     6.209936065600000e+00   6.221185744814041e+00  -8.089638000000008e-01  1.05322441e+00  -1.59595760e+00   1.24946980e+00
C     7.476752612399999e+00   6.940169231768572e+00  -7.626096000000011e-01 -6.27909640e-01   1.91631540e-01   1.34542870e-01
C     8.718029442099999e+00   6.280899472051204e+00  -5.507804999999983e-01 -1.31675004e+00  -3.24873145e+00  -4.37306000e-01
C     9.980853674900001e+00   6.917365035770790e+00  -3.658134000000004e-01 -3.69518278e+00  -3.01857670e-01  -1.27380849e+00
C     1.110741295420000e+01   6.113423261776230e+00  -2.854613999999991e-01  2.86230760e+00   4.27243785e+00   9.13548630e-01
C     1.236503046610000e+01   7.030840629160348e+00  -2.922575999999992e-01  1.10633699e+00  -8.18204466e+00   4.54496300e-02
