32
Lattice="9.86 0 0 4.93 8.53901048131456 0 0 0 30 " PBC="1 1 1" Properties=species:S:1:pos:R:3:force:R:3 Energy="-251.14218577"
C     1.170717289300000e+00   7.464236825221177e-01   3.534917400000000e+00 -6.79988800e-02   8.00268940e-01  -7.21057100e-01
C     2.418596522900000e+00   1.412190006802775e+00   3.524000400000000e+00  9.58873860e-01   1.54479327e+00  -9.65216500e-02
C     3.576876556099999e+00   6.167799851293080e-01   3.460488600000000e+00  4.73770383e+00   4.55657970e+00   1.96170390e-01
C     4.986789113700000e+00   1.395200791551767e+00   3.487794900000000e+00 -4.50334751e+00  -2.06593370e-01  -1.31871350e-01
C     6.233007479599999e+00   7.439932239691952e-01   3.498425400000000e+00 -5.50658136e+00  -3.39591993e+00  -1.17502679e+00
C     7.390949364100000e+00   1.358262056896545e+00   3.409473600000000e+00  4.58395591e+00   2.72949364e+00   2.89792040e-01
C     8.629127885999999e+00   7.232174699109359e-01   3.453729300000000e+00  2.30068101e+00   6.49637600e-02   2.79995020e-01
C     9.840803122300001e+00   1.502490042628775e+00   3.599981700000000e+00 -9.39051900e-01   1.11224021e+00  -1.37370150e+00
C     2.531109032200000e+00   2.902978872590597e+00   3.537698400000000e+00 -5.42543925e+00  -2.26777252e+00   3.70426990e-01
C     3.645582367199999e+00   3.640632735179440e+00   3.664262400000000e+00  4.99326538e+00  -1.12829778e+01  -1.45275626e+00
C     4.934145982100000e+00   2.794131849831722e+00   3.428030700000000e+00 -2.55515710e-01  -2.92137650e-01   9.26755440e-01
C     6.225413406199999e+00   3.347323702498776e+00   3.286882200000000e+00 -3.84811193e+00   6.59836983e+00   9.73482840e-01
C     7.449239071199999e+00   2.760798029230842e+00   3.358515900000000e+00  1.33384500e-01   1.79871541e+00   4.52247640e-01
C     8.579761823999998e+00   3.657635100506587e+00   3.508099200000000e+00  1.75597150e+00  -1.07957614e+00  -4.42518180e-01
C     9.838835904400000e+00   3.029947810340651e+00   3.509138100000000e+00  6.29303290e-01  -4.62259524e+00   7.06694410e-01
C     1.111550229540000e+01   3.659049160642075e+00   3.493524300000000e+00 -4.08676460e-01  -1.78988762e+00   7.11979700e-01
C     3.697939263000000e+00   4.879248141202635e+00   3.727380000000000e+00  3.31126650e-01   1.20889051e+01  -1.26830988e+00
C     4.914660600800000e+00   5.682895063165319e+00   3.529757700000000e+00  9.75229060e-01  -2.44522363e+00  -6.61226570e-01
C     6.057230646700000e+00   4.887758887557947e+00   3.337377300000000e+00  4.95676926e+00   1.66962424e+00   7.19243380e-01
C     7.387009357399999e+00   5.821694629155205e+00   3.405336300000000e+00 -1.38753612e+00  -6.05353914e+00  -3.60362290e-01
C     8.679517465300000e+00   5.084527233993406e+00   3.525081000000000e+00 -7.37379078e+00  -1.93258737e+00  -9.37975650e-01
C     9.825562125899999e+00   5.724372538060977e+00   3.429465000000000e+00  3.75669940e+00   1.43196893e+00  -2.86406290e-01
C     1.105721998330000e+01   5.044290733490810e+00   3.504460500000000e+00  3.86091728e+00   2.57044810e-01  -1.88917690e-01
C     1.239943940110000e+01   5.640160304366589e+00   3.529135800000000e+00 -3.67262144e+00   4.22931274e+00  -3.23988890e-01
C     5.006683882200000e+00   7.105347167372854e+00   3.371599200000000e+00 -4.88941757e+00  -1.03996399e+00   8.74937120e-01
C     6.095841864400000e+00   7.865282382347790e+00   3.344919000000000e+00  3.68912052e+00   1.16987517e+00   6.59606290e-01
C     7.344881521400000e+00   7.169975009751154e+00   3.346692000000000e+00 -6.91447270e-01   1.12588790e-01  -7.99106800e-02
C     8.577079904000000e+00   7.812930392215748e+00   3.340807800000000e+00  8.89800030e-01  -8.77756500e-01   1.32819000e-03
C     9.820904952099999e+00   7.096784333053615e+00   3.269735100000000e+00  1.12551793e+00   3.22822962e+00   1.22800317e+00
C     1.106821708780000e+01   7.865134315906067e+00   3.368647200000000e+00  1.85129977e+00  -1.74469154e+00  -2.71183220e-01
C     1.238842366120000e+01   7.214117765987933e+00   3.334011000000000e+00 -1.59548668e+00  -4.43687741e+00   1.24222261e+00
C     1.363356704060000e+01   7.852909014601852e+00   3.384805800000000e+00 -9.64596330e-01   7.51256700e-02   1.38848780e-01
