32
Lattice="9.86 0 0 4.93 8.53901048131456 0 0 0 30 " PBC="1 1 1" Properties=species:S:1:pos:R:3:force:R:3 Energy="-250.73317184"
C     1.198882724400000e+00   9.032814624850016e-01   3.755412600000000e+00 -2.19203306e+00   6.58555708e+00  -2.05544751e+00
C     2.299683197400000e+00   1.747294677909581e+00   3.441621300000000e+00  4.54826754e+00  -1.72772070e-01   1.01633849e+00
C     3.568377926300000e+00   1.063246759141767e+00   3.814562100000000e+00 -1.03688500e-02  -5.94707440e-01   1.35861206e+00
C     4.834974595100000e+00   1.759621166487985e+00   3.915039900000000e+00 -6.52606890e-01   1.74803570e+00  -1.67625036e+00
C     6.064820973300000e+00   1.051261745592458e+00   4.115159999999999e+00 -2.90338700e-01   3.41354372e+00   3.46540370e-01
C     7.293363415799999e+00   1.912653811316248e+00   3.988410600000000e+00 -1.00871309e+00  -4.15631577e+00  -6.84566500e-02
C     8.505611320900000e+00   1.096284019908678e+00   3.798501300000000e+00  2.20588995e+00   3.87844310e+00   3.13625500e-01
C     9.836250957499999e+00   1.684116674120681e+00   3.569372100000000e+00 -3.35329379e+00   2.40552517e+00   2.55162640e-01
C     2.395022002400000e+00   3.264334938225961e+00   3.071012400000000e+00  2.86583290e-01  -3.70467150e+00   1.17518043e+00
C     3.632931001200000e+00   3.998000229019596e+00   3.241656300000000e+00  5.88850620e-01  -4.24053638e+00   6.10824460e-01
C     4.856019926999999e+00   3.260514926497629e+00   3.608503800000000e+00 -2.18846168e+00  -2.33625229e+00   5.77586180e-01
C     5.980378947300000e+00   3.980520276836303e+00   3.973727700000000e+00  5.01124950e-01   9.22150400e-02   2.92723590e-01
C     7.201552370900000e+00   3.295677632363116e+00   4.043495700000000e+00  4.06222659e+00  -6.35376420e-01  -1.20863625e+00
C     8.567027535400001e+00   3.947130440326674e+00   3.803488500000000e+00 -1.26777849e+00  -1.27549826e+00   4.82969750e-01
C     9.724734554699999e+00   3.221293116610369e+00   3.365255700000000e+00  2.83430316e+00  -2.83334909e+00   2.60946270e-01
C     1.103631727630000e+01   3.891272247101439e+00   3.036700500000000e+00 -4.30648030e+00   3.54648648e+00   2.34912704e+00
C     3.638629538900000e+00   5.340396804444302e+00   3.422658000000000e+00 -6.39548590e-01   4.07879741e+00   6.84390280e-01
C     4.803319262300000e+00   6.083275175205228e+00   3.848670900000000e+00 -4.50779930e-01  -8.12097090e-01   6.54635820e-01
C     5.962256119399999e+00   5.373863833608670e+00   4.204159200000000e+00  3.15872733e+00  -3.73956270e-01  -7.17121610e-01
C     7.293559728400000e+00   5.952405873638225e+00   4.451408700000000e+00  7.84363000e-02   2.58025621e+00  -7.45112940e-01
C     8.657951821199999e+00   5.299538578588654e+00   4.141947000000000e+00 -3.84954736e+00   1.36312738e+00  -9.09888730e-01
C     9.783429507799999e+00   6.090770120873839e+00   3.820302300000000e+00  9.31883480e-01  -8.46974220e-01   1.45097901e+00
C     1.096394393960000e+01   5.384269300999389e+00   3.337833900000000e+00  2.32308355e+00   3.51078480e-01   5.51373490e-01
C     1.228325557010000e+01   6.109152475684658e+00   3.505341900000000e+00 -3.11610422e+00   4.14764150e-01   1.23811810e-01
C     4.757088433800000e+00   7.455241490021125e+00   4.001673000000000e+00  2.35016521e+00   2.97273257e+00   1.54352140e-01
C     6.075137885699999e+00   8.183528655844141e+00   4.221778200000000e+00 -1.61570730e+00  -4.19162954e+00  -2.14688790e-01
C     7.264449015100000e+00   7.461049127218888e+00   4.472673000000000e+00  1.48012785e+00  -2.30419578e+00  -9.29322830e-01
C     8.518181391199999e+00   8.138958522132839e+00   4.316473800000000e+00 -1.04634016e+00   2.73383122e+00  -1.09206949e+00
C     9.776728356000000e+00   7.478229701694752e+00   4.284050700000000e+00 -1.28153940e+00  -1.57336024e+00  -1.15669717e+00
C     1.094627176300000e+01   8.193876143353700e+00   4.285440899999999e+00  3.32320445e+00   1.71269710e-01  -2.26228914e+00
C     1.219444837420000e+01   7.559305044499208e+00   3.904515300000000e+00  1.11917997e+00  -2.54553591e+00  -3.26759050e-01
C     1.346409962170000e+01   8.281468544346597e+00   3.847515600000000e+00 -2.52241242e+00  -3.73843515e+00   7.03561190e-01
