32
Lattice="9.86 0 0 4.93 8.53901048131456 0 0 0 30 " PBC="1 1 1" Properties=species:S:1:pos:R:3:force:R:3 Energy="-253.20378947"
C     5.128139164999999e+00   8.090902508173285e+00   2.775264000000000e-01 -3.69340960e+00  -2.78794919e+00   2.27932180e-01
C     1.354858064400000e+00   2.157205094156112e-01   4.471395000000000e-01  4.60532383e+00  -5.77163800e-01  -2.22200125e+00
C     7.628689099200000e+00   7.982482179768096e+00   2.800050000000000e-01 -2.28930696e+00   2.23139233e+00   1.97607520e+00
C     3.911676602900000e+00   1.492561820533784e-01   2.651535000000000e-01 -8.21620140e-01   2.72533054e+00  -1.65691660e+00
C     1.003846555630000e+01   7.967192483772922e+00   1.997865000000000e-01  1.45245048e+00   2.75082308e+00   1.23440680e-01
C     6.384241589299999e+00   2.154391490202952e-01   2.979063000000000e-01 -3.99405336e+00  -1.80852225e+00  -1.02571739e+00
C     1.247305278070000e+01   8.020703900747939e+00   1.589733000000000e-01  2.49507927e+00  -4.49808770e-01   4.08974950e-01
C     8.760899933299999e+00   1.988022533416920e-01   4.259520000000000e-01  9.05478340e-01  -1.33273670e-01  -1.91795094e+00
C     1.322188532000000e+00   1.575751934673717e+00   7.599660000000000e-02  3.54550342e+00   3.88110360e-01   1.62200440e-01
C     2.567372830400000e+00   2.267675980537968e+00  -2.348499000000004e-01  8.51306980e-01   2.00937528e+00  -4.80921100e-01
C     3.843680218800000e+00   1.651626678535434e+00  -8.658720000000031e-02 -3.75902120e-01  -1.79775661e+00   1.74912867e+00
C     5.025183460700000e+00   2.423657658025604e+00   3.492270000000000e-02  2.15838818e+00  -8.25149710e-01  -3.61396150e-01
C     6.282008425799999e+00   1.620876164775067e+00   3.078387000000000e-01 -1.79556148e+00   1.38080408e+00  -2.40632860e-01
C     7.462760434299999e+00   2.316437402153274e+00   3.692379000000000e-01  3.91024586e+00   2.87638968e+00  -8.58823340e-01
C     8.749245364000000e+00   1.613241606285109e+00   3.517959000000000e-01 -2.76458240e-01   3.38992550e-01   2.97290630e-01
C     1.001906112560000e+01   2.265496825063472e+00   6.552510000000000e-02 -3.42821423e+00   3.36136522e+00   6.33731500e-02
C     2.638777964400000e+00   3.753411716094040e+00  -5.683182000000002e-01 -1.82290613e+00  -1.26455421e+00   1.92489451e+00
C     3.845423762600000e+00   4.490777814029707e+00  -4.927401000000025e-01  2.18539092e+00   3.77582450e-01   6.39253450e-01
C     5.127590801100000e+00   3.878956944626764e+00  -1.777701000000000e-01 -1.59532811e+00  -3.52421651e+00  -9.53716400e-02
C     6.371243644300000e+00   4.542498173556543e+00   3.121590000000000e-02 -1.01152763e+00  -1.83568128e+00   3.74475850e-01
C     7.583678347100000e+00   3.793294616172662e+00   2.221842000000000e-01 -5.92517490e-01  -6.63226680e-01  -8.09693600e-02
C     8.856671937400000e+00   4.531820567901828e+00   1.182387000000000e-01 -1.66568122e+00  -6.23743419e+00  -2.47880160e-01
C     1.002257784250000e+01   3.732067520108127e+00  -1.534653000000006e-01  1.31096729e+00   8.73464490e-01   5.38634430e-01
C     1.126374995900000e+01   4.507853785627193e+00  -3.975110999999991e-01 -8.71217240e-01  -1.08836793e+00  -3.18694990e-01
C     3.852700294700000e+00   5.912698877175490e+00  -3.690075000000022e-01  1.55137354e+00   1.48469929e+00   5.48438060e-01
C     5.117650195600000e+00   6.683745479537526e+00  -6.254880000000185e-02 -1.50110893e+00  -1.74053271e+00   8.01261860e-01
C     6.262122186199999e+00   5.904853319736572e+00   1.606482000000000e-01  4.02535235e+00   3.12108796e+00   2.97587720e-01
C     7.634795397200000e+00   6.611004723302179e+00   4.344486000000000e-01 -3.30057940e+00  -1.81374253e+00  -1.96194429e+00
C     8.814973750900000e+00   5.858380011369486e+00   2.063418000000000e-01  7.54768280e-01   3.89517307e+00  -1.28666750e-01
C     1.002376518370000e+01   6.595196026250031e+00  -9.270300000000731e-03 -2.86101000e-03   6.54631000e-02   6.99997320e-01
C     1.123564185980000e+01   5.980594684254591e+00  -3.226614000000012e-01  1.34350355e+00  -3.38067207e+00   2.17984540e-01
C     1.251767317540000e+01   6.611500669030857e+00  -2.479968000000028e-01 -2.05687900e+00   2.04799862e+00   5.46943190e-01
