32
Lattice="9.86 0 0 4.93 8.53901048131456 0 0 0 30 " PBC="1 1 1" Properties=species:S:1:pos:R:3:force:R:3 Energy="-255.01085836"
C     4.979558627799999e+00   8.404894732038604e+00  -2.303610000000020e-01 -1.30269794e+00   1.36837405e+00   3.71830270e-01
C     1.295858979600000e+00   5.932854955243216e-01  -1.976373000000002e-01 -2.68628459e+00  -3.13259550e-01  -1.95405470e-01
C     7.378142998900000e+00   8.406047754623719e+00  -1.716125999999996e-01  3.94803280e+00   6.21842460e-01  -5.09388700e-02
C     3.713197662300000e+00   6.050811992112888e-01  -2.669193000000014e-01 -1.16099713e+00  -4.98544940e-01  -5.12161170e-01
C     9.868666348400000e+00   8.425452058208785e+00  -3.740175000000008e-01 -8.62190210e-01   5.75332190e-01  -1.32256240e-01
C     6.132546305999999e+00   6.211542640278975e-01  -4.005113999999992e-01  1.78648034e+00   5.57286390e-01   1.55995032e+00
C     1.227495931680000e+01   8.424895314725489e+00  -2.760102000000018e-01  2.67147374e+00  -4.99293680e-01  -1.57098858e+00
C     8.642182969699999e+00   5.634087787063736e-01  -1.574406000000010e-01 -6.63636360e-01   2.04810497e+00  -5.59759220e-01
C     1.303883343400000e+00   1.991569126029683e+00  -3.433487999999976e-01 -1.01639814e+00   2.38592196e+00   7.05308270e-01
C     2.475298720700000e+00   2.793656226947986e+00  -4.201191000000009e-01  1.69645586e+00  -2.60290938e+00  -5.71855380e-01
C     3.687718239100000e+00   2.017855188940791e+00  -3.888317999999984e-01  1.47471725e+00   1.01110531e+00   2.33224010e-01
C     4.948911775799999e+00   2.742074711731555e+00  -3.873156000000009e-01 -1.74224271e+00   1.85289345e+00   7.40445140e-01
C     6.170524561000000e+00   2.072357558082011e+00  -2.507736000000023e-01  3.69189450e-01  -8.96266400e-01  -8.10105010e-01
C     7.412014120199999e+00   2.793020156057331e+00  -1.887108000000026e-01  5.03290880e-01  -1.24488270e-01   3.25384860e-01
C     8.650576886300000e+00   2.076395058407269e+00  -1.374471000000028e-01  1.54425860e+00  -1.54089404e+00  -5.05903450e-01
C     9.978981507399999e+00   2.758367143727395e+00  -2.674254000000005e-01 -3.66431643e+00   1.54648650e-01  -4.02595990e-01
C     2.497163862300000e+00   4.167878121382175e+00  -6.286640999999982e-01 -1.78998899e+00   1.80489836e+00   5.01982560e-01
C     3.694915201000000e+00   4.967513501611461e+00  -5.957226000000020e-01  1.03791090e+00  -3.26889004e+00   7.27220760e-01
C     4.882037065300000e+00   4.226992324693538e+00  -3.294867000000004e-01  1.93460977e+00  -1.56685355e+00  -1.05072062e+00
C     6.153621316500000e+00   4.915444921237250e+00  -2.286690000000000e-01  2.99476460e-01  -7.66232900e-01   3.71967300e-01
C     7.428044310999999e+00   4.242238642515473e+00  -1.885727999999993e-01 -1.45303442e+00  -2.27785219e+00  -3.64509530e-01
C     8.651118496099999e+00   4.884135443850863e+00  -3.280272000000011e-01  8.76090010e-01   1.69853254e+00  -2.64315440e-01
C     9.908474767300000e+00   4.245054039660834e+00  -4.407692999999995e-01 -2.19854754e+00  -4.94624006e+00   9.00221940e-01
C     1.107063101300000e+01   4.863730368237540e+00  -6.030612000000026e-01  5.04877994e+00   3.46210821e+00  -4.96213150e-01
C     3.777044662600000e+00   6.351312920980227e+00  -5.764785000000003e-01 -2.47865109e+00  -1.29468065e+00   3.29311600e-02
C     4.950618591100000e+00   6.993663997673153e+00  -3.308819999999990e-01  2.60429052e+00   1.74443447e+00   7.03217790e-01
C     6.191816984500000e+00   6.305646378323292e+00  -1.501500000000000e-01  3.86666330e-01   4.89741070e-01  -7.67484020e-01
C     7.464616875099999e+00   7.015203651608952e+00  -1.157460000000015e-01 -9.81275470e-01  -1.16517092e+00  -1.19973433e+00
C     8.715263465600000e+00   6.312638034714211e+00  -3.892470000000010e-01 -2.61588509e+00  -5.02018360e-01   1.56543179e+00
C     9.902916882500000e+00   7.008569182026412e+00  -4.493304000000009e-01  2.24415556e+00   1.01002027e+00  -2.16828720e-01
C     1.121013522300000e+01   6.352351435434805e+00  -5.737163999999986e-01 -6.69973802e+00  -4.78836321e+00  -4.16445360e-01
C     1.236392767440000e+01   6.952061511664069e+00  -5.832012000000013e-01  2.89000570e+00   6.26671380e+00   1.34910441e+00
