32
Lattice="9.86 0 0 4.93 8.53901048131456 0 0 0 30 " PBC="1 1 1" Properties=species:S:1:pos:R:3:force:R:3 Energy="-251.11588396"
C     5.002379055500000e+00   8.446268884907454e+00  -1.781630999999990e-01 -3.60227962e+00   7.55904618e+00  -6.40915000e-03
C     1.247642642900000e+00   6.494227436120423e-01  -2.364761999999985e-01  1.63227030e+00   5.07480390e-01   4.94057140e-01
C     7.434752808500001e+00   8.508952223819248e+00  -1.250625000000021e-01 -3.67700990e-01  -2.17193520e+00  -9.47630140e-01
C     3.711876866000000e+00   6.153759156360816e-01  -1.211261999999991e-01  2.01679783e+00   4.17953308e+00   9.34291760e-01
C     9.937689207800000e+00   8.477142104248419e+00  -7.485029999999782e-02 -3.39171860e+00   2.62156953e+00  -2.00691040e-01
C     6.193106672500000e+00   8.292747979459945e-01  -1.135136999999986e-01 -1.21073187e+00  -1.24737519e+01   5.18763050e-01
C     7.369259927699999e+00   3.913761524392720e-02  -1.041906000000026e-01  2.69949726e+00  -8.95099660e-01   9.32039170e-01
C     8.626705579799999e+00   7.318816622845727e-01  -9.325169999999972e-02  4.65606720e-01  -1.64939272e+00  -4.62556300e-01
C     1.220340746600000e+00   2.089654690050928e+00  -2.156069999999985e-01  4.72153820e-01  -3.86454710e-01   1.71812223e+00
C     2.370309144900000e+00   2.898921561761025e+00   4.475700000000000e-02  3.18377278e+00  -9.38086842e+00  -1.27972437e+00
C     3.662654069799999e+00   2.174295923631832e+00   4.804830000000000e-02 -3.99582790e-01  -2.60649228e+00  -1.36792984e+00
C     4.852964115800000e+00   2.878176291970179e+00   6.640800000000001e-03  1.52462487e+00   1.32072470e-01  -2.83311430e-01
C     6.142307015800000e+00   2.073572659273315e+00  -1.992164999999986e-01 -3.73434815e+00   1.06102266e+01   5.97302250e-01
C     7.286021955599999e+00   2.822293591784867e+00  -2.491994999999996e-01  5.81285129e+00   1.81142981e+00   9.77537710e-01
C     8.571908383300000e+00   2.141464367627385e+00  -5.831009999999992e-02  1.36544740e+00  -7.63275390e-01  -1.71561943e+00
C     9.908371040099999e+00   2.770487500592812e+00  -7.319189999999764e-02 -4.30178220e+00   2.80239729e+00   1.43485110e-01
C     2.502169389900000e+00   4.145407202963426e+00   2.169111000000000e-01 -1.17756218e+00   1.09500270e+01   9.51705030e-01
C     3.713883178800000e+00   5.023754840236933e+00   6.494880000000000e-02 -2.71483094e+00  -1.84056661e+00   1.54232486e+00
C     4.883850072800000e+00   4.382689482351982e+00   8.048580000000000e-02  4.35620650e+00  -5.24631405e+00  -9.24524910e-01
C     6.186690819799999e+00   4.974500461546616e+00  -1.539779999999880e-02  6.40287680e-01   2.08807508e+00  -2.18819462e+00
C     7.487940310699999e+00   4.260102850170367e+00  -2.541317999999997e-01 -4.26198099e+00  -2.34585020e-01   8.62636410e-01
C     8.737985096099999e+00   4.996428213508731e+00  -2.318306999999997e-01 -2.36873987e+00  -7.15667829e+00   1.06172332e+00
C     9.887211874499998e+00   4.241690864993181e+00   7.896720000000000e-02  2.80899954e+00  -4.76820910e-01  -2.67514050e-01
C     1.114352283780000e+01   4.932751189947381e+00   3.679728000000000e-01 -1.81434208e+00   1.19948976e+00  -2.08838743e+00
C     3.697448432200000e+00   6.396921142195584e+00   6.165270000000000e-02 -4.94359160e-01   2.40314128e+00  -7.39637320e-01
C     4.906031326000000e+00   7.150512726284927e+00  -1.980222000000005e-01  7.38708830e-01  -5.97190887e+00   9.96838070e-01
C     6.140270876500000e+00   6.442919510799772e+00  -2.134032000000019e-01  2.14870201e+00  -2.81659378e+00   9.90639710e-01
C     7.470395870399999e+00   7.040398258200507e+00  -1.720371000000007e-01 -5.50774572e+00   2.49313060e+00  -4.92443740e-01
C     8.581296335799999e+00   6.280686936080357e+00  -1.338065999999998e-01  4.18979128e+00   6.64916615e+00   5.93253250e-01
C     9.814145724899999e+00   7.078410602643380e+00   4.030500000000000e-03  2.35473862e+00  -4.39277220e-01   5.60159150e-01
C     1.106929473650000e+01   6.445795107969017e+00   2.563992000000000e-01  1.44602087e+00  -3.25782827e+00  -4.14637000e-01
C     1.234893810800000e+01   7.116898228409569e+00   1.258008000000000e-01 -2.50877247e+00   1.76105806e+00  -4.95667440e-01
