32
Lattice="9.86 0 0 4.93 8.53901048131456 0 0 0 30 " PBC="1 1 1" Properties=species:S:1:pos:R:3:force:R:3 Energy="-251.56316436"
C     4.943596792100000e+00   8.412624158934996e+00  -3.995160000000197e-02  5.46496010e-01   3.05743367e+00  -7.36224810e-01
C     1.265284598600000e+00   6.742044036567840e-01   2.133690000000000e-02 -6.18957510e-01  -1.72902215e+00  -9.35213580e-01
C     2.488467687400000e+00   1.110225064588640e-02  -4.865099999999956e-02  1.42061383e+00  -4.55513495e+00  -1.03212397e+00
C     3.736765921700000e+00   6.026808833653609e-01  -3.647048999999996e-01  1.01167083e+00   2.97186914e+00   1.32476251e+00
C     9.970398032299999e+00   8.471274352416875e+00  -4.058916000000004e-01 -3.79253302e+00  -1.78420179e+00   5.16246140e-01
C     6.271805297799999e+00   6.561399562061344e-01  -1.926660000000027e-01 -2.48322888e+00  -5.81481105e+00  -2.87326211e+00
C     7.471176092199999e+00   4.991137015664800e-02  -5.092374000000000e-01 -9.73875300e-02  -6.62112413e+00   1.14898779e+00
C     8.677896431999999e+00   6.308614111415616e-01  -2.077161000000025e-01  7.88925300e-02  -3.09800650e-01   5.43810440e-01
C     1.228594207500000e+00   2.033506512029793e+00  -3.159644999999998e-01  3.55865480e-01   1.37320188e+00  -6.26759670e-01
C     2.451267780800000e+00   2.784367064397318e+00  -6.757482000000010e-01  2.00931816e+00  -6.23376555e+00   2.27035907e+00
C     3.742846189300000e+00   2.073660867251574e+00  -4.549997999999995e-01  5.40724300e-01  -1.33953266e+00  -4.31454000e-02
C     5.063504695800000e+00   2.716387831185829e+00  -3.239832000000007e-01 -5.06508805e+00   1.65344078e+00  -1.90195807e+00
C     6.204685171900000e+00   1.953885021149662e+00  -1.868091000000014e-01  2.26152920e-01   5.83315220e+00   1.17017958e+00
C     7.410595019700000e+00   2.639525892322519e+00  -8.277390000000295e-02 -8.25105370e-01   5.36667684e+00  -4.74524110e-01
C     8.586905295400001e+00   2.039293314041984e+00  -6.377700000000175e-02  5.13327521e+00  -2.14210134e+00  -8.00106580e-01
C     9.845628852799999e+00   2.687475937162016e+00  -3.205521000000005e-01 -3.14085850e-01   3.02012685e+00   3.74671160e-01
C     2.559729111900000e+00   4.069103800775614e+00  -9.187644000000006e-01 -2.95088416e+00   5.90019103e+00  -3.13876590e-01
C     3.783652489500000e+00   4.845255450553117e+00  -8.152283999999987e-01 -8.35344600e-02  -9.55610400e-02   8.41189520e-01
C     5.007548900000000e+00   4.180565639323674e+00  -5.398670999999986e-01  1.14838147e+00  -2.05655758e+00   1.84544906e+00
C     6.205782343399999e+00   4.851899398437291e+00  -1.505076000000010e-01  5.52685580e-01   1.42358228e+00  -2.00752140e+00
C     7.488315483699999e+00   4.121219601877779e+00  -1.510142999999999e-01 -3.28709189e+00  -4.40705000e-02   6.44472390e-01
C     8.648464529200000e+00   4.901741431828841e+00  -2.811345000000003e-01  6.93248840e-01  -3.79988111e+00  -4.84256300e-02
C     9.863990884300000e+00   4.154016404109572e+00  -5.199053999999990e-01  1.02521600e+00  -1.05150003e+00  -3.35209900e-01
C     1.109113537600000e+01   4.776583618201595e+00  -8.994429000000004e-01  9.44109140e-01   3.31300751e+00   3.50545420e-01
C     3.723739431999999e+00   6.251236572055675e+00  -5.843468999999999e-01 -7.07100360e-01   2.22660607e+00  -7.08966260e-01
C     4.924490724999999e+00   7.064632311503166e+00  -2.734011000000010e-01  4.40405340e-01  -3.83086095e+00  -1.76966210e-01
C     6.182146543000000e+00   6.325941129921213e+00  -2.098292999999991e-01  2.84404670e-01  -8.95805530e-01   1.19063657e+00
C     7.433294613100000e+00   6.996885595547047e+00  -8.028930000000045e-02 -2.62227671e+00   2.80598162e+00   3.83228720e-01
C     8.600564451999999e+00   6.254180993649388e+00  -1.904141999999993e-01  1.64221230e+00   3.56559751e+00  -1.77938205e+00
C     9.754024572100001e+00   7.022085410934994e+00  -5.715089999999989e-01  5.24004539e+00   6.42904280e-01   1.26621320e-01
C     1.108064689960000e+01   6.373111136153362e+00  -9.416216999999989e-01 -2.04843434e+00  -3.68855911e+00   2.21285911e+00
C     1.231715720810000e+01   6.988594045590758e+00  -7.044408000000004e-01  1.60199014e+00   2.83851845e+00  -1.50352450e-01
