32
Lattice="9.86 0 0 4.93 8.53901048131456 0 0 0 30 " PBC="1 1 1" Properties=species:S:1:pos:R:3:force:R:3 Energy="-254.3419338"
C     5.189301238000001e+00   8.023848220576989e+00   8.872350000000000e-02  6.58766100e-02  -6.63210220e-01   4.09573800e-02
C     1.490227039700000e+00   2.383983280582904e-01   1.367703000000000e-01 -1.44390713e+00  -2.37965154e+00   4.43206400e-02
C     7.599788995500001e+00   8.059865169050896e+00   2.278287000000000e-01  1.87294117e+00  -1.40315369e+00   1.30671810e-01
C     3.908409639800000e+00   2.373725367293280e-01   1.794039000000000e-01 -1.27650130e-01  -1.52464492e+00   1.58928645e+00
C     1.008877112840000e+01   8.005359725865903e+00   3.139326000000000e-01 -3.07156101e+00   2.21685639e+00  -2.13923247e+00
C     6.303603452700000e+00   1.757366782331160e-01   9.759690000000000e-02  5.19764967e+00   2.65988376e+00   4.52249190e-01
C     1.258086414060000e+01   8.076102865989558e+00   3.145710000000000e-02 -1.03123340e+00  -1.12004973e+00   5.93442420e-01
C     8.954875121699999e+00   2.014510543925880e-01   1.035555000000000e-01 -4.62334651e+00   2.15590936e+00  -6.57605660e-01
C     1.479009613500000e+00   1.600939368496468e+00  -4.002599999999745e-02 -1.11193248e+00   2.24655900e+00  -2.06002009e+00
C     2.682302025700000e+00   2.313264818199535e+00  -1.989225000000019e-01  4.54076500e-01  -8.61311270e-01   1.14846677e+00
C     3.869936905799999e+00   1.629466921658576e+00   1.115178000000000e-01  2.08370754e+00  -2.33514300e-02  -1.56270738e+00
C     5.136440151100000e+00   2.310274285949230e+00  -9.139799999999809e-03 -8.64884590e-01   7.81859350e-01   2.01075780e-01
C     6.338921775499999e+00   1.644558171050194e+00   3.435210000000000e-02  2.33923533e+00  -1.22584346e+00   6.26788060e-01
C     7.664969511499999e+00   2.419630319122817e+00   3.133110000000000e-02 -2.86868519e+00  -4.31710794e+00  -2.72796350e-01
C     8.850643829199999e+00   1.667632370559355e+00   3.410400000000000e-02  2.84588415e+00  -4.38055380e-01  -1.63753941e+00
C     1.013260144130000e+01   2.345156314540239e+00  -3.299924999999995e-01 -1.88028029e+00  -1.26109046e+00   3.50022194e+00
C     2.740231694900000e+00   3.672938800478948e+00  -4.009341000000006e-01 -5.30830810e-01   4.69750639e+00   1.00768151e+00
C     3.997452341800000e+00   4.475712267059634e+00  -2.322896999999990e-01 -2.52181343e+00  -4.15961560e+00  -4.28842270e-01
C     5.182862214300000e+00   3.721944864744506e+00  -1.032498000000004e-01 -3.06864580e-01   9.47022330e-01   3.61484500e-01
C     6.383174638700000e+00   4.439337192486196e+00   6.890309999999999e-02 -3.48241770e-01   1.36577973e+00  -2.80437970e-01
C     7.619158521799999e+00   3.793037848127528e+00  -1.329119999999762e-02  5.04594960e-01  -4.00386000e-01   5.15220410e-01
C     8.831154602500000e+00   4.452436376122935e+00  -5.758769999999913e-02  2.58628862e+00   1.95022142e+00  -6.72888460e-01
C     1.012030912720000e+01   3.754994848637032e+00  -2.409120000000016e-01 -8.10667850e-01   7.15907920e-01  -6.77031280e-01
C     1.135834177040000e+01   4.469757502711301e+00  -3.306444000000006e-01 -7.41038570e-01   4.95739760e-01   9.60375600e-02
C     3.909936017100000e+00   5.822316696068673e+00  -1.142931000000011e-01 -1.88154229e+00   4.42524235e+00   2.03386230e-01
C     5.069416456000000e+00   6.582281199849555e+00   1.203930000000000e-02  4.13123152e+00   1.85721600e-02   1.34386536e+00
C     6.350298243499999e+00   5.855019910745606e+00   2.027793000000000e-01  2.03698600e-02   1.40470376e+00  -9.72084300e-01
C     7.625675439499999e+00   6.599268451128152e+00   2.765019000000000e-01 -2.47259152e+00   1.99716830e-01  -1.09331033e+00
C     8.822737367000000e+00   5.905431069185648e+00   1.304310000000000e-02 -7.93014660e-01  -7.73071580e-01   9.96389870e-01
C     9.986839582300000e+00   6.671217128751374e+00   4.631700000000000e-03  3.10014936e+00  -3.63034368e+00   1.58132180e-01
C     1.123938195500000e+01   5.934716459527856e+00  -1.792635000000011e-01  1.92934817e+00  -6.69627900e-02   3.66852540e-01
C     1.250869801180000e+01   6.655695171671145e+00  -4.889939999999982e-02  2.98732770e-01  -2.03363085e+00  -9.22034630e-01
