32
Lattice="9.86 0 0 4.93 8.53901048131456 0 0 0 30 " PBC="1 1 1" Properties=species:S:1:pos:R:3:force:R:3 Energy="-252.7739068"
C     5.488155323699999e+00   8.036937755131886e+00  -5.985452999999978e-01  1.24411487e+00   5.34942598e+00  -3.78081290e-01
C     1.800758274100000e+00   2.705576077676472e-01  -6.809027999999984e-01 -7.08969970e-01   1.36796770e-01   8.35368870e-01
C     7.952803864000000e+00   8.019268749256565e+00  -8.124327000000022e-01 -3.55963750e-01   5.70935832e+00   1.17968238e+00
C     4.221734261500000e+00   2.482390252958616e-01  -6.591927000000020e-01  1.36744947e+00   7.33160840e-01  -5.69557840e-01
C     1.041243938310000e+01   8.143511437130670e+00  -6.351300000000002e-01  1.68755908e+00  -2.19099553e+00   2.19944420e-01
C     6.734954985899999e+00   3.390894857374024e-01  -5.576967000000010e-01 -2.10148037e+00   1.05630459e+00   3.44818260e-01
C     1.287263598550000e+01   8.210997798657253e+00  -3.581714999999974e-01  7.74317740e-01  -1.45010013e+00  -1.22840613e+00
C     9.211430694800001e+00   2.292603059931184e-01  -6.068378999999986e-01 -1.44327603e+00   2.69902842e+00   1.27669590e-01
C     1.741888651100000e+00   1.732437055844695e+00  -3.074034000000019e-01  3.60783976e+00  -2.81247098e+00  -2.21960106e+00
C     3.086400913300000e+00   2.416840453618791e+00  -2.683325999999973e-01 -3.92440448e+00   1.58638386e+00   2.28898298e+00
C     4.276858908600000e+00   1.691134459883669e+00  -4.779711000000013e-01 -6.09407410e-01   4.60137890e-01   3.26216240e-01
C     5.504051221299999e+00   2.455545397201697e+00  -4.752246000000007e-01 -1.22796657e+00   1.27144407e+00   9.14037270e-01
C     6.717639790600000e+00   1.774544709713776e+00  -5.875935000000005e-01  9.02560040e-01  -7.47540620e-01  -1.56669200e+00
C     7.972828439400000e+00   2.454610973284871e+00  -8.330447999999997e-01 -2.02062557e+00  -8.95018650e-01   1.73664302e+00
C     9.122039639000000e+00   1.666983405762875e+00  -7.638639000000005e-01  4.20434256e+00   1.26637580e+00   1.59384014e+00
C     1.038949782530000e+01   2.428710532087039e+00  -3.797307000000032e-01 -3.89402210e-01  -2.57203491e+00  -4.38309630e-01
C     2.958337606400000e+00   3.906130381506954e+00   2.039907000000000e-01  1.66668315e+00  -1.93673748e+00  -2.45783521e+00
C     4.175899903600000e+00   4.628282524470405e+00   1.265367000000000e-01  3.56892564e+00  -5.60850160e-01  -2.06110447e+00
C     5.463034015700000e+00   3.917289758132951e+00  -2.474127000000017e-01 -1.20317320e-01  -9.75449490e-01  -6.91478430e-01
C     6.725140046100000e+00   4.616942803943069e+00  -5.712192000000016e-01 -6.36837100e-01  -2.99447166e+00   1.30832701e+00
C     7.968278640999999e+00   3.858006055463560e+00  -7.074533999999986e-01  9.21170840e-01   5.82724080e-01   4.47753640e-01
C     9.252676257999999e+00   4.518401342152297e+00  -4.883124000000016e-01 -1.66870279e+00   5.60741100e-02  -3.78422800e-01
C     1.047377262570000e+01   3.777498813026339e+00  -1.420851000000027e-01 -3.15403749e+00   4.64270797e+00  -1.88000809e+00
C     1.160399657120000e+01   4.657382618285197e+00   9.365699999999999e-03  2.38203195e+00  -4.38792809e+00   7.83912460e-01
C     4.298997122899999e+00   6.029880913453998e+00  -1.212297000000007e-01 -1.78582569e+00   1.79939358e+00   6.60823670e-01
C     5.536220408000000e+00   6.728087194718490e+00  -4.012367999999995e-01 -3.31092750e-01  -5.23406154e+00   7.25111320e-01
C     6.780277806999999e+00   5.979499129210006e+00  -5.046603000000012e-01 -1.28578211e+00   1.96961261e+00  -5.95443890e-01
C     7.984441399500000e+00   6.678897968678135e+00  -7.333896000000024e-01  5.36937810e-01  -3.37518773e+00   2.76249540e-01
C     9.212388100799998e+00   5.937386608104952e+00  -6.420561000000014e-01  2.78341753e+00   4.51807690e-01   3.33373290e-01
C     1.052809259820000e+01   6.635804912999663e+00  -5.989539000000015e-01 -3.30755880e+00   2.77269336e+00   4.98475500e-01
C     1.174882838570000e+01   6.017745271759822e+00  -2.295020999999977e-01 -3.21033429e+00   1.35045374e+00  -1.35871990e-01
C     1.288268791040000e+01   6.840670119952469e+00  -1.505744999999976e-01  2.63463423e+00  -3.76103669e+00  -4.16780000e-04
