32
Lattice="9.86 0 0 4.93 8.53901048131456 0 0 0 30 " PBC="1 1 1" Properties=species:S:1:pos:R:3:force:R:3 Energy="-249.44194885"
C     5.611818408400000e+00   8.205417640698679e+00  -7.395245999999993e-01 -1.76346494e+00  -1.52455663e+00   1.61441889e+00
C     1.915686236900000e+00   3.776233075502888e-01  -7.505001000000000e-01 -6.75998910e-01  -1.05837504e+00  -6.38281830e-01
C     8.147472752700001e+00   8.142348936243923e+00  -8.967714000000022e-01 -3.08392397e+00   6.96255097e+00   1.09998594e+00
C     4.337060223199999e+00   4.388269213360032e-01  -7.049553000000017e-01  2.33251222e+00  -2.87954883e+00  -1.52968300e-01
C     1.053536306640000e+01   8.158590561127406e+00  -7.567529999999998e-01  7.54414810e-01  -3.07665000e-02   1.71628184e+00
C     6.882624015399999e+00   3.263780585665600e-01  -6.079329000000016e-01 -3.13691456e+00  -1.86702592e+00  -1.47515287e+00
C     1.301323347230000e+01   8.142328442618769e+00  -5.602800000000023e-01 -1.83750033e+00  -2.25191327e+00   5.08476140e-01
C     9.228350159000000e+00   3.704355954787488e-01  -6.877533000000007e-01  3.62417141e+00  -3.62160909e+00   4.94718450e-01
C     1.798347898500000e+00   1.766886668944998e+00  -4.523270999999980e-01  2.09179363e+00  -8.29272480e-01   3.60661582e+00
C     3.135312725100000e+00   2.339839072714343e+00   7.498170000000001e-02 -5.64527611e+00   5.90249262e+00  -2.37175964e+00
C     4.302466955500000e+00   1.897687743818266e+00  -3.299219999999998e-01  1.48767145e+00  -8.03920045e+00  -2.17502404e+00
C     5.516046749400000e+00   2.435919079344151e+00  -5.746836000000002e-01  3.26991839e+00   9.13802210e-01   5.40003930e-01
C     6.743391152600000e+00   1.688445013142888e+00  -7.440365999999976e-01  1.70933925e+00   3.35605650e+00   1.35813252e+00
C     7.950581518600000e+00   2.512592562246166e+00  -5.313780000000001e-01 -1.55729670e-01  -5.48753895e+00  -4.20493370e-01
C     9.204835242199998e+00   1.703435929161366e+00  -4.762842000000020e-01 -1.37313444e+00   5.07455907e+00   6.82142880e-01
C     1.037719555260000e+01   2.400865075082074e+00  -8.103300000000146e-02  3.39261205e+00   1.97184910e-01  -2.43371903e+00
C     3.135093093600000e+00   3.860129024249098e+00   7.075200000000001e-02 -1.88491599e+00  -2.27522246e+00   9.93198470e-01
C     4.358204598800000e+00   4.528683335451476e+00  -7.059869999999790e-02  1.15213907e+00   8.24221720e-01   1.09151047e+00
C     5.619502651500000e+00   3.796090117423604e+00  -3.694275000000005e-01 -2.24412529e+00   4.97364856e+00   3.18234090e-01
C     6.758953437100000e+00   4.684857482235331e+00  -4.857540000000000e-01  1.11699261e+00  -3.10195588e+00   1.85780000e-01
C     7.937269236799999e+00   3.852334786263163e+00  -3.839991000000005e-01  1.72615510e+00   3.90184609e+00  -6.16026500e-01
C     9.186194221999999e+00   4.554704945208017e+00  -2.959476000000016e-01  2.02129943e+00   2.15392187e+00   3.84267900e-02
C     1.053112006190000e+01   3.851052995400011e+00   2.494020000000000e-02 -7.99216376e+00  -1.81160365e+00  -1.18751336e+00
C     1.166693048620000e+01   4.519836066693148e+00   7.878420000000000e-02  5.66768054e+00   6.50634410e-01   1.64434610e-01
C     4.398906974600000e+00   5.981475739355917e+00   1.454439000000000e-01 -7.57872750e-01   1.69438037e+00  -5.10400805e+00
C     5.610462313300000e+00   6.727975760631725e+00  -3.786771000000009e-01 -2.14149618e+00   2.30991380e+00  -1.84675310e-01
C     6.817480868800000e+00   6.103347912530669e+00  -6.089397000000005e-01 -4.19016180e-01  -1.39367627e+00   2.36220040e-01
C     8.043177173000000e+00   6.820548283316768e+00  -8.815154999999990e-01  1.33907780e-01  -4.81207616e+00   9.83013070e-01
C     9.187051647599999e+00   6.047774324524733e+00  -6.360114000000010e-01  4.45394299e+00  -2.76240029e+00   1.03716919e+00
C     1.058874550080000e+01   6.678823764677063e+00  -5.755274999999997e-01 -4.26461748e+00   4.56352930e-01   8.67393000e-02
C     1.173165685060000e+01   5.885289080485214e+00  -1.406177999999976e-01 -3.96492250e-01   5.13352006e+00  -2.12423137e+00
C     1.293896903690000e+01   6.686070395920916e+00  -2.652408000000008e-01  2.83809210e+00  -7.58344210e-01   2.12835122e+00
