32
Lattice="9.86 0 0 4.93 8.53901048131456 0 0 0 30 " PBC="1 1 1" Properties=species:S:1:pos:R:3:force:R:3 Energy="-257.35123985"
C     9.658443901299998e+00   1.884598977774313e+00   3.883059300000000e+00 -3.80833460e-01  -1.36547230e-01  -6.29454440e-01
C     1.089487725250000e+01   2.609277984719006e+00   3.833457600000000e+00 -7.90483820e-01   9.37808240e-01  -5.04299600e-02
C     2.248968731100000e+00   1.877531751140646e+00   3.812018400000000e+00  3.78832150e-01   9.44150020e-01  -2.65551180e-01
C     3.483438414000000e+00   2.607807823284664e+00   3.702024900000000e+00 -4.59490330e-01  -8.29056140e-01  -9.82438300e-02
C     4.710991652000001e+00   1.897306989340963e+00   3.649698600000000e+00 -3.40079100e-02  -1.90435964e+00  -8.46028500e-02
C     5.949091293900000e+00   2.563928837081612e+00   3.658671000000000e+00 -8.41076910e-01   1.96421859e+00  -3.68964040e-01
C     7.172207729099999e+00   1.884060166213025e+00   3.657701700000000e+00  3.09685310e-01  -5.69974270e-01   2.82799510e-01
C     8.413388374500000e+00   2.566508984488249e+00   3.771940799999999e+00  3.24998820e-01   1.55697742e+00   6.86291400e-02
C     1.086973513990000e+01   4.077607972092855e+00   3.728522400000000e+00 -9.34798520e-01  -2.20463689e+00   3.18486410e-01
C     1.209726851000000e+01   4.750166481479620e+00   3.659276100000000e+00  3.77310560e-01  -9.86720960e-01  -2.47791760e-01
C     3.458744339800000e+00   4.010327144548525e+00   3.615556800000000e+00  2.12068330e-01   5.96079100e-01   4.35872840e-01
C     4.684002909300000e+00   4.721189605586054e+00   3.606098700000000e+00  5.72640440e-01   1.15772511e+00   2.11219460e-01
C     5.914321975900000e+00   4.006588680370275e+00   3.654736200000000e+00  6.86971110e-01  -3.43483300e-01   2.20882580e-01
C     7.164506132400000e+00   4.702078702401081e+00   3.734242800000000e+00 -7.35453760e-01   9.59274380e-01  -1.02927700e-01
C     8.410289179299999e+00   4.028595588959542e+00   3.756621900000000e+00 -1.09506241e+00  -1.68598943e+00   5.42269900e-02
C     9.595111445099999e+00   4.760467858332587e+00   3.728829900000000e+00  2.11641204e+00  -4.40623260e-01  -1.47732740e-01
C     1.211059992020000e+01   6.134407196909993e+00   3.604240200000000e+00  6.96356400e-01   1.58384952e+00  -1.95900270e-01
C     1.334644901710000e+01   6.898582115978352e+00   3.625497000000000e+00 -1.01212218e+00  -1.07709490e+00   1.00920700e-01
C     4.693714664200000e+00   6.188491410708006e+00   3.652762200000000e+00  8.97654920e-01  -9.96352760e-01   3.33210660e-01
C     5.936365731400000e+00   6.909353138407720e+00   3.792669300000000e+00 -5.12967800e-02  -2.88045481e+00  -6.87602010e-01
C     7.153752372700000e+00   6.138095280926409e+00   3.780703500000000e+00 -2.02747120e-01   4.36017100e-02  -2.08944200e-02
C     8.375975491900000e+00   6.846697038939358e+00   3.756495300000000e+00  7.11513710e-01   5.58877120e-01  -4.54835060e-01
C     9.622834856399999e+00   6.168538988040228e+00   3.647747400000000e+00 -1.95609660e-01  -5.39264730e-01   4.06689100e-01
C     1.088705092680000e+01   6.822052686183135e+00   3.574099500000000e+00 -9.15444350e-01   8.11100050e-01   1.87100050e-01
C     1.333695299900000e+01   8.305133984941394e+00   3.704529000000000e+00 -7.84894720e-01   4.53595210e-01  -1.93252760e-01
C     9.635687218499999e+00   4.519104785835640e-01   3.845828100000000e+00  6.05932100e-01   6.95461590e-01  -3.80693040e-01
C     5.958017354700000e+00   8.289037181675649e+00   3.805237800000000e+00 -1.10445818e+00   1.22378304e+00   5.95150570e-01
C     2.240148566700000e+00   4.682850558602216e-01   3.812086500000000e+00  6.90329090e-01  -4.59769290e-01  -3.81856200e-02
C     8.392385243400000e+00   8.266244940292539e+00   3.734774100000000e+00  1.87629360e-01   8.83123680e-01  -1.28101750e-01
C     4.704008947900000e+00   4.359741233247400e-01   3.612487200000000e+00 -7.88886000e-02   1.06205690e-01   3.62989170e-01
C     1.087598618270000e+01   8.234993955127941e+00   3.556524300000000e+00 -5.94371490e-01   1.91952519e+00   1.53431830e-01
C     7.141314426399999e+00   4.742460536862048e-01   3.604796100000000e+00  1.44270587e+00  -1.34102807e+00   3.63554420e-01
