32
Lattice="9.86 0 0 4.93 8.53901048131456 0 0 0 30 " PBC="1 1 1" Properties=species:S:1:pos:R:3:force:R:3 Energy="-256.54395512"
C     9.793225614999999e+00   1.079868711552030e+00   3.828621600000000e+00  1.09460193e+00   1.13922490e-01  -1.01525916e+00
C     1.189136952500000e+00   1.786851900128495e+00   3.674397600000000e+00 -1.29578260e+00  -1.79902060e-01   4.30396330e-01
C     2.404722270400000e+00   1.089562537809346e+00   3.770484000000000e+00  6.10669550e-01  -3.61786000e-02  -4.36226190e-01
C     3.646770201400000e+00   1.783491030993672e+00   3.708246300000000e+00  5.69112590e-01  -3.27523190e-01  -1.35887830e-01
C     4.882399765400000e+00   1.047830002670651e+00   3.737048400000000e+00  2.59824880e-01   1.67478409e+00  -1.18012864e+00
C     6.112549585100000e+00   1.812154525202622e+00   3.617018400000000e+00 -5.45129210e-01  -3.84219190e-01   9.33685990e-01
C     7.346648778499999e+00   1.077012156376156e+00   3.629172600000000e+00 -9.68635740e-01   3.33496900e-01  -3.52073890e-01
C     8.563207031899999e+00   1.789037203690537e+00   3.764785499999999e+00  5.03048990e-01  -1.82962381e+00  -4.95955290e-01
C     1.103748243250000e+01   3.185356520225079e+00   3.449655300000000e+00  2.06264990e-01   5.11356910e-01   5.12922960e-01
C     2.415915934000000e+00   3.899597867709544e+00   3.366834900000000e+00 -1.29604190e-01   1.19138551e+00  -1.99694430e-01
C     3.676422721700000e+00   3.189325623076393e+00   3.507291600000000e+00 -2.04170532e+00   1.05756943e+00   2.12091230e-01
C     4.842819408300000e+00   3.968573859614364e+00   3.578346900000000e+00  1.91468809e+00  -1.78331234e+00  -3.80466100e-02
C     6.094867597800000e+00   3.263275588585813e+00   3.703886100000000e+00 -5.30922680e-01  -1.74881539e+00   1.06529950e-01
C     7.332114349699999e+00   3.908904449841591e+00   3.857099700000000e+00  7.97785030e-01  -3.59655230e-01  -1.57375273e+00
C     8.568531234700000e+00   3.158006581998268e+00   3.688290000000000e+00 -1.00870420e-01   3.18343353e+00   9.55754070e-01
C     9.798369823500000e+00   3.896576680411615e+00   3.542178900000000e+00  3.10062930e-01  -1.36621190e-01   3.76897800e-02
C     1.224428061700000e+01   5.391249429726160e+00   3.258781500000000e+00  1.46057140e+00  -2.58863690e+00   6.00045550e-01
C     3.662714906000000e+00   6.034112932437990e+00   3.444075000000000e+00 -1.62149670e+00   2.85321165e+00  -4.97285790e-01
C     4.877211581300000e+00   5.363667657364817e+00   3.536052900000000e+00  3.60242310e-01  -5.49284780e-01   1.15851718e+00
C     6.119138973800000e+00   6.014498654585221e+00   3.816638699999999e+00 -2.39974890e-01   1.81080571e+00  -1.05518158e+00
C     7.348720265900000e+00   5.314373999226292e+00   3.832874700000000e+00  1.08750613e+00   5.78962450e-01   6.12610270e-01
C     8.619662532500000e+00   6.018122525242828e+00   3.802755900000000e+00 -1.46876004e+00   1.56801994e+00  -1.02795321e+00
C     9.833697266800000e+00   5.330931567497536e+00   3.541936500000000e+00 -1.14089615e+00  -1.78769010e-01  -9.28444900e-02
C     1.100649713600000e+01   6.086690010886285e+00   3.279582600000000e+00  1.12458611e+00  -3.54064850e-01   7.13413290e-01
C     1.352161339610000e+01   7.496454597152320e+00   3.561783900000000e+00 -8.30197020e-01  -9.72129630e-01  -5.56304170e-01
C     4.880234903799999e+00   8.197910825805501e+00   3.777111600000000e+00  7.55049000e-03  -6.21645470e-01  -9.95176000e-02
C     6.119452620400000e+00   7.458981747391574e+00   3.811707300000000e+00  5.09265300e-02   4.66746830e-01   2.50653910e-01
C     7.344653163799999e+00   8.217681879890684e+00   3.810867000000000e+00  1.25246260e-01  -1.74529417e+00   2.07365560e-01
C     8.585875566300000e+00   7.488604514037847e+00   3.732872700000000e+00 -2.85127330e-01  -1.40149920e+00   5.07799970e-01
C     9.814426587000000e+00   8.178405676506666e+00   3.623955900000000e+00  6.13408900e-02   5.54356450e-01  -1.05545820e-01
C     1.103933586600000e+01   7.509737625684695e+00   3.367713900000000e+00 -6.92139740e-01  -8.08131300e-01   2.85253270e-01
C     1.226389688980000e+01   8.206234311660985e+00   3.406202400000000e+00  1.34721294e+00   1.07254430e-01   1.33692815e+00
