32
Lattice="9.86 0 0 4.93 8.53901048131456 0 0 0 30 " PBC="1 1 1" Properties=species:S:1:pos:R:3:force:R:3 Energy="-253.10274338"
C     5.087552989300000e+00   7.732652336819810e+00   6.990449999999999e-02 -3.78122938e+00  -1.38006170e-01   7.92931000e-03
C     6.259831806799999e+00   8.485623732577992e+00  -2.717820000000160e-02 -7.66321970e-01   1.95508608e+00   4.08475440e-01
C     7.457436280800000e+00   7.769848010300376e+00   5.757420000000000e-02 -6.36772050e-01   1.02790030e+00  -4.78750390e-01
C     8.654408876700000e+00   8.448906585244725e+00  -9.717360000000141e-02  2.48009950e-01   1.79916756e+00   4.33250000e-01
C     9.842184754799998e+00   7.819294175166073e+00  -1.003494000000025e-01  4.10591805e+00  -4.08574353e+00  -9.58570750e-01
C     1.117036077180000e+01   8.484615104660094e+00  -1.165067999999998e-01 -1.81595372e+00  -1.56978477e+00  -4.67201640e-01
C     1.237229817350000e+01   7.766024497577747e+00  -2.451653999999976e-01  3.05900985e+00  -3.18120360e-01   2.40801425e+00
C     1.366817302770000e+01   8.415297381555865e+00   9.829080000000000e-02 -4.87661580e-01   2.83889661e+00  -2.02024643e+00
C     1.297677705900000e+00   1.409113401326831e+00  -2.382849000000000e-01  2.48838116e+00  -8.43571080e-01  -7.94047690e-01
C     2.644916455300000e+00   2.120462329791406e+00  -4.053777000000025e-01 -4.10880260e+00  -3.41885343e+00   8.46113140e-01
C     3.788230438200000e+00   1.311042097453088e+00  -1.835343000000016e-01  2.98784100e-01   2.39122168e+00  -8.90386020e-01
C     5.031447124300000e+00   2.014576721257100e+00  -1.512624000000002e-01  2.85297610e-01  -2.12402360e-01  -2.65264560e-01
C     6.291296397900000e+00   1.326675574010186e+00  -9.063569999999999e-02 -2.30522622e+00   6.23545850e-01   6.68931360e-01
C     7.464630235400000e+00   2.034534181941061e+00  -3.940709999999825e-02  2.07050487e+00   3.90719294e+00  -3.18463160e-01
C     8.720524712300000e+00   1.430813759439865e+00   4.014180000000001e-02  8.94872880e-01  -3.15535386e+00  -1.79778513e+00
C     9.952321645000000e+00   2.133330191634242e+00  -3.724515000000004e-01 -4.29615850e-01  -1.02066064e+00   2.53704206e+00
C     2.597951845600000e+00   3.485506239591376e+00  -5.755317000000026e-01  5.02751040e-01   2.69032705e+00   9.06945670e-01
C     3.824772584200000e+00   4.167251443403048e+00  -4.155525000000004e-01  9.20866590e-01   1.40993363e+00   6.77270380e-01
C     5.035634814200000e+00   3.424630609198199e+00  -1.907847000000018e-01  7.21163200e-02   2.32143603e+00   1.69867394e+00
C     6.226738146499999e+00   4.217790174659662e+00   2.640177000000000e-01  7.77199550e-01  -1.08946166e+00  -3.94789632e+00
C     7.492215655999999e+00   3.583905014517027e+00  -1.105851000000015e-01 -2.41276016e+00  -4.05878447e+00   2.09544140e+00
C     8.697056581199998e+00   4.220864816163195e+00  -2.597651999999968e-01  1.39703231e+00   4.15346820e-01  -3.22472630e-01
C     9.988133657999999e+00   3.546163612876685e+00  -4.101794999999981e-01  3.19828900e-02   1.21308375e+00  -1.82743380e-01
C     1.127391566830000e+01   4.313711782645065e+00  -4.599623999999984e-01 -3.74358576e+00  -3.08739806e+00  -9.12523270e-01
C     3.813624671000000e+00   5.647868212956570e+00  -2.569562999999988e-01 -2.53186132e+00  -3.06329331e+00  -3.26906740e-01
C     4.988501499900000e+00   6.255479862533502e+00   6.572190000000000e-02  2.21898590e-01   4.85573478e+00  -7.56049500e-02
C     6.178376473399999e+00   5.645047265454396e+00   2.235855000000000e-01  3.00298166e+00  -1.84569583e+00   2.69690010e-01
C     7.416802086900000e+00   6.416077472916311e+00   1.543215000000000e-01  1.03595337e+00  -4.51543658e+00  -1.23907225e+00
C     8.654399066000000e+00   5.629982230824952e+00  -2.286360000000016e-01 -2.18483015e+00   6.22614590e-01   1.92248051e+00
C     9.841238737099999e+00   6.283069063833962e+00  -2.706471000000015e-01  2.20918603e+00   5.43082291e+00   3.02265610e-01
C     1.112377237040000e+01   5.724295260016133e+00  -4.180841999999991e-01  2.40456778e+00  -2.61047126e+00   8.88361800e-02
C     1.241677007660000e+01   6.345357473511056e+00  -3.320630999999992e-01 -8.22693820e-01   1.53072679e+00  -2.73423980e-01
