32
Lattice="9.86 0 0 4.93 8.53901048131456 0 0 0 30 " PBC="1 1 1" Properties=species:S:1:pos:R:3:force:R:3 Energy="-256.56090943"
C     4.968682801299999e+00   8.458743183757267e+00  -2.791589999999999e-01 -1.07138918e+00  -2.47768080e-01   1.04574130e-01
C     1.280454356500000e+00   6.327236839371448e-01  -2.637728999999993e-01 -1.80992550e+00  -1.11245418e+00  -5.07152700e-02
C     7.379560817600000e+00   8.416896140488035e+00  -2.512025999999992e-01  2.78892664e+00   3.09675930e+00  -1.60933520e-01
C     3.718378944400000e+00   6.426162129683295e-01  -3.104391000000000e-01 -1.47055508e+00  -1.93276665e+00  -1.48678150e-01
C     9.855621173999999e+00   8.435114460907535e+00  -3.786036000000017e-01  8.50991000e-02   1.82482378e+00  -1.58149870e-01
C     6.134659649100000e+00   6.276578305797800e-01  -3.980925000000006e-01  1.36826877e+00   1.07967139e+00   9.28001910e-01
C     1.228926760650000e+01   8.433948629806700e+00  -3.219653999999998e-01  1.85104345e+00   7.46357730e-01  -7.39754100e-01
C     8.641475859800000e+00   6.029861529900208e-01  -2.326416000000009e-01 -7.06362800e-01   1.59450699e+00  -3.56831520e-01
C     1.280060942500000e+00   2.028713907007788e+00  -3.543866999999992e-01  7.64258900e-02   1.61914607e+00   5.09198770e-01
C     2.482439382000000e+00   2.774529099643101e+00  -4.020119999999991e-01  5.16451040e-01   4.60043470e-01  -5.23615330e-01
C     3.688020300200000e+00   2.038831182794806e+00  -3.673809000000006e-01  1.42798648e+00   1.37150235e+00  -1.50978440e-01
C     4.931137597500000e+00   2.791469215583849e+00  -3.917250000000010e-01 -4.58366690e-01   1.15823140e-01   5.48181170e-01
C     6.170601173200000e+00   2.105551936641754e+00  -3.222671999999989e-01 -1.58564660e-01  -1.53546230e+00  -3.95295060e-01
C     7.412634955100000e+00   2.815771068629719e+00  -2.823725999999986e-01  2.50734310e-01  -7.54886790e-01   3.65071220e-01
C     8.648006778699999e+00   2.081881201860460e+00  -2.132225999999982e-01  1.14861671e+00  -6.89625880e-01  -5.47016040e-01
C     9.958218072899999e+00   2.781902449802476e+00  -3.000347999999988e-01 -3.46565251e+00  -1.04507610e-01  -1.27002080e-01
C     2.486978235800000e+00   4.222478006023077e+00  -5.522804999999984e-01 -1.34784062e+00  -1.27101647e+00   5.49983360e-01
C     3.680081915600000e+00   4.958410233318943e+00  -5.433957000000014e-01  1.66849544e+00  -1.34098199e+00   6.66724710e-01
C     4.896702632099999e+00   4.227071225150373e+00  -3.562319999999985e-01  8.59294780e-01  -2.99231950e-01  -8.29089790e-01
C     6.151560428600000e+00   4.936452680210252e+00  -2.941950000000020e-01  5.09165170e-01  -1.20501666e+00   1.06539890e-01
C     7.412203629400000e+00   4.242049247263028e+00  -2.814978000000004e-01 -8.08295710e-01  -1.12800348e+00  -1.60094810e-01
C     8.645723843599999e+00   4.896478839670018e+00  -3.602999999999987e-01  7.68607900e-01   1.86910249e+00  -2.62475100e-02
C     9.898375070699998e+00   4.236087053975576e+00  -3.984297000000012e-01 -9.11982100e-01  -2.86451625e+00   1.38843330e-01
C     1.108775383970000e+01   4.904501325406082e+00  -5.205641999999990e-01  2.27948686e+00   1.86806134e+00  -1.74320520e-01
C     3.754176364600000e+00   6.364978241011790e+00  -5.152014000000023e-01 -2.55062791e+00  -1.62638801e+00   6.18874000e-03
C     4.931039194699999e+00   7.014818029895676e+00  -3.625542000000017e-01  3.23805252e+00   2.36257094e+00   6.32106370e-01
C     6.190494807799999e+00   6.322059637317424e+00  -2.498585999999996e-01 -3.83039190e-01   1.12713480e+00  -5.33639560e-01
C     7.436690298499999e+00   7.058136600840926e+00  -2.348537999999998e-01  1.56007300e-02  -2.94217638e+00  -6.73159620e-01
C     8.709407611600000e+00   6.339205628800845e+00  -4.011852000000005e-01 -2.97635693e+00  -8.76240360e-01   9.51463360e-01
C     9.897022278700000e+00   7.036901106458423e+00  -4.404512999999994e-01  1.21257517e+00   5.17479400e-02   1.76585200e-02
C     1.115723499190000e+01   6.351951724354236e+00  -5.067486000000017e-01 -2.33785597e+00  -2.16636944e+00  -3.06602320e-01
C     1.235799294040000e+01   7.004664548704223e+00  -5.016420000000004e-01  3.91983880e-01   2.91016073e+00   5.37588040e-01
