32
Lattice="9.86 0 0 4.93 8.53901048131456 0 0 0 30 " PBC="1 1 1" Properties=species:S:1:pos:R:3:force:R:3 Energy="-253.97772072"
C     4.983434248700000e+00   8.466479185691727e+00  -1.450500000000012e-01 -2.87369886e+00   5.65789906e+00  -5.22631300e-02
C     1.244312723700000e+00   6.622442386279720e-01  -1.909128000000031e-01  1.22173387e+00   4.27737280e-01   4.00222990e-01
C     7.429269662499999e+00   8.515465097892553e+00  -1.052174999999984e-01 -5.32051460e-01  -1.76693207e+00  -7.40673200e-01
C     3.704952040100000e+00   6.377169557054295e-01  -1.008402000000004e-01  1.80134627e+00   3.53009644e+00   6.82754390e-01
C     9.918993809700000e+00   8.494700615328128e+00  -6.502019999999931e-02 -2.62650033e+00   2.04524569e+00  -1.44579550e-01
C     6.184305094200000e+00   8.062081127660561e-01  -9.744299999999839e-02 -1.04825123e+00  -9.28040112e+00   2.71556830e-01
C     7.373607300300000e+00   3.653304626731760e-02  -8.752499999999941e-02  2.12273587e+00  -9.69128990e-01   6.91160700e-01
C     8.626332625299998e+00   7.245325629149607e-01  -7.967130000000111e-02  5.05930130e-01  -1.17412674e+00  -3.49402480e-01
C     1.222810578000000e+00   2.099840534092101e+00  -1.723910999999987e-01  2.72008150e-01  -2.95610110e-01   1.32158834e+00
C     2.396328551000000e+00   2.888484756201845e+00   2.348490000000000e-02  2.56057723e+00  -6.81864854e+00  -7.19485360e-01
C     3.672050945600000e+00   2.168377023127515e+00   2.439210000000000e-02 -4.85945120e-01  -2.41617777e+00  -9.88097800e-01
C     4.871989725300000e+00   2.863944750153687e+00  -6.389999999999674e-03  1.28335111e+00   4.55553960e-01  -1.99393980e-01
C     6.145722223999999e+00   2.084699502269384e+00  -1.625712000000021e-01 -2.80846976e+00   7.90366521e+00   5.32510170e-01
C     7.310910222500000e+00   2.823528588870589e+00  -2.011055999999982e-01  4.43446887e+00   1.50368283e+00   7.81686010e-01
C     8.583443991699999e+00   2.138859627870566e+00  -5.295990000000117e-02  1.15770591e+00  -6.04331060e-01  -1.32530671e+00
C     9.895235350899998e+00   2.790806076029972e+00  -6.521369999999749e-02 -3.22167282e+00   2.01529411e+00   1.08057960e-01
C     2.494464292900000e+00   4.175440439843473e+00   1.606788000000000e-01 -9.63589650e-01   7.92456435e+00   4.26192810e-01
C     3.709944651100000e+00   5.010992520563629e+00   4.143720000000000e-02 -1.99219029e+00  -1.38665263e+00   1.17730522e+00
C     4.893697945000000e+00   4.353167732199687e+00   5.016840000000000e-02  3.24789784e+00  -4.04230896e+00  -6.74430610e-01
C     6.180627659299999e+00   4.975929464950443e+00  -2.249039999999880e-02  5.22214500e-01   1.62828043e+00  -1.65046631e+00
C     7.464466608700000e+00   4.262289861534505e+00  -2.038022999999995e-01 -3.30678567e+00  -1.45994320e-01   6.29168730e-01
C     8.708149377000000e+00   4.995879240524973e+00  -1.877921999999970e-01 -1.89963014e+00  -5.46810041e+00   9.42971950e-01
C     9.883203735199999e+00   4.248687132449760e+00   5.228370000000000e-02  2.05118824e+00  -4.42055270e-01  -3.30604650e-01
C     1.113529141400000e+01   4.940862737562751e+00   2.687709000000000e-01 -1.46524625e+00   1.20715789e+00  -1.47802213e+00
C     1.355214468890000e+01   6.396338354730323e+00   3.479040000000000e-02 -1.23960340e-01   1.82782202e+00  -5.34767350e-01
C     4.913563379999999e+00   7.143217508071444e+00  -1.620618000000000e-01  5.02896140e-01  -4.35660604e+00   7.78898610e-01
C     6.147092172399999e+00   6.437806949055082e+00  -1.728345000000004e-01  1.65065161e+00  -2.35904534e+00   7.36357610e-01
C     7.455052280699999e+00   7.056222837812149e+00  -1.428797999999993e-01 -4.18123457e+00   1.98502220e+00  -3.35319420e-01
C     8.594387901499999e+00   6.309747494276627e+00  -1.146336000000012e-01  3.30102402e+00   5.07463187e+00   3.72095310e-01
C     9.829207860899999e+00   7.090350530217354e+00  -4.662599999999628e-03  1.53273218e+00  -4.07092120e-01   3.44854170e-01
C     1.107344042280000e+01   6.434996248365485e+00   1.858689000000000e-01  1.37573698e+00  -2.65379484e+00  -3.11034440e-01
C     1.234205661680000e+01   7.117495446802542e+00   8.610990000000000e-02 -2.01497243e+00   1.40035297e+00  -3.63534700e-01
