52
Lattice="8.88768389401873 1.33226762955019e-15 0 4.44384194700937 7.69696003302603 0 0 0 30 " PBC="1 1 1" Properties=species:S:1:pos:R:3:force:R:3 Energy="-414.57661935"
C     1.242750418493249e+01   6.491009184003634e+00  -9.306060000000116e-02  1.30339930e-01   5.58420042e+00  -3.50227220e-01
C     8.623224594133367e+00   6.307596322239156e+00   1.102920000000000e-01  5.36304060e-01  -1.18271437e+00   2.26853340e-01
C     1.002175249151538e+01   5.905286073579894e+00   2.227515000000000e-01 -2.50999100e-01   1.55019288e+00  -4.62934350e-01
C     1.035557660826908e+01   4.522485717575833e+00   1.686702000000000e-01  5.92020500e-01  -3.66034810e-01   3.26547230e-01
C     6.267344850146484e+00   5.715195868080592e+00  -2.651834999999991e-01  1.61824950e-01  -5.78013250e-01  -6.06074200e-02
C     7.608650861218841e+00   5.233258643670972e+00  -1.882530000000315e-02 -1.69921520e-01   4.54364458e+00  -7.35718840e-01
C     7.884099603692238e+00   3.898600925384153e+00  -4.199700000000206e-02  4.58286625e+00  -1.50566060e-01   1.20777887e+00
C     9.360180053107580e+00   3.496595399372479e+00   1.662354000000000e-01 -2.08784056e+00   5.82387150e-01  -1.98435054e+00
C     9.686231756992216e+00   2.126094092769955e+00  -1.202292000000007e-01 -1.17434800e-02   3.21008331e+00  -4.05374000e-03
C     3.895515313138068e+00   5.198289276075474e+00  -5.542200000000008e-02 -1.20364688e+00  -4.29290600e+00  -4.78484790e-01
C     5.213282426774243e+00   4.764418104630799e+00  -2.868752999999984e-01  9.37886110e-01   2.25663840e-01   1.65527983e+00
C     5.556258902654948e+00   3.398167598144043e+00  -6.160320000000041e-02 -8.38910720e-01   1.15053586e+00  -1.57548532e+00
C     6.862445319761028e+00   2.990458624750139e+00  -1.266405000000006e-01  1.97072547e+00  -2.50346947e+00   8.18712510e-01
C     7.254613303980129e+00   1.597181397662042e+00  -5.305560000000042e-02 -2.26391206e+00   1.15627244e+00  -1.00490830e-01
C     8.589439971395350e+00   1.254978711086659e+00  -1.755492000000025e-01  2.89885135e+00  -3.45610751e+00  -7.91951500e-01
C     2.863103109900462e+00   4.143251724782515e+00   7.937700000000000e-02 -6.36973410e-01   1.52597248e+00   1.56060600e-02
C     3.185512774248093e+00   2.781771794122352e+00   8.997300000000000e-03  1.22206410e-01   2.86915430e-01  -1.81329620e+00
C     4.573100732693216e+00   2.441277678734428e+00  -6.067230000000023e-02 -2.49828838e+00  -2.28045216e+00   1.74904816e+00
C     4.844371686009360e+00   1.061207049605006e+00   1.753422000000000e-01  1.97186240e-01  -1.65919465e+00  -1.79513647e+00
C     6.194379717302135e+00   6.514354448622626e-01   8.535990000000000e-02  2.19563093e+00  -1.99473558e+00   3.87017950e-01
C     1.107341941750139e+01   6.937116674625602e+00   1.370064000000000e-01 -1.75621635e+00  -5.86878620e-01  -3.59785770e-01
C     2.180880404648957e+00   1.802582934840224e+00  -3.158550000000027e-01 -4.82531160e-01  -6.89514430e-01   2.54253787e+00
C     2.503061566630611e+00   4.208347532722635e-01  -2.336676000000004e-01  5.19883400e-01  -9.83818130e-01  -5.25937250e-01
C     8.264295481134592e+00   7.691318081328409e+00   4.558230000000000e-02  1.22096491e+00   1.15271142e+00   1.15134700e-01
C     4.606920106321985e+00   7.565849551031378e+00  -3.464985000000027e-01 -3.20303113e+00  -2.09561982e+00   1.32645137e+00
C     5.953652003976228e+00   7.092317637883320e+00  -3.734454000000014e-01 -6.36139230e-01   1.86140540e+00   4.92776320e-01
C     8.864567031609408e-01   1.140273378786778e+00   3.181871700000000e+00  2.09722321e+00   3.26016266e+00   1.11434812e+00
C     3.348203026247805e+00   5.587912933395688e-01   3.326286000000000e+00 -1.93361587e+00   5.73305850e-01   2.03804530e-01
C     4.674591060511206e+00   1.001117960225200e+00   3.526488600000000e+00  7.26040330e-01  -2.20015682e+00   9.36546580e-01
C     5.733430657155917e+00   1.715128997404960e-02   3.815979600000000e+00 -6.71781710e-01   1.16688225e+00  -1.26072559e+00
C     7.077618100377198e+00   4.486350183566190e-01   3.652640700000000e+00  1.66545664e+00  -2.79535567e+00   4.02735340e-01
C     1.257334978924137e+01   7.088521189318122e+00   3.523437300000000e+00 -2.42144136e+00   1.31269208e+00   1.86246020e-01
C     5.025980445340242e+00   7.534618212074450e+00   3.230647500000000e+00 -1.59396228e+00  -4.56251896e+00   3.43957780e-01
C     6.028630682396699e+00   6.541027263001786e+00   3.173222700000000e+00  2.10112935e+00  -1.87809966e+00  -1.46493400e-01
C     7.469057166270245e+00   6.857282727620038e+00   3.268644900000000e+00 -2.60102975e+00   2.35860040e+00   7.31647960e-01
C     8.426825088550872e+00   5.934589631927709e+00   3.616935000000000e+00  2.81502853e+00  -8.34949750e-01  -5.52425030e-01
C     9.823135198277580e+00   6.370002889314395e+00   3.890964300000000e+00 -1.34147551e+00  -3.03261784e+00  -9.88822690e-01
C     1.080332314737970e+01   5.261045285136074e+00   3.825443700000000e+00  6.90647000e-02   2.90114667e+00   1.13294110e-01
C     1.213065905314735e+01   5.730129663869998e+00   3.629772600000000e+00  3.92460365e+00  -1.80871468e+00  -1.09761591e+00
C     4.357957147923715e+00   4.683056157120080e+00   3.365754600000000e+00 -1.73910028e+00   2.49703368e+00   3.31708740e-01
C     5.739320706338761e+00   5.120639572387224e+00   3.171787500000000e+00 -1.35170932e+00   1.26220000e-04   1.44960985e+00
C     6.791162807267979e+00   4.141601650491283e+00   3.314922000000000e+00 -6.87080130e-01  -6.54148400e-02  -1.30546739e+00
C     8.159376548523763e+00   4.546251698030064e+00   3.399823500000000e+00 -1.95827532e+00   2.09578800e-01   1.17503949e+00
C     9.100941112052105e+00   3.530688083220560e+00   3.484688700000000e+00  2.62755602e+00  -7.83235500e-02   4.79389800e-01
C     1.046354370294150e+01   3.905673277107719e+00   3.705044400000000e+00  8.41738070e-01  -9.16099130e-01  -2.26155603e+00
C     2.623537634014520e+00   2.914376791819999e+00   3.343160400000000e+00 -2.80017413e+00   8.06900180e-01   2.16205283e+00
C     3.939448688743106e+00   3.338838352658399e+00   3.387457200000000e+00  3.66625822e+00  -1.26242190e+00  -1.73051800e-02
C     5.018819279536633e+00   2.322113728397970e+00   3.487342500000000e+00  1.25132684e+00   3.22013708e+00  -1.66844870e+00
C     6.477265231490612e+00   2.734417017233780e+00   3.327239700000000e+00 -3.53317379e+00   1.53526631e+00   1.98865176e+00
C     7.461169121331493e+00   1.786095122820760e+00   3.536607600000000e+00  7.00408100e-01  -2.91378100e-01  -1.55110730e+00
C     8.842662973145982e+00   2.152274147767995e+00   3.350500200000000e+00 -2.92277353e+00   2.90881630e-01   4.19233820e-01
C     2.238231695412978e+00   1.538823431562584e+00   3.292302600000000e+00  3.06322984e+00  -4.44099890e-01  -1.05446885e+00
