52
Lattice="8.88768389401873 1.33226762955019e-15 0 4.44384194700937 7.69696003302603 0 0 0 30 " PBC="1 1 1" Properties=species:S:1:pos:R:3:force:R:3 Energy="-417.46562567"
C     1.250307189500618e+01   6.560717318272131e+00   7.362720000000000e-02 -2.96548360e-01   7.72671720e-01  -1.41027700e-02
C     8.659272329072030e+00   6.454659520565957e+00  -1.034733000000010e-01  2.66424372e+00   4.30648800e-02   1.27450814e+00
C     1.006476332682707e+01   6.038477117814226e+00   1.458924000000000e-01  8.41853230e-01   5.76597010e-01  -2.01436361e+00
C     1.041327705193605e+01   4.630220836811746e+00   1.030440000000000e-01  6.66146640e-01   1.05953266e+00  -3.29933000e-03
C     6.299970826750323e+00   5.805034785550751e+00   5.641920000000000e-02  1.05215195e+00   5.59307350e-01  -1.08769085e+00
C     7.668120220680059e+00   5.448173623446234e+00  -3.060389999999913e-02  7.19216000e-02  -1.31089150e-01   4.26522020e-01
C     8.036211958067064e+00   4.059977236643540e+00   8.738100000000000e-02 -2.42124060e-01   1.90325847e+00   6.26730000e-04
C     9.372261615206080e+00   3.690234596172016e+00   1.040040000000000e-01  1.72821619e+00  -2.49551668e+00  -7.38331260e-01
C     9.760231635230589e+00   2.259384119910272e+00  -7.624799999998544e-03 -7.70958190e-01   1.74822562e+00   9.94626150e-01
C     3.965177068325288e+00   5.168365650627642e+00   1.175115000000000e-01 -6.94779040e-01   1.68060710e-01  -6.33210710e-01
C     5.351416587340797e+00   4.781961169870376e+00   1.277550000000000e-01 -2.51040827e+00   1.76160396e+00   8.83031200e-02
C     5.669378543615975e+00   3.443630693166042e+00   1.711740000000000e-01  1.78024300e-01  -2.95286620e-01  -6.09530070e-01
C     7.035186077295372e+00   3.111793810541460e+00   1.687275000000000e-01 -4.79822320e-01  -2.33779687e+00  -6.24033900e-02
C     7.348444493470098e+00   1.723916616671211e+00   1.761888000000000e-01  9.32196570e-01  -8.70564560e-01  -1.35504035e+00
C     8.738755060492457e+00   1.279962966374438e+00   4.014599999999999e-02 -1.54065987e+00   4.73498070e-01   1.51977990e-01
C     2.917207641055299e+00   4.176090265963308e+00   5.277090000000000e-02 -3.60862930e-01   2.21009836e+00   1.57121812e+00
C     3.267089447384479e+00   2.827882742270076e+00   1.988055000000000e-01  4.78640560e-01   1.90413100e-02  -2.24405230e+00
C     4.652260489065865e+00   2.477089170726809e+00   5.897280000000000e-02 -7.78852180e-01  -2.12814010e-01   1.65857730e+00
C     4.982173269464096e+00   1.108529191383051e+00   7.168590000000000e-02 -1.43892936e+00  -1.73062220e-01  -1.31634618e+00
C     6.314428596591045e+00   7.299392032354421e-01   3.642180000000000e-02  2.86724075e+00  -7.51488100e-01   1.09534816e+00
C     1.117561098457957e+01   7.038292136645548e+00   7.135770000000000e-02 -3.41096258e+00  -1.52880214e+00   2.11826840e-01
C     2.237552010004393e+00   1.872721483113599e+00   2.394660000000000e-02 -1.42314381e+00  -2.13893630e-01   2.33136000e-02
C     2.477061180720399e+00   4.961881459051640e-01  -1.021785000000008e-01  3.92010762e+00  -1.18394380e-01   2.17630800e-02
C     3.939554761188507e+00   1.648802753434444e-01  -1.200285000000001e-01 -2.29011475e+00  -1.78249091e+00   6.92359480e-01
C     4.589197931345793e+00   7.590061031532145e+00   9.781800000000000e-03  8.26987350e-01  -5.41723250e-01  -2.36255120e-01
C     5.941823652175786e+00   7.181975061035972e+00  -9.541619999999895e-02  2.26948000e-02   1.85919210e-01   7.62876650e-01
C     8.913962556758777e-01   1.141769898725411e+00   3.412358400000000e+00 -1.61261656e+00  -1.04583433e+00   2.58463400e-02
C     3.242319826357183e+00   4.676533599251457e-01   3.515045700000000e+00 -3.81208400e-02   1.90878832e+00  -2.21368570e-01
C     4.589829796860367e+00   8.604761047426284e-01   3.411162000000000e+00  1.11519788e+00   2.68117780e-01   2.44729290e-01
C     1.007048019717612e+01   7.581061284047467e+00   3.349334400000000e+00 -4.37441350e-01  -5.30282310e-01  -7.53420820e-01
C     6.999993824614373e+00   2.628369456484445e-01   3.244313400000000e+00 -5.91265230e-01   1.07099774e+00   5.38525440e-01
C     1.248699345302596e+01   7.045107486873712e+00   3.250249500000000e+00  1.19152666e+00  -1.13201167e+00   4.31289010e-01
C     4.976267407657144e+00   7.478461114725969e+00   3.380707200000000e+00 -2.52559640e-01  -2.41859164e+00  -2.20695940e-01
C     5.998951061857353e+00   6.417504447230740e+00   3.427553700000000e+00 -1.43635458e+00   1.87980690e+00  -5.88964070e-01
C     7.331150974790018e+00   6.831346281406947e+00   3.484524300000000e+00  8.88130180e-01  -2.65451168e+00  -2.64236920e-01
C     8.329973730739500e+00   5.776569118271802e+00   3.370462200000000e+00  1.61356859e+00   1.30077666e+00  -1.45057730e-01
C     9.716871960967351e+00   6.191935027503551e+00   3.274524300000000e+00 -1.21845460e-01   1.06723280e+00   7.57998780e-01
C     1.078553480358788e+01   5.271295788625627e+00   3.260180100000000e+00 -1.18444353e+00  -2.29451466e+00   5.40023430e-01
C     3.270256797564429e+00   5.650589894676780e+00   3.258081300000000e+00  7.44827500e-02  -2.32285830e-01  -1.17719660e-01
C     4.296825436186019e+00   4.650261411641857e+00   3.259722000000000e+00 -4.47102740e-01  -2.59349740e-01   3.56735080e-01
C     5.676460029001154e+00   5.065724918326785e+00   3.247688100000000e+00 -8.51360330e-01  -2.02343861e+00   1.58909598e+00
C     6.656414365367127e+00   4.010488939404253e+00   3.383022900000000e+00  8.90123240e-01   5.66967330e-01  -1.89830125e+00
C     8.054168012678225e+00   4.395070856996015e+00   3.309002700000000e+00 -2.81657740e+00   9.04942390e-01   5.97210320e-01
C     9.047668601371500e+00   3.416064492636199e+00   3.286479600000000e+00 -2.47158860e-01   1.86453170e+00   5.49264020e-01
C     1.036083447275019e+01   3.858424487358759e+00   3.375255000000000e+00  3.35378511e+00   2.62252280e-01  -8.52047930e-01
C     2.510487761364023e+00   2.856589324397964e+00   3.410722200000000e+00  2.23178138e+00   2.03870803e+00   3.38229190e-01
C     3.925647004378793e+00   3.259509788048404e+00   3.379735800000000e+00 -7.12193400e-02   7.49584000e-03  -3.58110200e-01
C     4.956807553743776e+00   2.235760995034198e+00   3.369644700000000e+00 -8.47215360e-01   8.09282930e-01  -4.40599100e-01
C     6.326993027658345e+00   2.621614142544515e+00   3.228298500000000e+00 -5.89402430e-01   5.62825050e-01   1.61281024e+00
C     7.350022279493004e+00   1.632066406575612e+00   3.266263800000000e+00  6.09571200e-02   1.15746262e+00  -1.61553830e-01
C     8.706124062930117e+00   2.087430184360057e+00   3.316392000000000e+00  2.16667340e-01  -2.20505619e+00   4.93012000e-03
C     2.237858634857023e+00   1.500842859264149e+00   3.492987900000000e+00 -7.69807900e-02  -8.97064190e-01  -1.50717580e-01
