52
Lattice="8.88768389401873 1.33226762955019e-15 0 4.44384194700937 7.69696003302603 0 0 0 30 " PBC="1 1 1" Properties=species:S:1:pos:R:3:force:R:3 Energy="-418.30846334"
C     1.259549869719848e+01   6.798617498876181e+00   7.845660000000000e-02 -3.34182422e+00  -1.88609123e+00  -3.21084180e-01
C     8.737521675613813e+00   6.595777663935184e+00  -1.733949000000017e-01  7.14249830e-01   7.58073450e-01   1.05309750e+00
C     1.012225850948720e+01   6.227204653509818e+00  -1.068629999999970e-02  7.27684150e-01  -2.12547187e+00  -9.99800690e-01
C     1.051089008424632e+01   4.772114217995196e+00  -2.625630000000001e-02 -1.62240764e+00   2.66616943e+00   6.23760900e-02
C     6.364249800761241e+00   5.980246767312065e+00  -3.080999999980349e-04 -5.39945540e-01   1.85781741e+00  -2.54936700e-02
C     7.679054338339231e+00   5.625327086405514e+00  -1.512504000000021e-01  3.23296663e+00  -1.52342506e+00   7.04710300e-02
C     8.089818556821301e+00   4.230339286920351e+00  -1.252913999999983e-01 -1.49841621e+00   9.84375700e-02   4.56888840e-01
C     9.431640009172684e+00   3.828180206556078e+00  -1.028064000000022e-01  1.61980657e+00   5.34193610e-01   1.64115050e-01
C     9.819362462808432e+00   2.468133680762303e+00  -5.372909999999820e-02 -7.77931540e-01  -1.19155903e+00   3.31338880e-01
C     4.027882700127432e+00   5.392611347168872e+00   1.424268000000000e-01 -9.43761570e-01   5.11120090e-01   9.78604800e-02
C     5.388314073781915e+00   4.999424767050772e+00   1.924923000000000e-01 -1.00350415e+00  -5.65112260e-01  -9.38114690e-01
C     5.713895174794042e+00   3.612708890509849e+00   1.649304000000000e-01 -8.26778800e-02   6.15316450e-01   1.06415170e-01
C     7.070778807221804e+00   3.204236224741768e+00   3.987030000000000e-02 -2.38620440e-01   3.91400377e+00  -3.33406580e-01
C     7.391715071375302e+00   1.906101659371703e+00   4.314300000000000e-02  2.34074420e+00  -4.53735389e+00  -8.50028000e-02
C     8.803601468682734e+00   1.457331405427357e+00  -1.041179999999997e-02 -1.32537448e+00   9.98641540e-01  -2.24231620e-01
C     2.972980568357684e+00   4.405534258399998e+00   1.141683000000000e-01  5.85079760e-01   2.86774740e-01   1.37688980e-01
C     3.319229889380711e+00   3.021195664933941e+00   1.917534000000000e-01 -2.47856530e-01   1.19932132e+00  -6.34679060e-01
C     4.674158364700905e+00   2.663482680262904e+00   2.115915000000000e-01  6.24811190e-01  -1.11595076e+00   6.17687100e-02
C     5.015704501161848e+00   1.277336378764201e+00   1.608354000000000e-01 -3.06502440e-01  -5.78001300e-01  -1.00147945e+00
C     6.382593443740555e+00   8.869934405291834e-01   8.014380000000000e-02  5.22505600e-02  -1.94735610e-01  -2.95369000e-03
C     1.117300027197446e+01   7.190933398875689e+00   1.410120000000000e-02  5.52140920e-01   1.90339540e-01   5.30762960e-01
C     2.297627909446521e+00   2.078150344499887e+00   4.610610000000000e-02 -7.32972860e-01  -1.21156443e+00  -3.20191680e-01
C     2.598412816778134e+00   6.735642819181129e-01  -6.683849999999936e-02  1.00001152e+00   7.79281850e-01   6.54138030e-01
C     3.981225955906050e+00   2.959032398765251e-01  -4.227870000000067e-02 -7.57674000e-02  -3.95157370e-01   1.35429130e-01
C     2.297280089014502e-01   6.573165380819850e-02   1.255770000000000e-02  1.20059694e+00   1.90224195e+00   5.27987700e-02
C     6.033971647705909e+00   7.391315671448707e+00  -3.544919999999863e-02  1.08898720e-01  -1.04710869e+00  -2.67754900e-02
C     7.989611879528931e-01   9.274810666485898e-01   3.441671400000000e+00 -1.15270800e-01  -1.24351903e+00   5.20939250e-01
C     3.175351350326558e+00   2.959002380621134e-01   3.593148600000000e+00  9.45981600e-01   5.90850440e-01   2.54485860e-01
C     4.561532966573728e+00   6.671916608308747e-01   3.518203500000000e+00 -4.02821840e-01   1.38771442e+00  -2.93795310e-01
C     1.002166850387889e+01   7.408163855136776e+00   3.344285700000000e+00 -9.68839500e-02  -5.18924350e-01  -5.96934500e-02
C     6.946954171221058e+00   1.010639330691111e-01   3.256349700000000e+00 -6.71999740e-01   1.31669647e+00   1.94758310e-01
C     1.240315259788740e+01   6.856184140514956e+00   3.237913500000000e+00  1.81714585e+00  -1.58331471e+00   7.01871370e-01
C     4.899834170365075e+00   7.219785607487344e+00   3.399562800000000e+00  1.06020610e-01   8.88121010e-01  -5.65841370e-01
C     5.954767941008999e+00   6.235711564643776e+00   3.397696200000000e+00 -1.66771446e+00   5.59468720e-01  -2.04901210e-01
C     7.289375127549196e+00   6.630319388431415e+00   3.505520700000000e+00  9.27344650e-01  -5.86070920e-01  -7.63810150e-01
C     8.321651259018394e+00   5.640964461311264e+00   3.320899200000000e+00 -1.47988493e+00  -2.71878410e-01   6.66977210e-01
C     9.659828983668724e+00   6.011196012683894e+00   3.294660600000000e+00  9.63031010e-01   1.69483977e+00   1.76360140e-01
C     1.068653427047112e+01   5.073970671606924e+00   3.301670100000000e+00  1.65111181e+00  -1.74233205e+00   2.13455560e-01
C     3.213493737863383e+00   5.459790722189113e+00   3.283159200000000e+00 -2.08974795e+00   1.88713220e-01  -2.90577190e-01
C     4.220902885273068e+00   4.488254796325613e+00   3.269023800000000e+00  6.79551290e-01  -1.61153427e+00   1.33489153e+00
C     5.607417078667672e+00   4.884592588849596e+00   3.224172900000000e+00 -3.79403410e-01  -1.72200455e+00   1.14090357e+00
C     6.618643175200438e+00   3.853423156670467e+00   3.295892700000000e+00 -1.09988830e+00   2.08857100e-01  -7.00879880e-01
C     7.967154565491661e+00   4.255074545551160e+00   3.288690300000000e+00  2.27189600e-01   3.02763110e-01  -3.11339710e-01
C     8.982471396319461e+00   3.271601019529132e+00   3.264117000000000e+00  3.25216480e-01   7.89539900e-02   9.41043730e-01
C     1.034176941303790e+01   3.669057719132676e+00   3.396603600000000e+00  3.21521630e-01   7.97541160e-01  -4.18473810e-01
C     2.464264472695816e+00   2.701114503302379e+00   3.562082700000000e+00  2.34527970e+00  -6.41966160e-01   3.73726840e-01
C     3.892735199798742e+00   3.073752432258789e+00   3.570077700000000e+00 -1.21192464e+00   1.28212431e+00  -1.77630659e+00
C     4.900861716597664e+00   2.077671439646821e+00   3.463888500000000e+00 -1.42937080e-01  -5.79141570e-01   1.34765600e-01
C     6.262735739599438e+00   2.451512326486319e+00   3.259754100000000e+00  3.48238400e-02   1.30019559e+00   8.53654340e-01
C     7.302261377085095e+00   1.494582998641350e+00   3.252851700000000e+00 -9.69889490e-01  -7.78247330e-01   1.64801920e-01
C     8.644995195148850e+00   1.896979222344147e+00   3.325091700000000e+00  8.66446610e-01  -7.27916500e-02  -2.76495650e-01
C     2.167554566602448e+00   1.295817703431434e+00   3.639136200000000e+00 -8.67719720e-01   7.70389820e-01  -9.83638310e-01
