52
Lattice="8.88768389401873 1.33226762955019e-15 0 4.44384194700937 7.69696003302603 0 0 0 30 " PBC="1 1 1" Properties=species:S:1:pos:R:3:force:R:3 Energy="-418.71158746"
C     1.220353521749386e+01   6.511135425998879e+00  -1.301300999999988e-01  2.86418287e+00  -8.09439450e-01  -3.21150740e-01
C     8.468358613173711e+00   6.263812857834904e+00  -2.782083000000029e-01  6.79557430e-01   7.16544000e-01   1.47005300e-01
C     9.857677847964544e+00   5.865370408560318e+00  -2.733501000000018e-01 -1.38560630e+00   2.37255663e+00   1.46816840e-01
C     1.013897410873501e+01   4.525945732018119e+00  -2.291276999999994e-01  3.23573756e+00  -8.19211720e-01   3.35942330e-01
C     6.083822798874596e+00   5.720181496970424e+00  -2.404520999999988e-01  1.05630000e-01  -2.38454968e+00   4.92205170e-01
C     7.459716209471694e+00   5.271459272056664e+00  -2.657381999999977e-01 -8.30350160e-01   1.38407825e+00   1.79636900e-01
C     7.790180292903928e+00   3.906454518550763e+00  -1.943543999999982e-01  8.04355900e-01  -1.08642980e-01  -6.91664760e-01
C     9.194092793595534e+00   3.542383998834147e+00  -2.494571999999984e-01 -2.82987308e+00  -1.68479023e+00   4.31949040e-01
C     9.518661898484986e+00   2.160993571968381e+00  -2.142248999999978e-01 -3.81080300e-02   3.97740000e-03   1.02035160e-01
C     3.659379284148749e+00   5.127664818715405e+00  -7.132469999999813e-02  5.57474970e-01  -8.48623090e-01  -5.51978000e-03
C     5.053289007660664e+00   4.716748368137799e+00  -7.351560000000035e-02 -6.52918740e-01   1.93462990e-01  -6.55908640e-01
C     5.379341022594299e+00   3.315557049777256e+00  -8.591849999999823e-02  5.85395310e-01   2.38238100e-01   1.92015040e-01
C     6.770661674942469e+00   2.951209516469160e+00  -1.678044000000014e-01 -9.35887050e-01  -2.79988388e+00   5.78743950e-01
C     7.111952868128165e+00   1.468293877719685e+00  -1.407452999999990e-01 -8.13310660e-01   4.57738875e+00  -6.33907190e-01
C     8.460293170060192e+00   1.185967844427279e+00  -2.172696000000016e-01  2.22831198e+00  -1.85986345e+00   4.24791040e-01
C     2.630720705361169e+00   4.127927308271586e+00  -8.578920000000068e-02  9.70377130e-01   1.30656610e-01  -5.08088400e-02
C     3.009932712832111e+00   2.740914713921506e+00  -2.195850000000021e-02 -2.17005670e-01   5.82735980e-01  -4.22792990e-01
C     4.349173759455415e+00   2.298924866006788e+00  -2.509739999999994e-02  1.67590131e+00   1.21870386e+00   1.99892500e-02
C     4.725328403674372e+00   9.214175554761564e-01  -7.443299999999908e-02 -3.76386390e-01   7.35812260e-01  -6.37416540e-01
C     6.089586147435013e+00   5.273323552745530e-01  -1.918428000000034e-01 -6.26504530e-01   1.18627050e-01   6.14068370e-01
C     1.089036263643206e+01   6.866526776616068e+00  -2.293053000000000e-01 -2.40045642e+00  -3.15681130e-01   2.11492480e-01
C     2.016582813549473e+00   1.765326030723810e+00  -1.328712000000003e-01 -1.99670254e+00  -3.74859100e-01  -1.09089920e-01
C     2.337232449852628e+00   3.980889279004084e-01  -1.943048999999988e-01 -6.69061670e-01  -1.53032455e+00  -1.84247960e-01
C     8.128444077736033e+00   7.672646718718035e+00  -1.783445999999991e-01  3.44208110e-01  -1.31267383e+00  -7.64038000e-02
C     4.384930514892075e+00   7.477577195836123e+00  -1.786913999999982e-01 -8.90114780e-01   4.29592660e-01  -3.80926260e-01
C     5.734981829202513e+00   7.063369371210490e+00  -2.743634999999998e-01  6.18078610e-01   2.17441545e+00   7.45112320e-01
C     1.095989805662068e+00   1.211347723460601e+00   3.639883500000000e+00 -2.79475920e-01  -1.39486360e-01  -3.59134880e-01
C     3.523277289583236e+00   6.144696397741830e-01   3.712777500000000e+00 -1.09569945e+00  -4.02666000e-02  -1.09310900e-01
C     4.878987037246111e+00   1.011568045888331e+00   3.661733100000000e+00 -7.12981560e-01   8.46550450e-01   2.14879920e-01
C     5.872340579204429e+00   2.487034027933570e-02   3.638175300000000e+00  1.18108968e+00  -1.83179770e-01  -1.05800344e+00
C     7.241030966935763e+00   4.118647930229017e-01   3.514815900000000e+00  2.33470360e-01  -2.90342170e-01   4.53789280e-01
C     1.271952694821812e+01   7.101591089266664e+00   3.502713600000000e+00 -3.85248180e-01   1.38471395e+00   3.24617660e-01
C     5.191276123299754e+00   7.509038827837149e+00   3.578219700000000e+00 -8.86391900e-02   1.01576151e+00   1.97535960e-01
C     6.204202478243436e+00   6.546127191748065e+00   3.614551200000000e+00  1.07761501e+00  -6.39143460e-01  -2.81770360e-01
C     7.607085207926924e+00   6.929891076427839e+00   3.657709800000000e+00 -1.27652678e+00   4.92356820e-01  -4.54024940e-01
C     8.604701105338529e+00   5.963698995973968e+00   3.494734500000000e+00  1.76547059e+00  -4.72806090e-01   1.25542150e-01
C     1.000961782592364e+01   6.355116506798773e+00   3.513963300000000e+00 -8.53186550e-01  -8.41819690e-01   5.46543470e-01
C     1.106924531574123e+01   5.365048610271042e+00   3.538511400000000e+00 -3.72066762e+00  -2.11664130e-01  -2.09641080e-01
C     3.485876319316298e+00   5.733381244634671e+00   3.551198400000000e+00  1.83542337e+00   1.13034221e+00  -1.28776490e-01
C     4.502384499742892e+00   4.768011045572803e+00   3.574425900000000e+00 -1.38166030e-01  -6.09682190e-01  -1.55059570e-01
C     5.839473616441432e+00   5.152830722259893e+00   3.532644300000000e+00  1.15514611e+00   1.59363215e+00   4.01567270e-01
C     6.868544715816614e+00   4.212697931501191e+00   3.504391800000000e+00  1.83528838e+00  -1.42370633e+00  -6.12295490e-01
C     8.271836812216428e+00   4.590849038987889e+00   3.399004500000000e+00 -5.59388970e-01  -4.69514330e-01   1.12189587e+00
C     9.314246903050027e+00   3.602916894929283e+00   3.512484000000000e+00 -5.65531760e-01  -3.78314810e-01  -4.17692900e-01
C     1.069455371582294e+01   3.998000313877176e+00   3.565946100000000e+00 -2.24475330e-01  -1.16284078e+00  -1.78677520e-01
C     2.833318569579085e+00   2.982626275193212e+00   3.616745700000000e+00 -1.42736732e+00   1.14984750e-01   3.55793160e-01
C     4.175440515052390e+00   3.395732741808153e+00   3.607428900000000e+00  2.08630070e-01  -7.07493100e-01   4.89379200e-02
C     5.197871448009659e+00   2.409392483022951e+00   3.620700000000000e+00  2.05328360e-01  -2.32541210e-01  -2.00680620e-01
C     6.551715404202047e+00   2.819638682321144e+00   3.522408600000000e+00  2.52855200e-02  -6.28024300e-01   2.36043590e-01
C     7.554619473488356e+00   1.792108757692200e+00   3.506701200000000e+00  1.41851373e+00   1.02158204e+00  -1.01846400e-02
C     8.946932125174726e+00   2.198716680953812e+00   3.533043300000000e+00  2.45851760e-01   2.81363780e-01   1.51471390e-01
C     2.474522147898452e+00   1.591847635270053e+00   3.703711800000000e+00  1.33749110e-01   5.14058410e-01  -4.03648770e-01
