32
Lattice="9.86 0 0 4.93 8.53901048131456 0 0 0 30 " PBC="1 1 1" Properties=species:S:1:pos:R:3:force:R:3 Energy="-251.72579418"
C     9.739613196099999e+00   4.767600237616216e-01   4.791400800000000e+00 -2.75085470e-01  -4.98480592e+00  -2.47481923e+00
C     1.132297947200000e+00   1.024934183090418e+00   4.778322300000000e+00  7.48544650e-01   3.62156566e+00   6.77313910e-01
C     2.312692925099999e+00   3.616307656025064e-01   4.329105300000000e+00  1.33607272e+00   7.41997520e-01   1.99268320e-01
C     3.544067751200000e+00   1.095054146229243e+00   4.359663900000000e+00  4.57947430e-01   2.21263132e+00   1.39769341e+00
C     4.798894833799999e+00   4.497553177285168e-01   4.316871600000000e+00 -3.02311910e-01  -1.30739405e+00  -1.17150663e+00
C     6.024672137900000e+00   1.140835111626610e+00   4.370455200000000e+00  1.19763451e+00   1.37200199e+00   7.75537040e-01
C     7.276540530299999e+00   3.909400651740584e-01   4.571496300000000e+00 -4.10754890e-01   2.21650873e+00  -1.36551866e+00
C     8.497410857500000e+00   1.121566492918071e+00   4.739370000000000e+00 -9.80563100e-02   3.86274090e-01   1.40751993e+00
C     1.099606190360000e+01   2.485344921364906e+00   5.143201500000000e+00  1.27380154e+00  -9.04238860e-01  -3.50036530e-01
C     2.336704835200000e+00   3.282182324030209e+00   5.065470900000000e+00  6.90599170e-01  -1.21942598e+00  -1.32115493e+00
C     3.630116612100000e+00   2.510745318109028e+00   4.683675600000000e+00 -2.85180592e+00   1.26734079e+00  -4.40285600e-02
C     4.822304297900000e+00   3.255341225437902e+00   4.473037800000000e+00 -1.05726670e-01   1.40737353e+00  -1.25541334e+00
C     6.050092992700000e+00   2.642151808825329e+00   4.317617100000000e+00  2.07925473e+00  -4.80816936e+00   1.70933871e+00
C     7.358097520299999e+00   3.268057690624927e+00   4.529149500000001e+00 -1.75365688e+00   2.70263910e-01  -1.40468607e+00
C     8.528203686800001e+00   2.516095264345063e+00   4.943515800000000e+00 -7.85525110e-01   1.06318715e+00  -8.07810360e-01
C     9.768094644199998e+00   3.185039466765957e+00   5.247487500000000e+00 -6.84693250e-01   1.92246244e+00  -2.43618467e+00
C     1.208979783450000e+01   4.708680809133902e+00   4.995033900000000e+00  4.31356935e+00   1.62493365e+00  -2.63469430e+00
C     3.596692937600000e+00   5.383023459370357e+00   4.437993000000001e+00 -1.23318183e+00  -2.57952321e+00   1.65783291e+00
C     4.842755712699999e+00   4.691133825718340e+00   4.209251400000000e+00 -2.47645214e+00  -1.36910677e+00   1.51471730e+00
C     6.022060174599999e+00   5.376946928732579e+00   3.947648700000000e+00  2.33529784e+00   2.85964300e-02   1.29163160e-01
C     7.356921912499999e+00   4.628742008624333e+00   4.110479700000000e+00 -8.86389480e-01   8.23441250e-01   2.00378108e+00
C     8.572742194200000e+00   5.331486773958946e+00   4.393066500000000e+00 -3.58046780e-01  -4.37336580e-01  -5.52138660e-01
C     9.768531590100000e+00   4.644397601218576e+00   4.911400800000000e+00 -1.46023525e+00   1.94142803e+00  -2.81071610e-01
C     1.091097685770000e+01   5.566603047949143e+00   4.868337899999999e+00  7.65520800e-01  -6.45026614e+00   1.51827732e+00
C     1.353318869100000e+01   6.731328432316488e+00   4.460835600000000e+00 -3.09909343e+00   5.40886331e+00  -2.94889790e-01
C     4.845702127200000e+00   7.563842503888071e+00   4.366341599999999e+00 -1.99875690e-01  -1.10973832e+00  -2.93689890e-01
C     6.009554736600000e+00   6.823323120162349e+00   3.923397000000000e+00  2.01546848e+00   1.26716007e+00   1.59176938e+00
C     7.337067077000000e+00   7.548101521189029e+00   3.951043800000000e+00 -2.31927187e+00  -3.05527080e+00   8.00137150e-01
C     8.564254065300000e+00   6.733971341450153e+00   4.104756600000000e+00 -4.71051640e-01   2.45969425e+00   2.43040500e-01
C     9.724957686500000e+00   7.541407022362813e+00   4.256976600000000e+00  1.77547960e-01   5.21896130e-01   1.17098872e+00
C     1.092183414740000e+01   6.916187933176122e+00   4.633393200000000e+00  1.96736499e+00   3.86166250e-01  -1.94761201e+00
C     1.222225105990000e+01   7.561589998313551e+00   4.464320100000000e+00  4.12590370e-01  -2.71851050e+00   1.83887640e+00
