32
Lattice="9.86 0 0 4.93 8.53901048131456 0 0 0 30 " PBC="1 1 1" Properties=species:S:1:pos:R:3:force:R:3 Energy="-249.76739122"
C     5.144335891200000e+00   7.718744935841140e+00  -6.328965000000011e-01 -7.44018320e-01   3.20762515e+00  -1.43105920e-01
C     6.360237123500000e+00   8.453574691493932e+00  -7.097024999999988e-01  1.95330213e+00   1.59253217e+00   6.00237360e-01
C     7.638830848700000e+00   7.769328923853297e+00  -5.810084999999994e-01 -2.67925960e+00  -5.99745240e-01  -1.77548670e+00
C     8.805141457500000e+00   8.435743017468967e+00  -9.036888000000012e-01  2.21873018e+00   1.64670726e+00   2.53334239e+00
C     1.004731648390000e+01   7.700612774037383e+00  -6.566556000000006e-01  5.04234640e-01   2.87487938e+00  -2.44159283e+00
C     1.127635429280000e+01   8.462204130094916e+00  -6.567551999999992e-01 -1.38989680e-01   6.24887790e-01   7.57108900e-02
C     1.258127372500000e+01   7.792513959718487e+00  -8.619939000000016e-01 -1.85116019e+00   6.11286607e+00   3.65526891e+00
C     1.377082262830000e+01   8.485716039281280e+00  -4.306230000000006e-01  4.40530300e-01  -9.01589980e-01  -2.33767651e+00
C     1.441909736600000e+00   1.391275664604426e+00  -9.865919999999981e-01 -1.80178569e+00  -1.30302933e+00  -7.41474850e-01
C     2.565077422400000e+00   2.189328168461033e+00  -1.394649000000001e+00  2.84988897e+00  -4.29567130e+00   1.82870318e+00
C     3.888110956400000e+00   1.312155925980099e+00  -1.038781499999999e+00 -7.84879030e-01   4.36380268e+00  -2.30063398e+00
C     5.095239549500000e+00   2.156402683341307e+00  -1.029244500000001e+00  5.50896860e-01  -2.37854892e+00   7.99153560e-01
C     6.334109306699998e+00   1.383551190334113e+00  -6.173853000000022e-01 -1.57531307e+00   4.73402670e-01  -1.28700401e+00
C     7.555051168199999e+00   2.077429047186293e+00  -6.285641999999996e-01  9.11348460e-01   2.92212707e+00  -2.84924780e-01
C     8.816794054799999e+00   1.405135844855142e+00  -4.279413000000005e-01 -6.32051600e-01  -9.02941820e-01  -2.42256470e+00
C     9.983059406199999e+00   2.010758844281387e+00  -1.004375100000001e+00  2.76322022e+00   1.03426687e+00   2.24354622e+00
C     2.655501115999999e+00   3.573441481855045e+00  -1.727184000000001e+00  1.32450265e+00   3.06105100e-01   1.26541916e+00
C     3.961430655900000e+00   4.280407080069921e+00  -1.737981900000001e+00 -1.58416570e+00   1.54012189e+00   2.31815612e+00
C     5.149751693399999e+00   3.610058978936010e+00  -1.266337799999999e+00 -2.04842499e+00  -2.83701179e+00  -1.94732220e-01
C     6.321995951600000e+00   4.274751608038912e+00  -8.977196999999997e-01  5.72385750e-01  -4.03083950e-01  -1.33885056e+00
C     7.557004532799999e+00   3.625813624051820e+00  -9.296720999999977e-01  3.06067404e+00  -4.43938232e+00   1.69530439e+00
C     8.908483180799999e+00   4.235113350610543e+00  -1.028542800000000e+00 -2.03414586e+00  -1.80302902e+00   3.91072270e-01
C     1.013124845210000e+01   3.407701423190865e+00  -1.090886999999999e+00 -1.47504191e+00   5.31819169e+00  -1.76689013e+00
C     1.137541608590000e+01   4.359458506610407e+00  -1.465334100000000e+00 -2.81886391e+00  -2.49637350e+00  -4.43034300e-02
C     3.831036445000000e+00   5.749253421407496e+00  -1.453986000000000e+00  2.88422410e+00  -4.50250870e-01   4.39747550e-01
C     5.150489960900000e+00   6.370781096363684e+00  -1.024423200000001e+00 -4.28480694e+00  -2.95930450e-01   2.97046020e-01
C     6.267503281200000e+00   5.633264968013884e+00  -7.805771999999997e-01  5.16989153e+00   2.27554051e+00   2.16710340e-01
C     7.660578064699999e+00   6.362186923875983e+00  -5.680923000000000e-01 -1.97658425e+00  -2.11227099e+00  -1.82375810e+00
C     8.898965963700000e+00   5.647776589374119e+00  -9.680786999999995e-01 -4.29701819e+00  -1.20394135e+00   1.66881251e+00
C     1.003763149890000e+01   6.335937151759415e+00  -1.025702400000000e+00  2.89971440e+00   2.63075767e+00   3.54060560e-01
C     1.126969065830000e+01   5.819632372734180e+00  -1.426133399999998e+00  2.59161060e-01  -2.95814175e+00   8.02500620e-01
C     1.246951668890000e+01   6.577899235841533e+00  -1.306450500000000e+00  2.36380363e+00  -7.54287140e+00  -2.28179331e+00
