32
Lattice="9.86 0 0 4.93 8.53901048131456 0 0 0 30 " PBC="1 1 1" Properties=species:S:1:pos:R:3:force:R:3 Energy="-246.53387967"
C     5.035321857800000e+00   8.125008340711663e+00  -7.235583000000005e-01 -3.56845514e+00  -6.23018641e+00  -2.35206892e+00
C     1.216608490100000e+00   2.864637349293720e-01  -9.052635000000002e-01  7.66853392e+00  -3.00747182e+00   9.06253210e-01
C     7.500864552199999e+00   8.047012335866505e+00  -7.520658000000005e-01  6.98748310e-01  -1.66551240e+00  -2.77060877e+00
C     3.856376053400000e+00   1.630761435647344e-01  -9.429312000000003e-01  2.44836790e-01   3.06898620e-01  -1.38697252e+00
C     1.016399311770000e+01   7.964095726232245e+00  -1.090048499999998e+00 -7.78607978e+00   2.78237454e+00   2.60857778e+00
C     6.310959111300000e+00   1.635807136939976e-01  -7.751583000000011e-01  3.95959635e+00  -2.34940011e+00  -1.53592602e+00
C     1.243211677220000e+01   7.874128284864441e+00  -1.021823699999999e+00  1.74512166e+00   1.89634771e+00  -1.31808631e+00
C     8.694374661199998e+00   1.188117918187200e-01  -1.057824300000000e+00  2.15795401e+00   1.51936498e+00   2.90444308e+00
C     1.384271085300000e+00   1.607394518858929e+00  -1.197171300000001e+00 -3.92647360e-01   3.08951099e+00   1.60194250e+00
C     2.606027185600000e+00   2.314184042677707e+00  -1.431367500000000e+00  1.74732218e+00  -1.52746704e+00  -8.03662160e-01
C     3.940280857300000e+00   1.568310272430502e+00  -1.347179400000002e+00 -1.04216744e+00   5.84819010e-01   2.65807816e+00
C     5.186948642000000e+00   2.310709348533186e+00  -1.127525700000000e+00 -2.98440429e+00  -1.04011763e+00  -6.55384760e-01
C     6.432332605400000e+00   1.546700683998870e+00  -6.458009999999987e-01 -3.35686330e+00   3.05860965e+00  -2.88933161e+00
C     7.622180562499999e+00   2.262313396566423e+00  -8.148078000000005e-01  4.60647130e-01   9.93914330e-01  -9.04598900e-02
C     8.827010247299999e+00   1.547525808581553e+00  -9.135249000000023e-01 -6.04581500e-01   1.49205719e+00   9.02585620e-01
C     1.008374755700000e+01   2.377982747138398e+00  -8.460725999999994e-01 -2.18424373e+00  -1.27105231e+00  -4.23651705e+00
C     2.508408107700000e+00   3.684555953456778e+00  -1.730650799999999e+00  2.70677833e+00   2.69201297e+00  -4.63857020e-01
C     3.857936842100000e+00   4.506413339949321e+00  -1.758732000000002e+00 -8.63982020e-01  -5.14948149e+00   1.02638501e+00
C     5.028341963800000e+00   3.777445614991048e+00  -1.437232800000000e+00  2.38454655e+00  -5.70427946e+00   8.14817170e-01
C     6.331167131999999e+00   4.227050646135117e+00  -1.264410299999998e+00 -4.01449433e+00   8.49012195e+00   7.74224940e-01
C     7.558007097600000e+00   3.723864007349886e+00  -1.003902600000000e+00 -9.45347860e-01  -4.25504287e+00   1.62125000e-02
C     8.651687270200000e+00   4.473842394544723e+00  -1.188908399999999e+00  6.61757102e+00   7.67421410e-01   7.61334370e-01
C     9.944237874700001e+00   3.738041753400354e+00  -1.307210699999999e+00  3.88290210e-01   9.85506860e-01   5.16234710e-01
C     1.116196966530000e+01   4.451779043096185e+00  -1.786479000000000e+00 -1.37061485e+00   7.70527000e-03   3.18005494e+00
C     3.933218237900000e+00   5.813985354323546e+00  -1.461180899999999e+00 -2.30514667e+00   4.34561119e+00   5.26174270e-01
C     5.010979046099999e+00   6.556400398375827e+00  -8.631257999999988e-01  3.03735133e+00  -5.80130140e-01  -2.09273485e+00
C     6.197641237199999e+00   5.745906641639965e+00  -1.077984000000001e+00  4.80995013e+00   1.64361402e+00   7.81467640e-01
C     7.631146013999999e+00   6.498854042778698e+00  -1.018181400000000e+00 -8.17193754e+00   5.09570417e+00   2.53845181e+00
C     8.811142056300000e+00   5.925642138480865e+00  -1.000839599999999e+00  5.42849850e-01  -3.75449097e+00  -2.07663012e+00
C     1.002977860050000e+01   6.612473860055263e+00  -1.117793100000000e+00  2.17497112e+00  -1.83315413e+00  -1.39382594e+00
C     1.119393642620000e+01   5.928970388595655e+00  -1.524002100000001e+00  2.85488382e+00  -3.42050722e+00  -1.38868089e+00
C     1.256037244770000e+01   6.524332827639026e+00  -1.574215800000001e+00 -4.60898691e+00   2.03669913e+00   2.93750915e+00
