32
Lattice="9.86 0 0 4.93 8.53901048131456 0 0 0 30 " PBC="1 1 1" Properties=species:S:1:pos:R:3:force:R:3 Energy="-252.3627199"
C     4.809683941600000e+00   7.455425420306864e+00  -1.060514099999999e+00  3.44877059e+00  -2.03222605e+00   9.88141960e-01
C     6.113316693100000e+00   8.148652263000049e+00  -9.466983000000013e-01 -1.63623384e+00   8.74448750e-01   2.99830290e-01
C     7.273604271599999e+00   7.336010262007627e+00  -8.802479999999981e-01  1.30609307e+00   3.94334853e+00   1.11777543e+00
C     8.496532627299999e+00   8.108700794667273e+00  -6.795960000000001e-01  1.50328451e+00  -1.18732908e+00   6.31972910e-01
C     9.766807716999999e+00   7.458673489113246e+00  -4.995572999999993e-01  3.85453640e-01  -3.99303004e+00  -1.12131050e+00
C     1.104451088700000e+01   8.040216991326520e+00  -6.266667000000012e-01 -2.09304585e+00   4.56307054e+00   1.14568140e-01
C     1.225893016130000e+01   7.408790895421916e+00  -7.277283000000025e-01  3.84963070e-01  -5.98495470e-01   9.29462990e-01
C     1.352701850020000e+01   8.141488630938063e+00  -7.320947999999987e-01 -1.91613388e+00  -3.77073220e-01  -1.33290802e+00
C     1.200219346000000e+00   1.082119765494768e+00  -6.060938999999976e-01  2.59091622e+00  -2.77398988e+00   6.48105930e-01
C     2.532313332600000e+00   1.750455307248648e+00  -2.167890000000021e-01 -6.10837018e+00  -4.01220590e-01  -1.37519072e+00
C     3.635156994800000e+00   9.528423916515504e-01  -4.148297999999997e-01  1.45026957e+00   2.12040737e+00  -4.87832590e-01
C     4.867434602499999e+00   1.746163344411086e+00  -4.263453000000013e-01  3.37216160e-01  -2.57190579e+00  -1.22255570e-01
C     6.129625921900000e+00   9.606128057982456e-01  -6.293055000000010e-01 -5.46183600e-01   1.34304600e+00   9.05471010e-01
C     7.379134816300000e+00   1.642754561256609e+00  -5.605733999999991e-01 -1.17821437e+00   3.52958338e+00   1.12318266e+00
C     8.633154611399998e+00   1.016239933399891e+00  -5.698391999999970e-01 -1.68426206e+00  -1.42972748e+00  -6.55570200e-01
C     9.827631493400000e+00   1.698391252549992e+00  -4.691216999999988e-01  1.53822403e+00   3.09900173e+00   9.86854100e-01
C     2.396433214900000e+00   3.181392199219634e+00  -1.494449999999858e-02 -1.96013041e+00  -1.20190324e+00   9.89871200e-01
C     3.515907541900000e+00   3.905269051519836e+00  -1.218134999999982e-01  5.09322383e+00   1.22310420e+00  -1.82194350e+00
C     4.747815202400000e+00   3.150934146568208e+00  -3.122636999999990e-01  3.20757038e+00   3.79530090e-01   1.70460420e-01
C     6.077278393100000e+00   3.837265738298793e+00  -3.741540000000008e-01 -6.39117360e-01   6.74982700e-02  -6.09861950e-01
C     7.348412436699999e+00   3.158906081362231e+00  -3.566535000000002e-01  4.66431700e-02  -1.91196393e+00  -8.27808260e-01
C     8.613479277200000e+00   3.892306748221091e+00  -3.069360000000003e-01 -1.48619480e+00  -7.95854730e-01   4.97617040e-01
C     9.866677882199999e+00   3.145253826016702e+00  -1.511865000000014e-01 -2.97068694e+00   4.92192770e-01  -4.10643480e-01
C     1.100256018590000e+01   3.923693845212742e+00   1.333230000000000e-01  1.18602100e+00  -3.96830917e+00  -1.52590188e+00
C     3.587977782200000e+00   5.299667346866693e+00  -4.946652000000000e-01 -2.96471140e-01   1.01588964e+00  -1.09753506e+00
C     4.860802224200000e+00   5.958171584294529e+00  -1.023731099999999e+00 -1.48330777e+00  -2.26205240e-01   3.44298342e+00
C     6.114375459900000e+00   5.244262745878156e+00  -6.509556000000032e-01 -2.36164498e+00   4.38979610e-01  -6.89482780e-01
C     7.296015312100000e+00   5.990530933019433e+00  -6.064809000000011e-01  1.12929220e+00  -1.53473393e+00  -7.37468130e-01
C     8.558940215500000e+00   5.347837698176574e+00  -3.801012000000021e-01 -2.32247200e-01  -3.21748950e+00   1.71650640e-01
C     9.821289935799999e+00   5.918718623393576e+00  -3.755664000000003e-01 -3.13621791e+00   5.67540453e+00   5.79012630e-01
C     1.097440594190000e+01   5.294024000230565e+00  -2.244449999999887e-02  2.51569603e+00   1.50282713e+00  -2.15709152e+00
C     1.215723136050000e+01   6.024134842521796e+00  -4.989653999999994e-01  3.60482479e+00  -2.04687521e+00   1.37584340e+00
