32
Lattice="9.86 0 0 4.93 8.53901048131456 0 0 0 30 " PBC="1 1 1" Properties=species:S:1:pos:R:3:force:R:3 Energy="-253.32524182"
C     5.024052124300000e+00   8.192018652403986e+00  -8.909346000000014e-01  1.46967109e+00  -7.68413950e-01  -1.04754010e-01
C     1.335726805000000e+00   3.614880787373856e-01  -9.544014000000018e-01  1.74308280e-01  -8.77253120e-01   9.19122900e-02
C     7.530074950099999e+00   8.168220942536855e+00  -9.135585000000006e-01 -2.31491611e+00   1.07499141e+00   4.57263150e-01
C     3.815676537000000e+00   3.794688438853312e-01  -8.037497999999985e-01 -2.04437398e+00  -1.25588985e+00  -2.17962194e+00
C     9.906073265700000e+00   8.268207631851368e+00  -1.046650799999998e+00  3.49535277e+00  -4.29642799e+00   1.21722538e+00
C     6.288216232500000e+00   3.540624698338728e-01  -9.407066999999998e-01 -5.85503750e-01  -1.17939534e+00   6.67777700e-01
C     1.247303000410000e+01   8.087955097925903e+00  -8.999246999999997e-01 -1.72829409e+00   3.12756184e+00  -1.45401035e+00
C     8.755373994899999e+00   3.099065635209544e-01  -7.817375999999996e-01 -1.00451283e+00   2.23287136e+00  -5.63674450e-01
C     1.307502160600000e+00   1.754209056255656e+00  -1.157647799999999e+00  1.27948184e+00   6.30053880e-01   1.29671337e+00
C     2.590716725500000e+00   2.388849064924722e+00  -1.350438600000000e+00 -1.98861638e+00   2.53416243e+00   5.84453990e-01
C     3.801228235300000e+00   1.707498875737855e+00  -1.130163599999999e+00  6.70766770e-01   4.02726174e+00   6.44645000e-02
C     5.045575912699999e+00   2.477959104250230e+00  -1.120023600000000e+00 -4.07154720e-01   3.01376530e-01   6.58441920e-01
C     6.249376065600000e+00   1.783097041050125e+00  -8.193867000000026e-01  6.10810140e-01  -1.06156033e+00  -1.62556861e+00
C     7.490808584700000e+00   2.437173374593558e+00  -9.174386999999982e-01  1.93083825e+00   2.81146462e+00   1.26789317e+00
C     8.768265057499999e+00   1.812038907000722e+00  -8.152277999999988e-01 -1.59460115e+00  -2.35457007e+00   1.15587640e-01
C     9.974454732100000e+00   2.548257532708087e+00  -9.346886999999988e-01  3.55884820e-01  -2.07449714e+00  -2.45107687e+00
C     2.526904185900000e+00   3.880042765199401e+00  -1.458962999999997e+00  1.21483619e+00  -1.41087292e+00  -5.99377550e-01
C     3.761636785699999e+00   4.558010310774721e+00  -1.556924700000000e+00  3.55129962e+00   2.92092696e+00   2.11403068e+00
C     5.091770752200000e+00   3.932997694861435e+00  -1.237776600000000e+00 -4.17749020e+00  -3.32019324e+00  -1.18818073e+00
C     6.279834246500000e+00   4.601654730359887e+00  -1.080044099999999e+00  9.53487570e-01   1.78845500e-01   1.12318224e+00
C     7.571520720599999e+00   3.906477748453280e+00  -9.318744000000017e-01 -4.28737602e+00  -1.80272437e+00  -1.31461612e+00
C     8.692270882299999e+00   4.634307223314568e+00  -1.158528600000000e+00  3.35840505e+00  -1.38897554e+00   6.02762060e-01
C     9.974824186299999e+00   3.899744140959066e+00  -1.323335099999998e+00 -2.19515771e+00   1.17709813e+00   1.92040565e+00
C     1.116001644860000e+01   4.602324103391414e+00  -1.424751600000000e+00  1.04629873e+00   2.75360927e+00   4.05042240e-01
C     3.862319661399999e+00   6.075319293750907e+00  -1.423838400000001e+00 -4.30323022e+00  -2.80083058e+00  -1.17367950e-01
C     4.987594281300000e+00   6.779111795671415e+00  -1.057233900000000e+00  1.39554467e+00  -1.58369485e+00  -5.87337200e-02
C     6.159962874100000e+00   5.975396561624891e+00  -9.219012000000006e-01  3.32409450e+00   3.91714566e+00  -1.27775619e+00
C     7.435427331100000e+00   6.777331753546754e+00  -9.499520999999973e-01  4.92219080e-01  -2.86552302e+00   1.00594675e+00
C     8.693660402799999e+00   6.008614080903033e+00  -9.978081000000003e-01 -1.73335819e+00   2.52832083e+00  -1.08933079e+00
C     9.855003395699999e+00   6.768366988004222e+00  -1.133714699999999e+00  3.43898269e+00   2.06839935e+00   5.37575530e-01
C     1.116642796290000e+01   6.150441153058602e+00  -1.233501900000000e+00 -1.39091047e+00  -4.59140793e+00  -2.23734116e+00
C     1.242738219740000e+01   6.741871036215515e+00  -1.368266400000000e+00  9.93213740e-01   1.34814070e+00   2.13073219e+00
