32
Lattice="9.86 0 0 4.93 8.53901048131456 0 0 0 30 " PBC="1 1 1" Properties=species:S:1:pos:R:3:force:R:3 Energy="-251.07607868"
C     9.673586593500000e+00   6.507078646892823e-01   4.404240000000000e+00  2.83207689e+00  -1.61712257e+00  -5.73175860e-01
C     1.073409688800000e+00   1.471157253743778e+00   4.511054400000000e+00 -2.38155146e+00  -6.29382101e+00  -5.34526440e-01
C     2.254869743900000e+00   7.995530641682584e-01   4.542810600000000e+00  3.90119420e+00  -6.39857542e+00  -2.89418312e+00
C     3.660095202600000e+00   1.347279779347902e+00   4.575605700000000e+00 -4.49035734e+00  -5.37286978e+00   2.77899170e-01
C     4.840453895700000e+00   6.002858617059305e-01   4.550863800000000e+00 -4.56944700e-01   7.21918700e-01  -2.69125984e+00
C     6.009939276600000e+00   1.460317663060256e+00   4.520703600000000e+00 -1.77811000e-02  -3.55516128e+00   7.32010860e-01
C     7.201087471900000e+00   7.210949280759223e-01   4.627603499999999e+00  2.19953535e+00  -5.52733060e-01  -2.13193412e+00
C     8.543633255700000e+00   1.403172299395266e+00   4.480701600000000e+00 -5.08606627e+00  -3.47408692e+00   6.81176950e-01
C     1.090709339810000e+01   2.763723408831185e+00   4.662208800000000e+00 -1.51813993e+00   5.88139962e+00   1.16510338e+00
C     2.337391633500000e+00   3.394333773064634e+00   4.845305400000000e+00 -1.31387312e+00   1.05255580e+00  -3.87833910e-01
C     3.573377636500000e+00   2.630766233811716e+00   4.683852600000000e+00  8.72497900e-01   9.13629066e+00   6.81218770e-01
C     4.786570869100000e+00   3.484618951012399e+00   4.546284900000000e+00 -4.39248006e+00   1.57240188e+00  -1.27531477e+00
C     5.966780232500000e+00   2.853424006121489e+00   4.433499600000000e+00  2.34093854e+00  -3.56673580e-01   1.65817669e+00
C     7.200263471700000e+00   3.528735065536481e+00   4.611726300000000e+00  1.06802217e+00   4.27057300e-01  -1.98413680e+00
C     8.407542627000000e+00   2.763395425438648e+00   4.521035400000000e+00 -2.03593170e-01   2.31370750e+00   9.16611930e-01
C     9.561680967199999e+00   3.469773112781976e+00   4.629476100000000e+00  5.86958361e+00   3.72121228e+00  -1.64048250e-01
C     1.215463004600000e+01   4.841405808458419e+00   4.939213799999999e+00  1.40388903e+00   7.05864140e-01  -3.32722760e+00
C     3.476978832200000e+00   5.594833785106966e+00   4.434741300000000e+00 -1.67246352e+00   7.95123730e-01   1.67409510e+00
C     4.674543225300000e+00   4.917797589404700e+00   4.233098699999999e+00  3.27841901e+00  -1.74883477e+00   2.15307199e+00
C     6.009183359700000e+00   5.585719159930510e+00   4.233245400000000e+00 -9.48148340e-01  -3.44752190e-01  -7.63711510e-01
C     7.303824481400000e+00   4.970018676506083e+00   4.454101200000000e+00 -4.95730803e+00  -2.93777508e+00   4.08746910e-01
C     8.430305324399999e+00   5.710190351725060e+00   4.545047400000000e+00  3.16460884e+00  -7.44317410e-01  -1.73395770e+00
C     9.698252862499999e+00   4.990966833185933e+00   4.580760600000001e+00 -1.64690412e+00  -3.03513813e+00   1.41918077e+00
C     1.095157427380000e+01   5.600474826210264e+00   4.714889100000001e+00 -3.91472560e-01   1.33221189e+00  -1.71977220e-01
C     1.329067129290000e+01   7.062136444129967e+00   4.413054000000000e+00  1.73829258e+00  -1.47007719e+00  -4.19608400e-01
C     4.726824741400000e+00   7.642581744205408e+00   4.253057700000000e+00 -1.32808547e+00   4.35556402e+00   3.89089010e-01
C     5.959989946299999e+00   6.965902991481835e+00   4.078297200000000e+00  8.19634380e-01   2.91263051e+00   8.57516840e-01
C     7.163215951400000e+00   7.821286326311057e+00   4.088759100000001e+00  9.62567250e-01   1.83430470e-01   2.42652786e+00
C     8.431304733999999e+00   7.045458134250536e+00   4.204183500000000e+00 -6.04172900e-01   3.51683906e+00  -3.01031300e-02
C     9.713316428199999e+00   7.722025965227974e+00   4.181500199999999e+00 -5.37117260e-01   1.76656097e+00   3.09200329e+00
C     1.092868241040000e+01   7.100855989420793e+00   4.514369400000001e+00 -1.86646776e+00  -4.28487678e+00  -5.77750280e-01
C     1.207299777490000e+01   7.815748692624672e+00   4.502320800000000e+00  3.36166735e+00   1.79204661e+00   1.12831945e+00
