32
Lattice="9.86 0 0 4.93 8.53901048131456 0 0 0 30 " PBC="1 1 1" Properties=species:S:1:pos:R:3:force:R:3 Energy="-253.95470084"
C     9.703522145099999e+00   7.725305116032504e-01   4.355211900000000e+00 -2.07129280e+00   2.32524120e-01   1.23109800e+00
C     1.030980777700000e+00   1.501247958164354e+00   4.324736700000001e+00  1.42215621e+00  -3.03292697e+00   3.27550600e-01
C     2.268325636600000e+00   7.599104518445440e-01   4.522559400000000e+00  6.59024230e-01  -2.16540180e-01  -5.37708450e-01
C     3.496476390600000e+00   1.472274156314562e+00   4.339842000000000e+00  4.14266750e-01  -1.55670690e+00  -1.05355679e+00
C     4.773787625600000e+00   7.368812529206128e-01   4.251693900000000e+00 -4.04981577e+00  -2.02481736e+00   1.32277262e+00
C     5.919077946900000e+00   1.424265021522543e+00   4.242569400000000e+00  5.49949935e+00   2.28876878e+00   1.42647590e-01
C     7.240413884700000e+00   7.880076388784599e-01   4.381881300000001e+00 -2.32408175e+00  -1.70315957e+00  -5.01036620e-01
C     8.473037282599998e+00   1.524719734001464e+00   4.280247000000000e+00 -8.46726660e-01  -1.60987701e+00   5.41351430e-01
C     1.088847249230000e+01   2.830012259528054e+00   4.059907200000000e+00 -1.00056150e+00   4.22243796e+00  -1.01500648e+00
C     2.253446748700000e+00   3.543049862705153e+00   3.893812200000000e+00  8.20796410e-01   1.12632636e+00   2.16655916e+00
C     3.486633448400000e+00   2.854168010104611e+00   4.057398000000000e+00  1.13284950e+00   1.94952770e-01   1.01045180e+00
C     4.759344500399999e+00   3.547177364200870e+00   4.269778500000000e+00 -2.03367608e+00   2.39921997e+00  -7.25214660e-01
C     5.975544687899999e+00   2.870469578841665e+00   4.258590900000001e+00 -1.19579769e+00  -1.36032739e+00  -6.06508900e-02
C     7.159158906500000e+00   3.588645446184999e+00   4.259868300000000e+00  1.98181214e+00   1.65973752e+00   1.58635067e+00
C     8.456331238099999e+00   2.955879494145978e+00   4.252194000000000e+00 -2.43667803e+00  -2.17440648e+00  -1.05122661e+00
C     9.618404906299999e+00   3.626656680556509e+00   4.041765000000000e+00  2.11090168e+00   2.06786920e+00   1.19767001e+00
C     1.215887704380000e+01   4.969168874183113e+00   4.131926999999999e+00 -1.67797492e+00   1.17257135e+00  -1.51812287e+00
C     3.529028835500000e+00   5.734183861102497e+00   4.266750600000000e+00 -1.33811477e+00  -6.80109480e-01   1.40292547e+00
C     4.707773742400000e+00   5.001419179744187e+00   4.425936900000000e+00  2.34681240e+00   4.01515240e-01   5.29249600e-02
C     5.958297526599999e+00   5.811495293477473e+00   4.712961000000000e+00 -1.29244530e+00  -6.76607965e+00  -1.07299058e+00
C     7.174080488200000e+00   4.995504719525320e+00   4.566577800000000e+00 -1.67136940e+00   1.93648411e+00  -1.08241200e-01
C     8.338007491299999e+00   5.805570501055926e+00   4.554945900000000e+00  2.70828778e+00  -6.57117867e+00  -1.43986028e+00
C     9.560550813999999e+00   5.118822205613917e+00   4.186454700000000e+00  2.96633579e+00  -2.70265919e+00  -2.16194260e-01
C     1.090335823290000e+01   5.730246181809750e+00   4.133036400000000e+00 -9.95287840e-01  -1.46473577e+00   2.58548910e-01
C     1.334967185670000e+01   7.150290285061923e+00   4.538995800000000e+00 -6.72080070e-01   7.50910750e-01  -6.96061660e-01
C     4.718889709199999e+00   7.927452526729735e+00   4.661270700000000e+00 -8.02126900e-02  -1.96123041e+00  -3.47517980e-01
C     5.939020733600000e+00   7.141995404891547e+00   4.849191900000000e+00  1.22729797e+00   4.59417342e+00  -1.14759875e+00
C     7.237664325100000e+00   7.861465700833545e+00   4.719914400000000e+00 -1.69955592e+00   9.25676520e-01   4.57403380e-01
C     8.453846863199999e+00   7.111521555070733e+00   4.639371300000000e+00 -3.43213840e-01   6.28526527e+00  -5.58912540e-01
C     9.697196511400000e+00   7.828700919891051e+00   4.353939900000000e+00 -1.39320337e+00   6.43442580e-01   2.76584400e-02
C     1.091882216390000e+01   7.130652951880858e+00   4.206339300000000e+00 -2.10765852e+00  -2.71235240e-01   1.12018314e+00
C     1.204967532530000e+01   7.826117954610956e+00   4.459606800000000e+00  5.93970671e+00   3.19411434e+00  -7.96195550e-01
