32
Lattice="9.86 0 0 4.93 8.53901048131456 0 0 0 30 " PBC="1 1 1" Properties=species:S:1:pos:R:3:force:R:3 Energy="-254.93193019"
C     5.201232331000000e+00   7.564145809540320e+00  -9.391259999999946e-02 -1.32629516e+00  -9.66279400e-01  -4.46895320e-01
C     6.354966361900000e+00   8.308222971982534e+00  -1.244088000000012e-01  3.62140951e+00   8.24161850e-01  -4.40637700e-01
C     7.624366721700000e+00   7.607462074952740e+00  -1.946462999999987e-01  6.88067420e-01  -1.46195777e+00  -9.89630200e-02
C     8.918760061600000e+00   8.241855989339772e+00  -3.279183000000003e-01 -2.89695993e+00   1.89887294e+00   8.39072480e-01
C     1.012059605320000e+01   7.601110161226982e+00  -2.055758999999995e-01  1.37472180e-01  -2.43817469e+00  -4.64068020e-01
C     1.128715587350000e+01   8.332435677758992e+00  -1.050678000000005e-01  3.50661648e+00  -2.30197144e+00  -1.03532805e+00
C     1.253981252360000e+01   7.536872893188039e+00  -2.006501999999983e-01  7.33194380e-01   1.12845174e+00   1.63756442e+00
C     1.381084165680000e+01   8.165931719217273e+00  -4.671810000000320e-02 -1.81600235e+00   4.24404578e+00  -4.51448030e-01
C     1.473613136900000e+00   1.224433902808116e+00  -2.545637999999997e-01  1.52299007e+00  -3.49529900e+00  -4.81395080e-01
C     2.745183337599999e+00   1.834465507955080e+00  -4.234188000000003e-01 -7.62030610e-01   2.26811178e+00   6.99132680e-01
C     3.992378435099999e+00   1.125438251049913e+00  -3.801191999999993e-01 -9.43185000e-03   1.57359453e+00   5.71332360e-01
C     5.226126415300000e+00   1.883890410684683e+00  -2.482173000000003e-01 -1.91124276e+00   1.53252841e+00  -1.05627149e+00
C     6.437824526800000e+00   1.178819448115109e+00  -1.767450000000004e-01 -8.21344840e-01   2.26916536e+00   1.43694430e-01
C     7.631902029499999e+00   1.960074949846614e+00  -2.179652999999995e-01  2.57076824e+00  -3.62135875e+00   6.47884750e-01
C     8.867809448299999e+00   1.099064834061594e+00  -8.490480000000034e-02 -9.85478200e-02   1.49647195e+00  -1.37860020e+00
C     1.010424511660000e+01   1.816852774158822e+00  -3.413010000000014e-01 -2.21688417e+00   2.32511088e+00   8.14716370e-01
C     2.674245271800000e+00   3.327552477633384e+00  -4.104297000000017e-01  1.54033999e+00  -2.02519217e+00  -5.61064390e-01
C     3.883957332800000e+00   4.036124690670072e+00  -3.887736000000004e-01  3.27710760e+00   1.20314566e+00   2.49137910e-01
C     5.187115276000000e+00   3.408537306926752e+00  -3.367964999999984e-01 -2.49750735e+00  -5.31454479e+00   2.08850960e-01
C     6.389282218500000e+00   4.016410762565001e+00  -3.154673999999993e-01  3.15690851e+00   3.61099476e+00  -3.35255000e-01
C     7.698347189100000e+00   3.358911737450870e+00  -3.266036999999997e-01 -3.18791353e+00  -1.16447041e+00   7.55861510e-01
C     8.920075484200000e+00   4.023653124303613e+00  -3.044234999999986e-01 -5.77493900e-01   5.60065520e-01  -1.18523012e+00
C     1.006747076760000e+01   3.265390189141080e+00  -4.831901999999992e-01  2.65673540e+00   3.49097160e-01   9.24055200e-01
C     1.133709105470000e+01   4.027856281432183e+00  -4.764387000000028e-01 -2.08388221e+00   7.24743300e-02  -9.92427700e-02
C     4.020348050600000e+00   5.473555414720993e+00  -3.237906000000024e-01 -3.65595367e+00  -1.85018294e+00  -1.28280200e-01
C     5.204282719199999e+00   6.162831513435396e+00  -2.969985000000008e-01  1.25958121e+00   8.58772100e-01   7.96025990e-01
C     6.417806557599999e+00   5.496913536328615e+00  -3.081159000000007e-01  1.39513609e+00  -2.87879715e+00   5.46788360e-01
C     7.669942057399999e+00   6.147339869842371e+00  -1.624871999999975e-01  1.21024250e-01   1.28632457e+00  -1.16644513e+00
C     8.940853659399998e+00   5.438498677975563e+00  -3.013952999999994e-01 -1.66590098e+00   4.16107800e-01   6.19752220e-01
C     1.015643666020000e+01   6.132059310588411e+00  -3.223269000000002e-01 -1.85204013e+00   3.21143532e+00   3.83792340e-01
C     1.133739715840000e+01   5.501735686326881e+00  -4.339791000000019e-01  3.43604879e+00  -4.09724671e+00   8.22664420e-01
C     1.262874119470000e+01   6.142622664282905e+00  -2.420903999999986e-01 -2.24396885e+00   4.86542780e-01  -1.33120186e+00
