32
Lattice="9.86 0 0 4.93 8.53901048131456 0 0 0 30 " PBC="1 1 1" Properties=species:S:1:pos:R:3:force:R:3 Energy="-253.76966243"
C     5.198493716000000e+00   7.533262770337304e+00  -1.092005999999976e-01 -5.37778130e-01   2.47414164e+00  -3.26105690e-01
C     6.434452998399999e+00   8.330338069834580e+00  -1.100619000000016e-01 -1.87788674e+00  -3.32052266e+00  -6.22957830e-01
C     7.620149895500000e+00   7.594426592334182e+00  -1.753709999999984e-01  7.61301410e-01  -8.56341260e-01   2.22327200e-01
C     8.804456828399999e+00   8.333619782342254e+00  -1.657763999999986e-01  3.81682720e+00  -1.07221050e+00  -1.53423289e+00
C     1.009641933320000e+01   7.647911794547024e+00  -1.880045999999993e-01  3.00992500e-02  -1.89349207e+00  -4.16805250e-01
C     1.138856528330000e+01   8.354629590677771e+00  -1.652624999999972e-01 -3.53726072e+00   6.44397580e-01   5.96899210e-01
C     1.258644677400000e+01   7.671815046583689e+00   2.108400000000000e-03 -3.18123000e-02  -2.17566005e+00  -2.57949018e+00
C     1.380397914610000e+01   8.382285737820395e+00  -5.182200000000137e-02  1.72088313e+00  -5.15627632e+00   3.60617520e-01
C     1.497819042500000e+00   1.133958988047486e+00  -3.157950000000014e-01 -2.24505780e-01   3.31923173e+00  -1.20303410e-01
C     2.800407965100000e+00   1.871475543347811e+00  -5.251350000000023e-01 -3.47708238e+00  -1.16305202e+00   8.81967580e-01
C     3.993326129000000e+00   1.159347600957146e+00  -4.825011000000003e-01 -1.13618101e+00   6.84048410e-01   1.80405118e+00
C     5.174426737800000e+00   1.942417727805755e+00  -3.343719000000007e-01  3.04622800e-01  -3.10565075e+00  -3.67657320e-01
C     6.404823797000000e+00   1.264069342363027e+00  -2.178296999999993e-01  8.57562290e-01  -3.12461317e+00   4.76734340e-01
C     7.663126036600000e+00   1.836164941820810e+00  -1.722231000000001e-01 -2.41416467e+00   5.07655765e+00  -2.63691280e-01
C     8.861285135599999e+00   1.202796647982530e+00  -1.121690999999991e-01  1.42328565e+00  -5.16459340e-01   7.83362100e-02
C     1.006753988620000e+01   1.857649775309328e+00  -2.810148000000012e-01  3.87146854e+00   1.74842420e-01  -6.44568320e-01
C     2.736072697600000e+00   3.252342068787011e+00  -4.986573000000014e-01 -1.26602548e+00   2.80975460e+00  -1.86813261e+00
C     3.936492990400000e+00   4.042050593162982e+00  -5.492922000000000e-01 -6.80949450e-01  -1.67631856e+00   1.29037279e+00
C     5.125580987999999e+00   3.276060365856678e+00  -3.290172000000027e-01  2.65311518e+00   5.53068017e+00  -1.91618859e+00
C     6.478185500099999e+00   4.071007829332443e+00  -4.213734000000002e-01 -2.73169900e+00  -5.22142763e+00   2.15340669e+00
C     7.644173884099999e+00   3.304777314271233e+00  -2.594178000000014e-01  1.98385060e+00  -6.67204560e-01  -8.76933430e-01
C     8.923283681699999e+00   3.980585685656580e+00  -3.648440999999991e-01 -1.94193780e+00  -9.52174000e-03  -1.78262690e-01
C     1.013284636370000e+01   3.241379943303102e+00  -4.965291000000001e-01 -1.87559641e+00   1.25159508e+00   5.92362340e-01
C     1.129390770570000e+01   3.982474514774756e+00  -6.300510000000017e-01  4.40600728e+00   4.98904700e-02   8.96414350e-01
C     3.916483796600000e+00   5.444762554503272e+00  -4.616684999999983e-01  2.10524953e+00   2.08106590e+00   3.29820760e-01
C     5.236912121400000e+00   6.120312364651284e+00  -3.283592999999989e-01 -2.70253429e+00   7.11785400e-01   1.38595073e+00
C     6.461585894300000e+00   5.397057237704132e+00  -1.931162999999998e-01 -1.29609201e+00   3.31979209e+00  -1.85358122e+00
C     7.632501369600000e+00   6.159052147396949e+00  -2.469522000000026e-01  1.51137408e+00  -4.51874800e-01   7.33119330e-01
C     8.858216111999999e+00   5.394553172880872e+00  -3.598292999999977e-01  1.14296102e+00   2.65054011e+00   2.88360660e-01
C     1.006564395610000e+01   6.198837702756098e+00  -3.604968000000000e-01  2.43238298e+00  -1.21262455e+00  -2.44663840e-01
C     1.141201236330000e+01   5.414381352946166e+00  -5.524683000000010e-01 -4.11623943e+00   2.69549110e+00   1.14188018e+00
C     1.257302080640000e+01   6.237801634526862e+00  -3.832754999999999e-01  8.26754670e-01  -1.85056435e+00   5.80953470e-01
