32
Lattice="9.86 0 0 4.93 8.53901048131456 0 0 0 30 " PBC="1 1 1" Properties=species:S:1:pos:R:3:force:R:3 Energy="-253.59684951"
C     9.743564936200000e+00   3.989838984363231e-01   4.421040300000000e+00  1.89821700e-01   2.58690706e+00  -3.76382030e-01
C     1.110259121700000e+00   1.144039289919126e+00   4.426169700000000e+00  8.50404130e-01  -2.40524200e-01   1.69092000e-03
C     2.348589389000000e+00   4.495339865768752e-01   4.662428700000000e+00  1.10362850e-01  -3.46605402e+00  -7.79491350e-01
C     3.644368305400000e+00   9.373599701898432e-01   4.549475699999999e+00 -2.91128319e+00   6.93025268e+00  -6.39632230e-01
C     4.849610335400000e+00   3.004833385057504e-01   4.570873800000000e+00  1.37425391e+00   1.61864552e+00  -6.16948330e-01
C     6.085642729700000e+00   1.073619095171823e+00   4.503108600000000e+00  1.03398530e-01  -5.93901570e-01   7.52680140e-01
C     7.319346093400000e+00   3.385210438097488e-01   4.580772000000001e+00 -8.06914810e-01   9.36933900e-02  -1.36780230e+00
C     8.502098252200000e+00   1.056897577899363e+00   4.447728000000000e+00  9.23699800e-01   2.98741260e+00  -4.34414190e-01
C     1.098980992410000e+01   2.546618555036556e+00   4.230211200000000e+00  1.90273130e-01  -7.58979760e-01   8.61128330e-01
C     2.387276824500000e+00   3.197592751462710e+00   4.326466200000000e+00 -1.52473469e+00   3.40820160e-01  -5.70671410e-01
C     3.577281555600000e+00   2.502823592696628e+00   4.356144900000000e+00  2.49114588e+00  -3.14873288e+00   8.78677710e-01
C     4.812444790900000e+00   3.197050011956601e+00   4.400775599999999e+00  1.68010030e+00   7.86145820e-01   6.15470230e-01
C     6.101526400899999e+00   2.522062581038801e+00   4.512489300000000e+00 -3.52867564e+00  -2.54434770e+00  -2.40410820e-01
C     7.271997732499999e+00   3.209557954507705e+00   4.579280400000000e+00  3.02666403e+00   1.59103266e+00  -1.26650130e+00
C     8.512563606900001e+00   2.522208085777380e+00   4.348768500000000e+00  4.11720810e-01  -6.78271270e-01   1.23765440e+00
C     9.778751825199999e+00   3.280713272667231e+00   4.257163500000000e+00 -2.03025157e+00  -3.15602077e+00   6.08140400e-02
C     1.223594507160000e+01   4.607424112790699e+00   4.379685600000000e+00 -3.32301372e+00   1.24157226e+00  -7.26746810e-01
C     3.530514737500000e+00   5.267590127048049e+00   4.546569600000000e+00  5.54747661e+00   3.13295348e+00   2.32342700e-02
C     4.853128087600000e+00   4.630731341895859e+00   4.503443400000000e+00 -1.09905149e+00   3.61440460e-01   1.27214640e+00
C     6.057272354500000e+00   5.416836489239375e+00   4.793147400000000e+00  2.33816600e-02  -7.87375180e-01  -2.37577135e+00
C     7.323277275400000e+00   4.646380274061927e+00   4.604846400000000e+00 -2.67144461e+00   1.57353940e+00   1.84959322e+00
C     8.515793200599999e+00   5.400105920615807e+00   4.634968500000000e+00  2.74178260e-01  -3.04813621e+00  -1.59515487e+00
C     9.731967752099999e+00   4.629449209472287e+00   4.359400200000001e+00  8.63334470e-01   5.22836140e+00   1.49572160e-01
C     1.096792742890000e+01   5.443296321013752e+00   4.276284299999999e+00  9.02761790e-01  -5.11904503e+00   1.64645820e+00
C     1.351361225260000e+01   6.733908579723124e+00   4.626222000000000e+00 -9.80276990e-01   7.03962840e-01  -2.18152177e+00
C     4.840163863800000e+00   7.598291775427954e+00   4.429649100000000e+00 -1.83841520e-01  -5.08487805e+00   2.75818278e+00
C     6.060473107699999e+00   6.942981725650370e+00   4.732516800000000e+00 -3.07349258e+00  -6.28557734e+00  -4.99143390e-01
C     7.259256196799999e+00   7.478276495472183e+00   4.758996300000000e+00  1.86536776e+00   5.35983924e+00  -4.01768190e-01
C     8.443246278600000e+00   6.785002261270833e+00   4.616315999999999e+00  3.65155517e+00   3.72216060e-01   4.19758990e-01
C     9.733595884600000e+00   7.474235323372417e+00   4.498236000000000e+00  8.41381910e-01  -1.60792037e+00   1.25951183e+00
C     1.102430996550000e+01   6.786975711982866e+00   4.531591200000000e+00 -1.05185867e+00   4.39923430e-01  -1.65295231e+00
C     1.231318352950000e+01   7.438522363671598e+00   4.477885200000000e+00 -2.13644321e+00   1.17104586e+00   1.93873902e+00
