32
Lattice="9.86 0 0 4.93 8.53901048131456 0 0 0 30 " PBC="1 1 1" Properties=species:S:1:pos:R:3:force:R:3 Energy="-250.22337114"
C     9.769983918799998e+00   2.276124477506880e-01   4.769898600000000e+00 -5.08400700e-01   7.59440066e+00   1.08961949e+00
C     1.124646784400000e+00   1.082119082373930e+00   4.893111600000000e+00  8.67627450e-01  -2.52995710e+00  -2.10286521e+00
C     2.284733268200000e+00   4.239728002654144e-01   4.268456400000000e+00 -1.27098800e-02  -9.23216090e-01   1.30525683e+00
C     3.514769796500000e+00   1.090603528576962e+00   4.404003600000000e+00  2.52321160e-01   2.47931286e+00  -9.84418000e-02
C     4.746766049100000e+00   4.088354402172040e-01   4.252573800000000e+00  1.92994778e+00   3.06127631e+00   8.88805780e-01
C     6.056765402600000e+00   1.176967849082626e+00   4.399861500000000e+00  2.66999090e-01  -4.24044323e+00  -1.01200300e-02
C     7.327649593800000e+00   4.599715606469984e-01   4.484613300000000e+00 -7.02707500e-02  -1.03082860e-01   1.21055968e+00
C     8.546640112000000e+00   1.106666346580995e+00   4.928861700000001e+00 -1.42616567e+00   2.09265360e-01  -2.28007043e+00
C     1.108009020400000e+01   2.479102392363397e+00   5.239755000000000e+00 -2.25545373e+00   1.27684796e+00  -2.50470840e-01
C     2.401121102600000e+00   3.275462293562659e+00   5.167331100000000e+00  2.08237730e-01  -4.70521510e-01  -1.71704061e+00
C     3.534707505300000e+00   2.585393347725188e+00   4.703007300000000e+00  2.29055610e+00  -2.15689432e+00  -8.28250830e-01
C     4.801600910800000e+00   3.250550925948726e+00   4.360257000000000e+00 -1.53784400e-02  -1.07002546e+00   1.07376963e+00
C     6.126309658799999e+00   2.517708795765363e+00   4.418033400000000e+00 -2.97459061e+00   4.38908031e+00  -9.43557530e-01
C     7.304824729100000e+00   3.334501097411484e+00   4.441692000000000e+00  1.96822493e+00  -3.08914573e+00   1.68383700e+00
C     8.516535313499999e+00   2.628916854921957e+00   4.921670400000000e+00  2.05834472e+00  -1.93998011e+00  -2.28026600e-01
C     9.861912790699998e+00   3.283666147881319e+00   5.179100399999999e+00 -3.84244623e+00  -1.29741124e+00  -6.28417690e-01
C     1.224925183180000e+01   4.742931036339495e+00   5.001526800000000e+00 -5.14830492e+00  -3.02958242e+00   1.37975350e+00
C     3.480495204000000e+00   5.281961879416623e+00   4.530626700000000e+00  5.11499737e+00   6.30494190e+00  -2.12306395e+00
C     4.724836176599999e+00   4.642213066167477e+00   4.204963800000000e+00  2.56417331e+00   2.57435100e-01   5.27156210e-01
C     6.023830192500000e+00   5.360713330518946e+00   3.964353000000000e+00 -2.66927000e-02   1.89163438e+00   5.85323960e-01
C     7.364882186299999e+00   4.704255723122956e+00   4.161818700000000e+00 -3.34732244e+00   6.01482000e-02  -6.22853900e-02
C     8.592644998599999e+00   5.360519751151364e+00   4.307521500000000e+00 -5.98167700e-02   1.91094928e+00   5.96832310e-01
C     9.740566510200001e+00   4.692720630035838e+00   5.022067500000000e+00  9.05479270e-01   1.85724579e+00  -2.31637222e+00
C     1.095462431690000e+01   5.457778312007622e+00   4.980599400000000e+00  1.32055715e+00   2.33538356e+00  -5.30700490e-01
C     1.339135904930000e+01   6.831166969799172e+00   4.405528500000000e+00  3.40498493e+00  -4.42961993e+00  -7.73603350e-01
C     4.798302149200000e+00   7.530025119123708e+00   4.227430800000000e+00 -8.85900130e-01  -1.76217790e+00   9.44465620e-01
C     6.026186042299999e+00   6.903696983255873e+00   3.947600400000000e+00 -2.33463320e+00  -6.72178829e+00  -3.88384290e-01
C     7.217667752099999e+00   7.478807878094353e+00   3.854727000000000e+00  3.75910751e+00   4.55561002e+00   1.66354947e+00
C     8.524832503499999e+00   6.825953562340713e+00   3.955578900000000e+00  6.88922610e-01  -2.02006028e+00   2.66657621e+00
C     9.700608860199999e+00   7.575665617798679e+00   4.344755100000000e+00  1.14912150e+00  -1.22056481e+00  -1.14886449e+00
C     1.100263832640000e+01   6.965691650972454e+00   4.646776500000000e+00 -2.63937084e+00  -5.31514833e+00  -1.43542470e-01
C     1.226627403720000e+01   7.522507203516906e+00   4.444124100000000e+00 -3.20214561e+00   4.13608792e+00   9.58572540e-01
