32
Lattice="9.86 0 0 4.93 8.53901048131456 0 0 0 30 " PBC="1 1 1" Properties=species:S:1:pos:R:3:force:R:3 Energy="-253.91645723"
C     4.980767414500000e+00   8.536732357394040e+00  -8.213909999999913e-02 -6.01740110e-01  -2.16874650e+00   3.29439460e-01
C     1.317462732600000e+00   6.581117845061760e-01  -3.843030000000169e-02 -2.41147718e+00   8.69791980e-01  -1.60018527e+00
C     7.464223461100000e+00   8.511697344908358e+00  -4.764690000000016e-02 -1.04521108e+00   1.00189175e+00   3.02163500e-02
C     3.737876650700000e+00   7.397041643951959e-01  -6.894150000000110e-02 -1.69543446e+00  -2.44311544e+00   4.80505250e-01
C     9.816302156199999e+00   8.474145936251196e+00  -2.962050000000005e-02  2.37012585e+00   6.84891800e-01   4.05334000e-02
C     6.114509260099999e+00   5.630967632634344e-01  -8.961599999999237e-03  1.98349554e+00   6.14314098e+00  -1.07534707e+00
C     1.234922459030000e+01   8.484610066643912e+00  -8.377979999999852e-02 -1.35884171e+00   2.07212544e+00   1.10601880e+00
C     8.679275500899998e+00   6.976348506831703e-01  -2.160809999999813e-02 -1.31377060e+00   7.04366670e-01  -4.07729100e-01
C     1.235838152300000e+00   2.067398869306170e+00  -2.303438999999976e-01 -3.09403320e-01   1.48846184e+00   4.01181036e+00
C     2.412435156800000e+00   2.778790407433040e+00   9.738000000000001e-02  2.11742620e-01   3.41052890e+00  -2.23640110e+00
C     3.627745627199999e+00   2.125269024180702e+00   2.475300000000000e-02  1.75502693e+00   1.00297063e+00  -8.71138800e-02
C     4.830290257000000e+00   2.908006471181011e+00  -8.228400000000136e-03  1.89810548e+00  -1.49689438e+00   3.06301400e-01
C     6.046560697000000e+00   2.188349597860026e+00  -9.512610000000166e-02  3.14625190e+00  -2.50744231e+00   4.02773450e-01
C     7.380326840999999e+00   2.902925418384992e+00  -1.545768000000010e-01 -1.24424643e+00  -1.97989096e+00   1.55616079e+00
C     8.634602897499999e+00   2.160093585231182e+00   3.190170000000000e-02 -9.30378500e-01  -4.87839160e-01  -1.42749251e+00
C     9.877040347800000e+00   2.851957943412177e+00   1.945080000000000e-02  5.39752460e-01  -1.41083556e+00  -1.43028840e+00
C     1.233225020590000e+01   4.345847494685497e+00   5.643990000000000e-02  6.27925020e-01  -4.72054733e+00   6.54340640e-01
C     3.682320579299999e+00   5.025928445354617e+00  -6.484890000000121e-02  7.96930250e-01  -5.03160380e-01   2.38167528e+00
C     4.937480979200000e+00   4.307603743058616e+00   7.055700000000001e-02 -1.23957697e+00   5.50836370e-01  -1.11829503e+00
C     6.183538528500000e+00   5.001969860530042e+00   5.540070000000000e-02 -3.20042550e-01  -8.65837250e-01  -1.53371095e+00
C     7.418991302699999e+00   4.325954503530660e+00  -1.102992000000000e-01  7.26671750e-01  -1.65460309e+00   2.42954910e-01
C     8.703585922500000e+00   4.961073977638178e+00  -1.319111999999976e-01 -8.59216080e-01   2.17679847e+00   1.15426607e+00
C     9.952738920200000e+00   4.267059667398528e+00   1.641660000000000e-02 -2.48911610e+00  -5.75965300e-02   2.95052000e-01
C     1.113903136130000e+01   5.003501588229945e+00   2.087079000000000e-01 -8.65387910e-01  -1.33805968e+00  -1.66983383e+00
C     1.349612036610000e+01   6.432360682780833e+00   9.380280000000001e-02  1.77365279e+00  -1.27416751e+00  -1.96295705e+00
C     4.891183940800000e+00   7.046896445175787e+00  -1.166456999999994e-01  8.04968100e-01   3.44863047e+00   1.01433413e+00
C     6.145341332199999e+00   6.378945158893507e+00  -1.313006999999971e-01 -8.17529300e-02   1.31141323e+00   1.24302061e+00
C     7.368813959900000e+00   7.121433382265603e+00  -3.575909999999993e-02  2.22679122e+00  -1.22974774e+00  -8.48616660e-01
C     8.658414896100000e+00   6.448641330942211e+00  -5.468400000000173e-02 -1.34066201e+00  -3.80216388e+00  -7.44058500e-02
C     9.896444039000000e+00   7.066839133371617e+00  -3.401100000001378e-03 -2.07710665e+00   9.46681080e-01   8.61554700e-02
C     1.110422437810000e+01   6.364305793936490e+00   8.913300000000000e-02 -9.65042190e-01   2.06454544e+00   1.81955400e-01
C     1.227017948460000e+01   7.103868723098348e+00   5.029500000000000e-02  2.28696690e+00   6.35726400e-02  -4.51370800e-02
