32
Lattice="9.86 0 0 4.93 8.53901048131456 0 0 0 30 " PBC="1 1 1" Properties=species:S:1:pos:R:3:force:R:3 Energy="-249.90223262"
C     9.597352130099999e+00   8.869401019591112e-01   4.049525400000000e+00  9.08082000e-03   1.27522770e+00  -1.08060560e+00
C     9.529426737999999e-01   1.520220358599342e+00   3.829639500000000e+00  8.28794270e-01   4.71174455e+00  -8.99875840e-01
C     2.179149430200000e+00   9.059360700630240e-01   4.084081800000000e+00  4.71494800e-02   2.86367308e+00  -1.03245571e+00
C     3.408754830000000e+00   1.634160303378803e+00   3.893782200000000e+00  1.02865302e+00   1.63508679e+00   8.80742100e-02
C     4.659511458100000e+00   9.759572368505960e-01   3.996692400000000e+00  1.89027515e+00  -1.99996540e+00  -2.86742213e+00
C     5.942357209699999e+00   1.513571458089090e+00   3.693055200000000e+00  3.62928500e-01   6.28318012e+00   7.46208580e-01
C     7.286673750899999e+00   9.806379808353127e-01   3.772643400000000e+00 -8.12907708e+00  -4.55968292e+00  -7.74169160e-01
C     8.405151429099998e+00   1.642504368249545e+00   3.669013200000000e+00  3.34874700e+00   1.78354860e+00   1.22571554e+00
C     1.089925425440000e+01   3.029482092709072e+00   3.370535100000000e+00 -3.55705900e+00  -1.60947177e+00   2.43146005e+00
C     2.240487159100000e+00   3.742068921522932e+00   3.423316800000000e+00  1.91764540e-01   4.07639550e-01   5.90895620e-01
C     3.482187426500000e+00   3.072783329463047e+00   3.636770400000000e+00 -1.76644418e+00  -2.53807919e+00   1.03705950e-01
C     4.716399714100000e+00   3.725559257100481e+00   3.688476900000000e+00 -8.12513560e-01   1.09538804e+00  -5.39808340e-01
C     5.917840073199999e+00   3.040659998987811e+00   3.637032600000000e+00  1.64470103e+00  -1.98537657e+00   1.87243223e+00
C     7.133502989300000e+00   3.768556590471473e+00   3.921222300000000e+00  1.30728670e-01   1.52388208e+00  -1.09691544e+00
C     8.359615434799998e+00   3.090786039867926e+00   3.651177300000000e+00  1.66386570e-01  -8.46251330e-01   7.38494040e-01
C     9.559829555000000e+00   3.793744024294224e+00   3.555524400000000e+00  2.60827957e+00  -2.73054435e+00  -9.46776050e-01
C     1.206346443670000e+01   5.182480443352213e+00   3.555282000000000e+00  3.31751012e+00  -3.98665600e-01   3.80243790e-01
C     3.455789199200000e+00   5.884064074041754e+00   3.979272300000000e+00 -8.66726460e-01   7.78691850e-01  -2.30162321e+00
C     4.705969263799999e+00   5.144230543637786e+00   3.831507000000000e+00 -1.49212962e+00   7.92760190e-01   2.42810331e+00
C     5.890022597500000e+00   5.776493121009010e+00   4.318582500000000e+00 -1.25834211e+00   3.18461618e+00  -2.46300970e-01
C     7.131754022500000e+00   5.262404727543964e+00   4.256917200000000e+00  5.32373127e+00  -5.12630631e+00  -1.58220880e+00
C     8.540680087100000e+00   5.912591797984072e+00   4.185159000000000e+00 -6.50388606e+00   2.80713575e+00  -8.13082140e-01
C     9.556001360699998e+00   5.160798529501815e+00   3.645569400000000e+00  3.85509950e+00   2.29898301e+00   2.85733020e-01
C     1.089207267410000e+01   5.847475694986525e+00   3.491012100000000e+00 -3.87564289e+00   3.89421097e+00   1.96192621e+00
C     1.323325094200000e+01   7.415847277512273e+00   4.072012800000000e+00  2.63909721e+00  -5.21878234e+00   8.71215660e-01
C     1.445754796430000e+01   8.069717650122929e+00   4.419556800000000e+00  1.56900944e+00  -2.95843632e+00  -1.12974449e+00
C     5.872622211800000e+00   7.159656298706912e+00   4.568128499999999e+00 -6.41708480e-01   6.93995505e+00  -1.80189652e+00
C     7.109954006199999e+00   8.123563540138447e+00   4.295220900000000e+00  1.03100610e+00  -7.33197576e+00   1.40025217e+00
C     8.424331446200000e+00   7.477528648934344e+00   4.098120600000000e+00 -1.16465738e+00  -5.01476903e+00   6.15773910e-01
C     9.626200567400002e+00   8.086392715178379e+00   3.785608799999999e+00 -5.84696540e-01   9.95422650e-01   2.25849611e+00
C     1.085541994820000e+01   7.382514054642126e+00   3.760844700000000e+00 -7.84249910e-01  -3.46102404e+00  -2.03923614e+00
C     1.206016641460000e+01   8.047058958863724e+00   3.775762799999999e+00  1.44419101e+00   2.50818477e+00   1.15339019e+00
