32
Lattice="9.86 0 0 4.93 8.53901048131456 0 0 0 30 " PBC="1 1 1" Properties=species:S:1:pos:R:3:force:R:3 Energy="-252.71156901"
C     5.105853198600000e+00   7.899121285418564e+00  -8.211258000000008e-01  3.75293120e-01  -1.85767883e+00  -1.51595853e+00
C     1.403212490400000e+00   7.170599894538081e-02  -9.654881999999994e-01 -8.55350570e-01   9.23169360e-01   1.13784815e+00
C     7.490628195999999e+00   7.907524184071512e+00  -8.889648000000001e-01  2.11897603e+00  -3.72580027e+00  -5.11841430e-01
C     8.763178332799999e+00   8.534743024122516e+00  -1.024764000000001e+00  7.89778250e-01   6.82857260e-01   3.61587100e-02
C     9.989724371800000e+00   7.845215878499999e+00  -1.063979699999997e+00  1.53563266e+00   1.40894400e+00   1.41144016e+00
C     1.127380360940000e+01   8.536702214687047e+00  -9.290519999999987e-01 -1.38648340e-01   3.79592050e-01  -2.65760690e-01
C     1.249978886090000e+01   7.785317025515630e+00  -9.586373999999971e-01  1.04554210e+00   2.13810475e+00  -6.79533590e-01
C     8.817350898300001e+00   4.543223220936400e-02  -8.410413000000005e-01 -2.81417550e-01  -7.61140150e-01   2.15989290e-01
C     1.537532016600000e+00   1.504143963568646e+00  -1.024085399999997e+00 -8.54331534e+00  -2.68979326e+00   6.16320840e-01
C     2.635514255099999e+00   2.143366688382119e+00  -1.162883399999998e+00  7.85340565e+00  -6.22872770e-01  -5.41470600e-02
C     3.974275228600000e+00   1.373785721778870e+00  -1.136085300000001e+00 -3.10665986e+00   2.26679384e+00   1.26345130e-01
C     5.183050638899999e+00   2.124984077400985e+00  -1.086874800000000e+00 -4.33880030e-01  -1.54026177e+00   2.35166590e-01
C     6.417811783399999e+00   1.461724891987360e+00  -8.525807999999984e-01 -4.06171830e-01  -2.10897260e+00  -7.90630730e-01
C     7.662755054100000e+00   2.168383427385375e+00  -8.159166000000013e-01 -8.50248860e-01  -1.36970799e+00  -3.40956950e-01
C     8.918959085699999e+00   1.478615823227743e+00  -8.055462000000020e-01 -1.83303319e+00  -2.64350170e-01   6.31932200e-02
C     1.009893131610000e+01   2.243522108543716e+00  -9.326810999999999e-01  1.45914210e-01  -9.68930140e-01  -1.37494163e+00
C     2.654395612800000e+00   3.503446017489018e+00  -1.196584200000000e+00  1.29237426e+00   2.28462012e+00  -1.15667060e+00
C     3.910031116800000e+00   4.154329188063454e+00  -1.266120299999997e+00 -1.00882089e+00   4.30445739e+00  -1.65366207e+00
C     5.110830428000000e+00   3.514148471664230e+00  -1.219889999999999e+00  1.63079933e+00  -8.06599370e-01   1.16711507e+00
C     6.333074253200000e+00   4.210967761456456e+00  -1.049142000000000e+00 -1.12453943e+00   1.31813550e-01  -6.23844270e-01
C     7.539104540899999e+00   3.530072445357859e+00  -9.354465000000012e-01  3.33111017e+00   3.28867465e+00  -1.76455680e-01
C     8.804746317999999e+00   4.403966647105626e+00  -1.006862099999999e+00 -1.83207050e+00  -4.21908476e+00   4.19496180e-01
C     9.988569765799999e+00   3.651886638651451e+00  -1.230873600000002e+00  3.41358207e+00  -1.20640740e+00   1.67913478e+00
C     1.135431415760000e+01   4.225895147236963e+00  -1.319689499999999e+00 -5.58547388e+00   4.52761645e+00   1.02583191e+00
C     3.951192722100000e+00   5.640014116507170e+00  -1.509032399999999e+00 -1.89054852e+00   1.56925152e+00   4.09160873e+00
C     5.132336862799999e+00   6.431459731785088e+00  -1.011877800000001e+00 -2.13675993e+00  -1.71490658e+00  -2.34718552e+00
C     6.281932996800000e+00   5.601572601397574e+00  -1.035429000000001e+00  2.47861858e+00   4.36317687e+00   1.58496569e+00
C     7.495575451000000e+00   6.421448766678546e+00  -8.314409999999981e-01 -1.02984400e-01   7.84089500e-02   5.55765400e-02
C     8.753418411800000e+00   5.748156500121235e+00  -7.565670000000004e-01  3.75472400e-02   1.77282445e+00  -1.82129295e+00
C     9.985538407400000e+00   6.479537434831260e+00  -9.422084999999996e-01  5.30158550e-01  -2.45745218e+00  -6.04879450e-01
C     1.118416590570000e+01   5.774690706676892e+00  -1.216508699999999e+00  4.26047075e+00  -2.89894595e+00  -7.11673510e-01
C     1.251907280240000e+01   6.413854512318053e+00  -1.332855599999998e+00 -7.09279860e-01  -9.07401000e-01   7.63243660e-01
