32
Lattice="9.86 0 0 4.93 8.53901048131456 0 0 0 30 " PBC="1 1 1" Properties=species:S:1:pos:R:3:force:R:3 Energy="-253.37736978"
C     8.953254679999999e-02   1.248352098113120e-01   4.243528500000000e+00 -5.76760939e+00   6.51918134e+00  -5.68343250e-01
C     1.208475124000000e+00   9.378538665560064e-01   4.283047199999999e+00  1.11752917e+00  -4.07692456e+00  -6.87108160e-01
C     2.401109172000000e+00   1.846432931142800e-01   4.164336300000000e+00  3.04608564e+00   2.07640969e+00   9.25816500e-02
C     3.674578753800000e+00   8.818533280260704e-01   4.058572500000000e+00 -1.62236190e-01  -1.76279969e+00   8.58989460e-01
C     4.894544179500000e+00   3.714153615412240e-02   4.162611600000000e+00 -2.11765539e+00   5.89571754e+00  -5.09247210e-01
C     6.013030041500000e+00   8.901927818311528e-01   4.190091300000000e+00  3.46392483e+00  -1.33602698e+00  -3.22662200e-01
C     7.291056866000000e+00   1.898083697734224e-01   4.133736300000000e+00  1.81885191e+00  -6.14963790e-01  -9.67509970e-01
C     8.621431564399998e+00   8.454428165591408e-01   4.085007000000000e+00 -1.77916179e+00   1.34580384e+00   1.48773671e+00
C     1.102162365780000e+01   2.277525387566229e+00   4.155256200000000e+00  2.27803160e+00   2.84142933e+00  -4.16024050e-01
C     2.407261220400000e+00   2.997584277500613e+00   3.961615500000000e+00  1.85174405e+00   8.67346770e-01   1.30319959e+00
C     3.679648026299999e+00   2.305878403354126e+00   4.083286800000000e+00 -9.52612520e-01   4.79840520e-01   4.93343420e-01
C     4.866930362100000e+00   3.091395639826093e+00   4.357194300000000e+00 -8.59155250e-01  -1.04292363e+00  -2.42999986e+00
C     6.050358522500000e+00   2.299526233458054e+00   4.192880700000000e+00  1.04840601e+00   2.46518787e+00   9.82978220e-01
C     7.328933612300000e+00   3.066205558910093e+00   4.143114900000000e+00 -5.50829080e-01  -4.02228342e+00  -4.65371690e-01
C     8.555532451600000e+00   2.333559569797456e+00   4.161084300000001e+00  1.01169134e+00  -2.62374036e+00  -1.84333000e-02
C     9.831827860099999e+00   2.955679681300746e+00   4.226228700000000e+00 -2.57411327e+00   4.03028905e+00  -1.35828632e+00
C     1.239363910820000e+01   4.463218670046136e+00   4.003135200000000e+00 -6.24421707e+00  -2.78654698e+00  -8.59363800e-02
C     3.653935611300000e+00   5.204168334509944e+00   4.080290400000000e+00  1.11276299e+00   2.52368468e+00   5.51782900e-01
C     4.828368543000000e+00   4.539845359170721e+00   4.274793000000001e+00  4.29025558e+00  -2.64714446e+00   1.20494700e-01
C     6.148095378099999e+00   5.169673806214518e+00   4.254310800000000e+00 -2.90489702e+00   1.78679565e+00  -9.12938140e-01
C     7.344303824000000e+00   4.426985257656561e+00   4.013801100000000e+00 -6.34638050e-01   3.07849705e+00   2.62264823e+00
C     8.528456201399999e+00   5.199190689130838e+00   4.185514800000000e+00  3.02449600e+00  -2.36817340e+00  -1.23022938e+00
C     9.819957701900000e+00   4.445885247282678e+00   4.107657600000000e+00 -2.78163730e-01  -1.11336497e+00   9.13118690e-01
C     1.108482093340000e+01   5.114032333075266e+00   4.087286700000000e+00 -1.78396430e-01   1.06916649e+00   9.17262920e-01
C     1.346909366240000e+01   6.647070087965507e+00   4.092674700000000e+00  1.12967858e+00  -1.01645239e+00  -5.12081900e-01
C     4.869140875499999e+00   7.366600840101703e+00   4.176743699999999e+00  1.30458310e-01  -5.65930393e+00   2.74525480e-01
C     6.063780891200000e+00   6.630202639003944e+00   4.251899700000000e+00  4.43076892e+00  -1.82235181e+00  -6.99466100e-02
C     7.433319213799999e+00   7.346855659218275e+00   4.245373500000000e+00 -5.02593043e+00  -1.47851386e+00  -2.51851300e-01
C     8.609682388400000e+00   6.602945263650736e+00   4.227302400000000e+00 -2.01508175e+00  -1.72128346e+00  -3.60543990e-01
C     9.824984625700001e+00   7.218152192269418e+00   4.159364099999999e+00  1.03952336e+00   1.48642200e-01   1.37879079e+00
C     1.103942485250000e+01   6.551137293876375e+00   4.293900900000000e+00  6.37715310e-01  -2.31787524e+00  -2.85300614e+00
C     1.222068203810000e+01   7.251622380867666e+00   4.023767100000000e+00  6.12773770e-01   3.28268089e+00   2.02206709e+00
