32
Lattice="9.86 0 0 4.93 8.53901048131456 0 0 0 30 " PBC="1 1 1" Properties=species:S:1:pos:R:3:force:R:3 Energy="-251.96081266"
C     5.066672418000000e+00   7.900140330929246e+00  -1.396236299999998e+00  1.67805100e-02  -1.84725520e-01   4.42108810e-01
C     1.354222735300000e+00   5.796767037421360e-02  -1.386859500000000e+00  2.65686584e+00   2.54360332e+00  -9.04852280e-01
C     7.609952831399999e+00   7.960064373994532e+00  -1.534704900000001e+00 -4.22733453e+00  -3.47650944e+00   1.88216658e+00
C     3.895109584400000e+00   6.149573333423520e-02  -1.358369100000001e+00  2.46436780e-01   1.49870709e+00  -9.03413000e-03
C     1.003108302920000e+01   7.905406338692262e+00  -1.278090899999999e+00  2.33414568e+00  -1.68618467e+00   9.87398200e-02
C     6.423996123300000e+00   1.496845842091600e-02  -1.384919400000001e+00 -3.65748708e+00   1.19325341e+00   4.12765200e-02
C     1.254905435090000e+01   7.799164397250626e+00  -1.374144300000001e+00 -1.27089562e+00   4.21040666e+00   7.52914310e-01
C     8.768062582400001e+00   1.329689588539312e-01  -1.431357899999998e+00  3.10160471e+00  -3.43271130e+00  -2.46098840e-01
C     1.403850580300000e+00   1.560640020876737e+00  -1.209016200000001e+00 -6.00148700e-02  -1.89472753e+00   1.86491278e+00
C     2.635305864000000e+00   2.112899925940003e+00  -6.573567000000011e-01 -5.70225200e-02   2.20662078e+00  -2.49938295e+00
C     3.905492361600000e+00   1.466378652698960e+00  -1.062285299999999e+00 -2.00054625e+00   9.11835850e-01   1.70126265e+00
C     5.087182598400000e+00   2.215494941395736e+00  -9.667119000000000e-01  2.81950758e+00  -2.73225276e+00  -2.04022491e+00
C     6.351857996900000e+00   1.492794679349574e+00  -1.407156900000000e+00 -4.23111410e-01  -1.52526111e+00   9.20422320e-01
C     7.582818604400000e+00   2.149625356113435e+00  -1.513633800000001e+00  9.40087550e-01   2.91646518e+00   8.49673160e-01
C     8.907060185599999e+00   1.530737516247139e+00  -1.495851299999998e+00 -5.15174632e+00  -3.92737680e-01  -1.47730900e-01
C     1.001866825390000e+01   2.293049735569393e+00  -1.216584900000001e+00  3.40219092e+00  -1.15116974e+00   3.54007210e-01
C     2.648421438800000e+00   3.612126785713846e+00  -3.462837000000007e-01  2.49861410e-01  -2.84157980e-01  -1.06341085e+00
C     3.957458259100000e+00   4.288227788988344e+00  -4.475768999999978e-01 -2.53959337e+00   2.71152278e+00  -3.20137580e-01
C     5.176716427000000e+00   3.591909824501399e+00  -8.081771999999994e-01 -1.65822577e+00   1.12849220e+00   5.16844150e-01
C     6.369851017899999e+00   4.298348565769659e+00  -1.110968700000001e+00 -8.59805680e-01   8.31524810e-01   1.03632250e-01
C     7.590692504599999e+00   3.597282740675624e+00  -1.360095300000001e+00  4.32707940e-01   4.95557880e-01   7.13713690e-01
C     8.844670739800000e+00   4.356421095192566e+00  -1.144860899999998e+00 -2.93958365e+00  -1.22830020e-01  -6.94286950e-01
C     1.002759387100000e+01   3.668860654463804e+00  -9.185927999999990e-01  1.55665936e+00   1.37092753e+00   1.12805152e+00
C     1.121374230680000e+01   4.425256108034361e+00  -4.037544000000004e-01  1.37601333e+00  -1.82946934e+00  -2.07399922e+00
C     3.820083710500000e+00   5.899331910170099e+00  -6.140855999999992e-01  3.99968383e+00  -5.79518209e+00  -1.32786958e+00
C     5.040482433899999e+00   6.454145406317409e+00  -1.166675099999999e+00 -2.68223189e+00   2.25012974e+00   1.49896163e+00
C     6.199398634300000e+00   5.750847740054216e+00  -1.165470299999999e+00  5.09156236e+00  -1.18083227e+00  -1.09499068e+00
C     7.462116379099999e+00   6.458395271833305e+00  -1.383112499999999e+00  2.28547147e+00   1.45238345e+00   1.17555490e-01
C     8.751594558299999e+00   5.770681299696113e+00  -1.187936700000002e+00 -3.21981600e-02   1.22608240e-01   4.20358950e-01
C     1.001279765920000e+01   6.467715687162330e+00  -1.021531800000002e+00 -8.99603330e-01   2.21578249e+00  -7.19532820e-01
C     1.124516361250000e+01   5.884965537378127e+00  -6.326849999999986e-01 -1.25799883e+00  -3.46448071e+00  -1.63401110e-01
C     1.249111935730000e+01   6.500469025830779e+00  -8.335937999999992e-01 -7.92180000e-01   1.09341075e+00  -1.01649040e-01
