32
Lattice="9.86 0 0 4.93 8.53901048131456 0 0 0 30 " PBC="1 1 1" Properties=species:S:1:pos:R:3:force:R:3 Energy="-254.25512472"
C     9.636490512700000e+00   8.346934832163928e-01   4.315768800000000e+00  1.24456873e+00  -2.57158521e+00  -1.23594310e-01
C     1.013287845800000e+00   1.493335284103062e+00   4.429745100000000e+00 -3.76181740e-01   2.52878798e+00  -5.64132210e-01
C     2.237802774100000e+00   8.447339932991960e-01   4.255433100000000e+00  9.10167990e-01  -7.43659620e-01  -6.80127610e-01
C     3.565256201000000e+00   1.386678602922413e+00   4.167315900000000e+00 -9.13830240e-01   3.38535491e+00   5.58901730e-01
C     4.801408887300000e+00   7.029266462578360e-01   4.173592800000001e+00  5.09784340e-01   1.46446851e+00  -8.06251180e-01
C     6.064617315000000e+00   1.477829465752640e+00   4.176519000000000e+00 -4.60561740e+00   2.78378732e+00   5.10180690e-01
C     7.247855571799999e+00   8.232504406622496e-01   4.332156900000000e+00  4.52507900e-01  -1.38384730e+00  -2.09904100e-01
C     8.455875854000000e+00   1.513796802575658e+00   4.496540400000000e+00 -1.70063030e+00   2.60583547e+00  -1.33997891e+00
C     1.086152974650000e+01   2.951718263558865e+00   4.517373600000000e+00  4.43320950e-01  -1.67041928e+00   4.64336270e-01
C     2.279203928100000e+00   3.565905207375712e+00   4.488318899999999e+00 -1.75132430e-01   1.09060689e+00  -8.50326240e-01
C     3.544440212700000e+00   2.846503992028497e+00   4.182968700000000e+00 -4.35845962e+00  -1.03084114e+00   1.61826259e+00
C     4.634169483300000e+00   3.615826824344935e+00   4.180969500000000e+00  5.30592031e+00   1.93179115e+00  -4.45127470e-01
C     5.920297875399999e+00   2.981187157236288e+00   4.176082500000000e+00  1.73835289e+00  -2.55895567e+00  -2.36759150e-01
C     7.196141153599999e+00   3.699015486853086e+00   4.188182700000000e+00 -3.25751949e+00   1.00975680e-01   4.78356210e-01
C     8.353095854899999e+00   2.986902402340657e+00   4.407476700000000e+00  4.12151099e+00  -1.20341593e+00   8.53310830e-01
C     9.648282333199999e+00   3.681647139536766e+00   4.532328900000000e+00 -1.20804166e+00   1.15135232e+00  -1.08172911e+00
C     1.208683879920000e+01   5.015737050956632e+00   4.524280200000000e+00  4.01332500e-01  -2.88103400e-01  -4.69841180e-01
C     3.405355299200000e+00   5.743292338191408e+00   4.301073900000000e+00  3.10174763e+00   9.49420400e-02  -7.47340780e-01
C     4.707102029900000e+00   5.077539932497833e+00   4.155163500000000e+00 -5.48239567e+00  -3.01507821e+00   7.88108090e-01
C     5.857442889700000e+00   5.727321570720350e+00   4.075437600000001e+00  4.07165706e+00   4.88354205e+00  -1.49229280e+00
C     7.124635792700000e+00   5.127399043910343e+00   4.112517600000000e+00  2.75177041e+00  -1.61404578e+00   2.67569210e-01
C     8.406625301900000e+00   5.820131904847260e+00   4.164080700000000e+00 -1.29360584e+00   1.76674442e+00   3.84860000e-03
C     9.688042142300000e+00   5.161220868960156e+00   4.376357700000000e+00 -4.19122532e+00  -3.30556421e+00   4.00732180e-01
C     1.087090769110000e+01   5.797835353022513e+00   4.497524400000000e+00  2.96473617e+00  -9.13045800e-02  -8.83718090e-01
C     1.336376500120000e+01   7.139202294563540e+00   4.156105500000000e+00 -2.52929946e+00   2.71408046e+00   8.19768230e-01
C     4.687468797900000e+00   7.914836053355431e+00   4.024707299999999e+00  9.18066010e-01   1.32162760e-01   6.67425330e-01
C     5.923074303499999e+00   7.219171237780102e+00   3.880198500000000e+00 -7.64104920e-01   1.45011300e-01   1.97114516e+00
C     7.122551487299999e+00   8.024600080449753e+00   4.040258400000000e+00  7.04355820e-01  -3.92255583e+00  -2.02322880e-01
C     8.368197726700000e+00   7.304164449372991e+00   4.104251700000000e+00  9.62164300e-01  -3.54201107e+00  -1.16219300e-01
C     9.681623972499999e+00   7.834329579429153e+00   4.146053400000000e+00 -3.25220150e-01   2.14128156e+00   4.69746650e-01
C     1.093453717980000e+01   7.185072151060003e+00   4.262668500000000e+00 -8.09299350e-01   4.09899290e-01   6.21992210e-01
C     1.212951287920000e+01   7.950666168280035e+00   4.278648000000000e+00  1.38859958e+00  -2.38923686e+00  -2.44018670e-01
