32
Lattice="9.86 0 0 4.93 8.53901048131456 0 0 0 30 " PBC="1 1 1" Properties=species:S:1:pos:R:3:force:R:3 Energy="-253.02586192"
C     5.129701186200000e+00   8.034033039936904e+00  -1.236593400000000e+00 -1.85250288e+00   6.57703470e-01   5.87635610e-01
C     1.372905808400000e+00   3.215333655806272e-01  -1.256263199999999e+00 -2.45880530e-01  -2.61637099e+00   1.25125867e+00
C     7.465349867500000e+00   8.077648170716124e+00  -1.118497800000000e+00  2.97576940e-01   5.07243900e-01  -1.39598683e+00
C     3.759702105800000e+00   2.024208298128016e-01  -1.214815800000000e+00 -1.66632770e-01   2.94691781e+00   1.68934925e+00
C     9.846302192200000e+00   8.049400697097759e+00  -1.168198799999999e+00  5.86285483e+00  -1.92077762e+00  -6.57811750e-01
C     6.301382043999999e+00   1.750954839361728e-01  -1.320758400000003e+00 -3.48798071e+00   2.84102590e+00   6.31154930e-01
C     1.242681953650000e+01   8.112775781248539e+00  -1.226665199999999e+00  2.48478617e+00  -3.82178779e+00   1.12843335e+00
C     8.807402454100000e+00   2.758092699930568e-01  -1.215348300000002e+00 -4.72232870e-01  -4.56764064e+00  -1.43924180e-01
C     1.463977451900000e+00   1.719030638610886e+00  -1.155730500000001e+00 -9.71508900e-01  -2.97684350e-01  -5.03105600e-01
C     2.700148822900000e+00   2.424495505733902e+00  -1.071114300000001e+00 -2.99378052e+00  -9.12718740e-01   3.33332650e-01
C     3.818705923400000e+00   1.672003319243857e+00  -1.039474200000001e+00  3.09388112e+00  -2.81674299e+00  -2.10392843e+00
C     5.104516330500000e+00   2.301311398989002e+00  -1.213650899999998e+00 -3.31410460e-01  -3.04729716e+00   2.66143240e-01
C     6.354750970200000e+00   1.631955872433287e+00  -1.346991899999999e+00  3.06703960e-01  -8.06237720e-01   1.38331759e+00
C     7.608152296799999e+00   2.374450841623660e+00  -1.138810800000002e+00 -1.52444021e+00  -1.93285427e+00  -1.18530858e+00
C     8.877127937099999e+00   1.625238147498566e+00  -1.151582100000002e+00 -1.59313887e+00   3.14413972e+00  -6.11125500e-01
C     1.009226142050000e+01   2.364404781184045e+00  -1.196818199999999e+00 -1.67758637e+00   1.35002079e+00   1.04548719e+00
C     2.667274991300000e+00   3.814109308118709e+00  -1.045733700000000e+00 -4.30155731e+00  -1.18509042e+00  -5.43037390e-01
C     3.868621187400000e+00   4.398541130626843e+00  -1.089321000000002e+00 -1.11304050e-01   3.83643821e+00  -3.64919200e-01
C     5.062033337300000e+00   3.624957075910570e+00  -1.167791400000002e+00 -3.12765000e-02   6.64267807e+00   1.11510302e+00
C     6.190297805000000e+00   4.476878695891202e+00  -1.033740599999998e+00  3.80237601e+00  -3.63142567e+00  -1.86889351e+00
C     7.467798943600000e+00   3.770398369641904e+00  -1.120629300000001e+00  1.51072197e+00   1.75878318e+00   8.00256240e-01
C     8.699401387799998e+00   4.547268320980985e+00  -1.106060400000000e+00  7.34209820e-01  -1.66774959e+00  -6.81274540e-01
C     9.968749933300000e+00   3.796354485188065e+00  -1.098817499999999e+00 -3.20559550e-01   3.72270220e-01  -5.99197000e-01
C     1.119675806240000e+01   4.489651176986976e+00  -1.121138400000000e+00  2.28840587e+00  -1.36333280e-01   5.94443720e-01
C     3.763640387000000e+00   5.871656037913265e+00  -1.142713800000003e+00  3.15187279e+00   1.78143530e-01   1.62458006e+00
C     5.124877279800000e+00   6.541350990135562e+00  -1.084638299999998e+00 -4.49823096e+00   3.43542069e+00  -1.70898868e+00
C     6.297634356600000e+00   5.842696837771394e+00  -1.173428399999999e+00  3.63760980e-01   2.46902693e+00   9.17392060e-01
C     7.493219206799999e+00   6.705540620666888e+00  -1.194728400000002e+00  9.89455300e-02  -3.73564455e+00  -2.54946100e-02
C     8.758110588599999e+00   5.987515039908001e+00  -1.237170599999999e+00 -4.89370194e+00  -3.46677305e+00   1.29214610e+00
C     9.912550053199999e+00   6.581418247450446e+00  -1.089574200000001e+00  4.85953305e+00   4.14389891e+00  -9.31357250e-01
C     1.123757841310000e+01   5.892903913860964e+00  -1.107092399999999e+00 -5.33351332e+00  -3.62166610e-01   5.45316870e-01
C     1.235743787170000e+01   6.600905891777798e+00  -1.009572000000002e+00  5.95160970e+00   2.64158411e+00  -1.88099749e+00
