32
Lattice="9.86 0 0 4.93 8.53901048131456 0 0 0 30 " PBC="1 1 1" Properties=species:S:1:pos:R:3:force:R:3 Energy="-253.06710716"
C     4.951493666099999e+00   8.319163493769929e+00  -4.642020000000002e-01  1.20817394e+00   4.13387354e+00   7.46385140e-01
C     1.295587238000000e+00   5.618074580710591e-01  -3.642942000000033e-01 -1.86625832e+00  -2.57762416e+00  -1.01221751e+00
C     7.451446971699999e+00   8.453684503168704e+00  -3.293042999999969e-01 -4.01225430e-01  -3.87289332e+00  -3.69708000e-02
C     3.704945532500000e+00   6.191886692055064e-01  -4.988550000000025e-01  2.15839813e+00  -3.50414827e+00   2.19946280e-01
C     9.902572571299999e+00   8.402214592819247e+00  -5.909453999999990e-01 -3.66144890e-01  -1.06447530e-01  -5.30190510e-01
C     6.195829807299999e+00   6.026416039171527e-01  -5.567333999999988e-01  4.18675220e-01  -4.12192518e+00  -1.11340044e+00
C     1.239527690350000e+01   8.497553157169076e+00  -7.148700000000012e-01 -5.85859440e-01  -3.30618434e+00   1.06162079e+00
C     8.709407069299999e+00   5.910975448690312e-01  -4.152759000000010e-01 -1.74670015e+00  -2.76692500e-01  -1.08052268e+00
C     1.210077078200000e+00   1.865247786834432e+00  -7.852148999999997e-01  2.76749381e+00   4.07844655e+00   1.06985990e+00
C     2.450466261400000e+00   2.685175698518913e+00  -9.289349999999992e-01  1.39898263e+00  -1.24162049e+00  -5.18206560e-01
C     3.696497632400000e+00   1.954033514541909e+00  -7.043964000000003e-01  8.60706820e-01   4.23126484e+00  -8.49803560e-01
C     4.992324961400000e+00   2.666286382655896e+00  -7.099748999999989e-01 -1.40621368e+00   7.27059510e-01  -3.32773450e-01
C     6.208669647200000e+00   1.928617149848189e+00  -5.776068000000016e-01 -1.15926200e-01   5.47204064e+00   1.18154742e+00
C     7.446087667300000e+00   2.670444624589341e+00  -4.173726000000002e-01 -6.21799410e-01   2.64148499e+00  -6.07216610e-01
C     8.682586686100001e+00   2.066839564119730e+00  -3.399891000000004e-01  1.79961680e-01  -4.22199764e+00  -6.34303530e-01
C     9.917011604600001e+00   2.625575967071658e+00  -6.312494999999991e-01 -1.48797753e+00   3.58114475e+00  -7.31800680e-01
C     2.566152063800000e+00   4.099470998355533e+00  -1.292027100000002e+00 -2.32982753e+00  -9.08781410e-01   1.66379294e+00
C     3.814889462500000e+00   4.829297064647255e+00  -1.221645899999999e+00 -1.11869652e+00   8.33475040e-01   2.08462331e+00
C     5.016898447799999e+00   4.132774847029629e+00  -7.940082000000004e-01 -2.83299498e+00  -2.96760991e+00  -6.97743910e-01
C     6.171628042900000e+00   4.744306414757510e+00  -4.098393000000016e-01  1.95465189e+00   4.21858181e+00  -1.15107136e+00
C     7.450306662700000e+00   4.164965294127238e+00  -4.827654000000017e-01 -1.47551189e+00  -4.09747695e+00   7.57915940e-01
C     8.638597775099999e+00   4.839079013492724e+00  -6.748851000000009e-01  2.25728308e+00  -1.15704115e+00   2.27034140e-01
C     9.850115251400000e+00   4.069945491038627e+00  -8.629317000000007e-01  2.89228369e+00   2.58693020e-01  -4.77703240e-01
C     1.112448100860000e+01   4.787044076819805e+00  -1.180455599999998e+00 -7.15932100e-02   1.22618202e+00  -2.45505560e-01
C     3.673846944600000e+00   6.294359941221352e+00  -9.820947000000011e-01  2.72667986e+00  -1.56814555e+00  -3.06214260e-01
C     4.920634626899999e+00   6.985922872332404e+00  -6.828798000000020e-01  1.12823411e+00  -3.87352496e+00   1.01494187e+00
C     6.184702797300000e+00   6.181619642024226e+00  -4.054608000000002e-01  2.19806750e-01   2.52442904e+00  -4.75224710e-01
C     7.473362054199999e+00   6.942299885663542e+00  -2.955071999999994e-01 -5.40134960e-01   2.23385910e-01  -1.16329977e+00
C     8.746080944899999e+00   6.222305977598912e+00  -5.911623000000006e-01 -2.48460125e+00   2.54779278e+00   1.16808260e-01
C     9.931540462499999e+00   6.972963386907118e+00  -8.581959000000019e-01 -6.10423250e-01   6.10413350e-01   8.92201680e-01
C     1.114909319550000e+01   6.293805503270886e+00  -1.189515900000000e+00 -2.18252478e+00  -2.11681974e+00   1.44274673e+00
C     1.232013152640000e+01   6.989984452667216e+00  -9.618009000000001e-01  2.07308181e+00   2.61066531e+00  -5.15255260e-01
