32
Lattice="9.86 0 0 4.93 8.53901048131456 0 0 0 30 " PBC="1 1 1" Properties=species:S:1:pos:R:3:force:R:3 Energy="-253.20594484"
C     9.778648738899999e+00   1.094664340400831e+00   3.774011700000000e+00  1.71497651e+00  -1.87531997e+00  -1.44706445e+00
C     1.164897621500000e+00   1.758621248360777e+00   3.647568900000000e+00 -1.70469470e+00   1.59265674e+00   8.94213810e-01
C     2.358731286400000e+00   1.099409724694882e+00   3.670291200000000e+00  3.81954255e+00  -1.77978403e+00  -1.54905563e+00
C     3.661729891999999e+00   1.752900538289701e+00   3.475859400000000e+00 -6.35618250e-01   3.54553570e-01   1.80338976e+00
C     4.923452762799999e+00   1.010163402762114e+00   3.573295500000000e+00 -6.35663160e-01   3.64606513e+00  -1.48839116e+00
C     6.152465379399999e+00   1.849039549481925e+00   3.550053000000000e+00  3.85007950e-01  -5.97149197e+00   2.72929566e+00
C     7.341534642999999e+00   1.108950019543766e+00   3.993519600000000e+00  1.07682397e+00   7.94590980e-01  -3.05104312e+00
C     8.682525504799999e+00   1.913645019652766e+00   3.858213900000000e+00 -5.86780280e+00  -9.84595750e-01  -8.61163130e-01
C     1.101838297160000e+01   3.186845125922058e+00   3.692784300000000e+00 -8.44458910e-01   2.23516940e-01  -1.15371857e+00
C     2.374842723600000e+00   3.845738059106944e+00   3.727002000000000e+00  1.26597975e+00   2.20724337e+00  -2.25838700e-02
C     3.625743850000000e+00   3.200122091756991e+00   3.592402200000000e+00  2.00331880e+00  -1.36100646e+00  -6.08052710e-01
C     4.892834258300000e+00   3.902341707947082e+00   3.502545300000000e+00 -1.24450124e+00   1.53797382e+00   5.38002610e-01
C     6.160908201600000e+00   3.184873980742855e+00   3.545545200000000e+00 -2.69160596e+00   4.99918463e+00  -5.18597510e-01
C     7.297620717299999e+00   4.022182962869271e+00   3.580179300000000e+00  2.10800085e+00   2.38089450e-01  -5.72043600e-02
C     8.544881038699998e+00   3.388760360924338e+00   3.512132700000000e+00  2.39720086e+00  -4.17720266e+00   1.84041406e+00
C     9.840922132499999e+00   3.991783744000052e+00   3.475041300000000e+00 -1.92076331e+00   9.34433720e-01   1.24256633e+00
C     1.223749373250000e+01   5.277900811422438e+00   3.804693600000000e+00  1.08983875e+00   1.74658084e+00  -5.41765840e-01
C     3.600566635799999e+00   6.096111784269707e+00   3.703052400000000e+00  3.03039020e-01  -5.59785160e+00  -1.02150536e+00
C     4.845832525700000e+00   5.406806225969148e+00   3.514323900000000e+00 -1.53364400e-02  -3.74906957e+00   7.42994970e-01
C     6.064815648900000e+00   6.064167943794761e+00   3.542838900000000e+00  1.11844643e+00   2.50620093e+00  -1.79227730e-01
C     7.345667166199999e+00   5.468744706996771e+00   3.647768100000000e+00 -2.75733273e+00  -3.00925931e+00  -9.05330640e-01
C     8.544242455799999e+00   6.142902316876125e+00   3.648563700000000e+00  1.61208317e+00  -1.90010690e-01  -4.39634720e-01
C     9.762654537100000e+00   5.433094423632876e+00   3.581817900000000e+00  3.21888282e+00  -1.17461007e+00   3.28463850e-01
C     1.108516430790000e+01   6.083740892836807e+00   3.759745500000000e+00 -2.83806887e+00  -2.67319933e+00  -1.06738390e-01
C     1.349977029160000e+01   7.416126332374760e+00   3.586258200000000e+00 -2.71199251e+00   4.60640850e+00   2.09349742e+00
C     4.857960079200000e+00   8.111172923591338e+00   3.540086400000000e+00 -1.86346296e+00   4.86205439e+00   1.13646145e+00
C     6.064010136199999e+00   7.505479562718737e+00   3.502991400000000e+00  3.05026124e+00  -1.59803102e+00   6.37557980e-01
C     7.348321527500000e+00   8.213751629537054e+00   3.610882800000000e+00 -1.11065655e+00   4.76175640e-01  -1.70131850e-01
C     8.615825069800000e+00   7.550110238014343e+00   3.611340300000000e+00 -2.74418089e+00  -1.04495922e+00   3.74509000e-03
C     9.846735046199999e+00   8.157779355131806e+00   3.577659000000000e+00  8.71728140e-01   1.14963498e+00   1.73469505e+00
C     1.106848572350000e+01   7.458794486891748e+00   3.865145700000000e+00 -2.43669994e+00   1.76482450e-01  -1.34864244e+00
C     1.219797021830000e+01   8.165518174939725e+00   3.889448700000000e+00  5.98770840e+00   3.13454559e+00  -2.55446580e-01
