32
Lattice="9.86 0 0 4.93 8.53901048131456 0 0 0 30 " PBC="1 1 1" Properties=species:S:1:pos:R:3:force:R:3 Energy="-251.46463324"
C     5.101484134000000e+00   7.747698329455885e+00  -8.136380999999986e-01 -1.59423340e-01   8.32991830e-01   6.62234100e-02
C     1.378209009400000e+00   1.277282265619360e-02  -7.872440999999988e-01 -3.86422430e-01  -2.94328150e+00   5.41242010e-01
C     7.445356252500000e+00   7.783061702067652e+00  -7.868057999999998e-01  5.22827850e+00   6.66683590e-01  -3.96497850e-01
C     8.778572504300000e+00   8.364798527478193e+00  -8.569466999999982e-01  1.59118076e+00   4.38202081e+00   1.01167101e+00
C     1.010015400540000e+01   7.669617617626765e+00  -7.497633000000015e-01 -2.31224248e+00   8.35942346e+00  -1.55717776e+00
C     1.132749096430000e+01   8.399712321188188e+00  -9.526460999999991e-01  7.77845010e-01   1.31688586e+00   2.39133728e+00
C     1.254037005730000e+01   7.721915214262048e+00  -8.209173000000014e-01  3.78702750e-01  -1.67636282e+00  -1.93198700e-02
C     1.374266192600000e+01   8.451811471219917e+00  -7.634904000000020e-01 -3.84223700e-01  -1.44745697e+00  -4.66971000e-03
C     1.487967177000000e+00   1.377383036113885e+00  -7.665846000000016e-01 -3.00794854e+00   3.30895051e+00  -3.48827320e+00
C     2.674975207600000e+00   2.136425582933242e+00  -1.042456200000000e+00  2.55768309e+00  -1.33423669e+00   5.10812800e-01
C     4.010206646200000e+00   1.369216497271023e+00  -9.481377000000002e-01 -3.88689298e+00  -3.19087226e+00   1.78571540e-01
C     5.279181990700000e+00   1.954251857039883e+00  -9.219045000000001e-01 -1.38028172e+00   3.65015724e+00  -4.00554130e-01
C     6.537999267399999e+00   1.278477897866770e+00  -8.059638000000007e-01 -2.85877433e+00   2.32760433e+00  -2.96652010e-01
C     7.700651618999999e+00   2.180398071301049e+00  -6.556223999999986e-01 -2.66754044e+00  -5.08544276e+00  -1.51294472e+00
C     8.817825410799999e+00   1.293661283181467e+00  -7.715715000000003e-01  1.88522187e+00   4.29324020e+00  -6.03722860e-01
C     9.992195435699999e+00   2.016561016512442e+00  -1.085476799999999e+00  3.45268467e+00   2.89290391e+00   2.78504529e+00
C     2.705476427400000e+00   3.582031726397925e+00  -1.247243400000002e+00 -7.08286917e+00  -5.16797436e+00   4.15303220e-01
C     3.841856365300000e+00   4.172732207279636e+00  -1.110155700000000e+00  6.66300483e+00  -1.13449790e-01   4.32153210e-01
C     5.115003130700000e+00   3.442158892180809e+00  -1.024668600000002e+00  2.37993225e+00   8.94635290e-01  -2.68197680e-01
C     6.367707207400000e+00   4.299917779725568e+00  -1.061558399999999e+00 -1.03903360e+00  -6.24144928e+00   1.66871972e+00
C     7.577326288599999e+00   3.539697703361019e+00  -8.276772000000001e-01  2.30312643e+00   3.07890872e+00  -2.95407230e-01
C     8.867384876699999e+00   4.367791897718049e+00  -8.598126000000015e-01 -2.31776113e+00  -4.36890296e+00  -1.09861254e+00
C     1.004735661410000e+01   3.606326321284887e+00  -1.096020899999999e+00 -6.37349470e-01  -3.60991856e+00   1.63470060e-01
C     1.127481642860000e+01   4.267015947664871e+00  -1.242546900000001e+00  4.73513010e-01  -1.70299920e-01   4.14039010e-01
C     3.849167653899999e+00   5.520451062546420e+00  -9.179150999999983e-01  2.47715067e+00   4.90742660e+00  -1.33822630e-01
C     5.102501488800000e+00   6.331913996971764e+00  -9.158426999999989e-01  4.71446870e-01  -1.32928042e+00   3.89584810e-01
C     6.405409333100000e+00   5.641702961999905e+00  -9.487275000000004e-01 -3.21807268e+00   2.73676444e+00  -2.85303800e-01
C     7.563716629199999e+00   6.409460166744835e+00  -8.670372000000022e-01 -3.04103900e-01  -1.61188712e+00  -2.12783200e-02
C     8.800927047000000e+00   5.725282028067202e+00  -9.258279000000016e-01  1.03414401e+00   1.34054456e+00   3.46094880e-01
C     1.007526016760000e+01   6.404758416794338e+00  -9.326366999999998e-01 -1.58524894e+00  -6.42114364e+00  -4.75038190e-01
C     1.123642844130000e+01   5.674076912432729e+00  -1.090280999999997e+00  3.06355139e+00  -1.15244376e+00   8.14518650e-01
C     1.253365855250000e+01   6.281451604468841e+00  -8.447378999999984e-01 -1.50927723e+00   8.75261450e-01  -1.27131442e+00
