32
Lattice="9.86 0 0 4.93 8.53901048131456 0 0 0 30 " PBC="1 1 1" Properties=species:S:1:pos:R:3:force:R:3 Energy="-254.1138816"
C     9.776306495900000e+00   2.310838116811224e-01   4.214807100000001e+00  2.94501138e+00  -3.39460888e+00   1.64478500e-02
C     1.237299650800000e+00   9.160764865684432e-01   4.318398300000000e+00 -1.44465883e+00   1.11399824e+00  -6.99953850e-01
C     2.507570944400000e+00   2.121559848808400e-01   4.170584700000000e+00 -5.19210260e+00  -2.18573535e+00   7.72434270e-01
C     3.695606929300000e+00   8.546330973684504e-01   4.104109500000000e+00 -4.34122370e-01   2.90497742e+00   6.98031500e-02
C     4.893736399000000e+00   2.203271347893616e-01   4.031752200000001e+00  2.31145038e+00  -3.59655650e+00   9.29863840e-01
C     6.129780526700000e+00   9.309619458074936e-01   4.112445900000000e+00 -2.71698032e+00   7.41333000e-01   7.71870310e-01
C     7.307461786100000e+00   1.772820683497864e-01   4.132664100000000e+00 -2.80884590e-01  -6.51587800e-02   2.08361780e-01
C     8.507898791599999e+00   8.440456636644033e-01   4.265784600000000e+00  3.22786191e+00   1.21381397e+00  -4.46758210e-01
C     1.109192506340000e+01   2.380346003678843e+00   4.355533800000000e+00 -2.39433821e+00  -2.72205871e+00  -5.28524620e-01
C     2.474393572700000e+00   3.005101424596472e+00   4.235650499999999e+00 -2.92465494e+00   1.30172389e+00  -1.36293470e-01
C     3.615329520800000e+00   2.267024795598763e+00   4.163561400000001e+00  3.34707426e+00   2.61647185e+00   1.66575210e-01
C     4.811579773100000e+00   3.147835937395750e+00   4.211430600000000e+00  1.38937791e+00  -3.29824907e+00  -3.43580200e-02
C     6.043862113599999e+00   2.421831249074037e+00   4.299046800000000e+00 -2.38404800e-01  -4.22971106e+00  -1.79315803e+00
C     7.291517574499999e+00   2.932315070045161e+00   4.155534900000000e+00  2.51433695e+00   4.95438096e+00   3.93314950e-01
C     8.572137825500000e+00   2.234323203333822e+00   4.257393000000000e+00 -1.23170943e+00   3.03695986e+00  -6.52157800e-02
C     9.783976096899998e+00   3.057203734062078e+00   4.300482300000001e+00  1.49261786e+00  -2.58622103e+00   4.22402250e-01
C     1.224511225870000e+01   4.420726589925246e+00   4.132632300000000e+00  3.53177304e+00   1.29183835e+00   6.13064990e-01
C     3.614960510300000e+00   5.223859292676825e+00   4.153845300000000e+00  9.51300770e-01  -2.87182466e+00  -1.39619630e-01
C     4.919521432900000e+00   4.535964635077876e+00   4.178350500000000e+00 -2.81899577e+00   6.84453600e-01  -2.79055050e-01
C     6.160775387400000e+00   5.242936039819878e+00   4.114128900000001e+00 -2.29138570e-01  -3.85869616e+00   2.43528120e-01
C     7.332355032300000e+00   4.436550571806153e+00   4.035597000000000e+00  1.58691881e+00  -1.35416759e+00   1.19600957e+00
C     8.619063981200000e+00   5.098921017009020e+00   4.113033000000000e+00 -3.24111944e+00   2.21589247e+00   2.07682490e-01
C     9.830846494299999e+00   4.456421019973322e+00   4.299700200000000e+00 -6.27551300e-01  -6.70143070e-01  -1.49165103e+00
C     1.106183470980000e+01   5.142077175974940e+00   4.152107999999999e+00 -4.98990730e-01  -9.81796860e-01   1.19957476e+00
C     1.351665312590000e+01   6.596354940752377e+00   4.141107000000000e+00  2.76791470e-01   1.45846314e+00  -8.22957610e-01
C     4.920874767200000e+00   7.262929823935385e+00   4.057570200000000e+00 -1.68579169e+00   3.39176367e+00   1.99635011e+00
C     6.157753691800000e+00   6.610756750437839e+00   4.216152300000000e+00 -3.94603304e+00   1.80273280e-01  -1.21025918e+00
C     7.273422650400000e+00   7.316932404793211e+00   4.199341200000000e+00  6.36322081e+00   1.34919889e+00  -7.20083780e-01
C     8.502274056000001e+00   6.544976653985369e+00   4.113576600000000e+00  2.80848233e+00   1.10073597e+00   5.09861620e-01
C     9.790615771599999e+00   7.274428284667544e+00   4.145533500000000e+00  5.45673370e-01  -3.52173800e-02  -4.31919540e-01
C     1.109146193920000e+01   6.520681119807255e+00   4.216566900000000e+00 -2.01650008e+00   3.70189638e+00  -1.27573403e+00
C     1.229404630480000e+01   7.313456856747641e+00   4.122019800000000e+00 -1.36991454e+00  -1.40802985e+00   3.58396550e-01
