32
Lattice="9.86 0 0 4.93 8.53901048131456 0 0 0 30 " PBC="1 1 1" Properties=species:S:1:pos:R:3:force:R:3 Energy="-246.37173424"
C     9.824017409000000e+00   3.243461156327392e-01   4.279851600000000e+00  9.66769480e-01  -7.01743850e-01   5.71231830e-01
C     1.210131160300000e+00   1.033396257085993e+00   4.032527099999999e+00 -6.88070970e-01  -2.27214617e+00   1.62937387e+00
C     2.440850641500000e+00   4.311564136119240e-01   4.515688200000000e+00 -4.82719782e+00  -6.08259603e+00   6.88765270e-01
C     3.633331218600000e+00   9.194048220733375e-01   4.491939300000000e+00  1.61206947e+00   6.99811860e+00   5.41994510e-01
C     4.803287118700000e+00   2.520692838367704e-01   4.807792500000001e+00  3.90805259e+00   2.70379581e+00  -1.49817183e+00
C     6.028872744400000e+00   1.055287462083254e+00   4.530096300000000e+00 -5.45128130e-01  -1.08346262e+00   1.32765362e+00
C     7.207422324700000e+00   2.798246542811720e-01   4.331902800000000e+00  3.10752065e+00   5.18000520e+00  -3.29699100e-02
C     8.620086216699999e+00   9.952238061966200e-01   4.156893900000000e+00 -4.85029038e+00   1.03020445e+00  -7.31265400e-01
C     1.094856150150000e+01   2.326540247012582e+00   3.639332700000000e+00  2.12267474e+00   4.89810481e+00   4.29533730e-01
C     2.401434108300000e+00   3.095658996978548e+00   3.687069900000000e+00  5.44854290e-01   3.22194547e+00   1.42078878e+00
C     3.518679927400000e+00   2.573077959860408e+00   4.342031100000000e+00  2.87515451e+00  -3.78889581e+00  -3.23339700e-02
C     4.752881664799999e+00   3.264125390908783e+00   4.803713399999999e+00  4.87321420e-01  -1.62638647e+00  -2.35860361e+00
C     6.065123625999999e+00   2.490743966911200e+00   4.704167100000000e+00 -4.89960381e+00  -3.11235210e+00  -5.16741120e-01
C     7.191610237100000e+00   3.076411042675371e+00   4.365992400000001e+00  6.01423477e+00   4.23829996e+00  -1.40398539e+00
C     8.503574195599999e+00   2.424711969649570e+00   3.914776800000000e+00 -1.61438382e+00  -1.21659841e+00   2.67477876e+00
C     9.720838178499999e+00   3.147359802171385e+00   3.859187700000000e+00  1.15294070e-01  -8.47157850e-01  -7.76676210e-01
C     1.244320143350000e+01   4.686288449611569e+00   3.641234700000000e+00 -4.56612069e+00  -7.12429140e-01   3.21591118e+00
C     3.577134838800000e+00   5.394969364251667e+00   4.410132900000000e+00  2.00002871e+00  -2.17544827e+00  -7.35876430e-01
C     4.863029598199999e+00   4.641202218106854e+00   4.750392900000000e+00 -1.46234193e+00   1.83113295e+00   8.13906440e-01
C     6.156473025700000e+00   5.291899323642932e+00   5.068191900000000e+00 -2.21307100e+00   9.61186380e-01  -2.05183581e+00
C     7.277335443499999e+00   4.561059249856710e+00   4.554660300000000e+00  8.85063150e-01   8.94880950e-01   3.47796150e+00
C     8.557902499799999e+00   5.299836760834616e+00   4.785760199999999e+00  3.96999570e-01  -3.72182590e+00  -3.27702090e+00
C     9.724439987200000e+00   4.511176656165380e+00   4.194255300000000e+00  1.62541037e+00   4.40576301e+00  -2.55180430e-01
C     1.095806664010000e+01   5.434737841589857e+00   3.912100800000000e+00  1.02763928e+00  -8.81324507e+00  -3.97362710e-01
C     1.339782080030000e+01   6.807286602310594e+00   4.649250900000000e+00  3.35504641e+00   4.84228670e-01  -1.16475792e+00
C     4.873672482200000e+00   7.532982178452931e+00   4.752274500000000e+00 -4.91784720e-01  -2.36280017e+00   9.55387850e-01
C     6.145616968499999e+00   6.816089980555055e+00   5.200068600000000e+00 -2.56073666e+00  -2.21985647e+00  -2.35140259e+00
C     7.351752068000000e+00   7.440097896495264e+00   5.066221500000000e+00  1.24682696e+00   2.79921655e+00  -1.81353293e+00
C     8.609150835800000e+00   6.693462702683557e+00   4.997490900000000e+00 -2.09834820e-01   1.23585929e+00  -4.45228500e-01
C     9.872990500699999e+00   7.431606960644267e+00   4.810042200000000e+00 -3.08645919e+00  -3.96825987e+00   5.74114870e-01
C     1.100075353810000e+01   6.592360220869623e+00   4.476034200000000e+00  9.38412600e-01   8.56749305e+00   4.48391080e-01
C     1.222053418740000e+01   7.493790169712246e+00   4.375727700000001e+00 -1.21434907e+00  -4.74503094e+00   1.07315237e+00
