64
Lattice="9.86 0 0 4.93 8.53901048131456 0 0 0 30 " PBC="1 1 1" Properties=species:S:1:pos:R:3:force:R:3 Energy="-514.98020488"
C     4.959404639900000e+00   8.149105172115908e+00  -6.891209999999859e-02  2.67749220e-01   1.98343706e+00   1.39287360e-01
C     1.256274530600000e+00   3.690712323842544e-01  -8.515200000001499e-03  3.70221650e-01  -1.59272198e+00  -1.22896637e+00
C     9.844637873500000e+00   3.793422103599128e-01   3.310177500000000e+00 -1.26284215e+00  -2.13846950e-01   6.32748420e-01
C     1.201402546000000e+00   1.080879901173072e+00   3.385011000000000e+00  6.47269990e-01  -4.19994790e-01  -3.27789200e-02
C     7.434521049200000e+00   8.223123449709169e+00  -1.581027000000006e-01 -6.87265800e-01  -2.52135580e+00   7.89979600e-01
C     3.731915886300000e+00   3.340185089737496e-01  -7.515360000000015e-02  1.47205027e+00   1.45948598e+00   5.56122610e-01
C     2.424451095100000e+00   3.846867770193448e-01   3.274656600000000e+00  1.08626345e+00  -9.03355950e-01   1.07977410e-01
C     3.652479979500000e+00   1.116083423508654e+00   3.294982800000000e+00 -3.28341740e-01  -1.49068800e-02   9.81700100e-02
C     9.947729497899999e+00   8.178100236101795e+00   4.370100000000000e-03 -3.03172756e+00  -5.94128780e-01  -6.18799730e-01
C     6.207302952599999e+00   3.635331717473456e-01  -2.447340000000153e-02  1.19704407e+00  -1.84838757e+00   6.36976200e-02
C     4.862993116200000e+00   3.603716885072304e-01   3.250292700000000e+00  8.88289220e-01   1.00812971e+00   1.02584267e+00
C     6.115850367999999e+00   1.055033682691789e+00   3.337092600000000e+00 -2.44844330e-01   1.38071521e+00  -6.88342200e-02
C     1.238045510500000e+01   8.167304108981618e+00  -4.817579999999921e-02 -3.71232740e-01  -5.51117900e-02   5.43653540e-01
C     8.671069811699999e+00   3.309955284836200e-01  -5.471040000000116e-02 -1.69779760e-01   1.02376068e+00  -1.16058580e-01
C     7.344814867799998e+00   3.724767605438880e-01   3.384696300000000e+00  1.31668192e+00  -1.16426050e+00   7.19417230e-01
C     8.612575558900000e+00   1.075142113081036e+00   3.408558300000000e+00 -1.51017642e+00   8.35395350e-01  -4.37252080e-01
C     1.253361738700000e+00   1.760578901903422e+00   5.163540000000000e-02 -6.38057290e-01   7.62281210e-01   6.60083800e-01
C     2.468926153400000e+00   2.464227777667656e+00   1.965780000000000e-01  1.87730161e+00  -2.38267100e-02  -7.69237280e-01
C     1.108149426800000e+01   2.466792896415848e+00   3.595104300000000e+00 -8.14524530e-01   1.26373891e+00   3.75068500e-02
C     2.425618519100000e+00   3.237151254533196e+00   3.659407500000000e+00  5.11778860e-01  -3.61058500e-02  -8.01740610e-01
C     3.731205769100000e+00   1.778187195414229e+00   6.965880000000001e-02 -2.15041400e-01  -1.17600757e+00  -4.85325700e-02
C     4.988853304700000e+00   2.448107065172569e+00   4.567110000000001e-02 -1.15306360e+00   1.60839559e+00   1.04224420e-01
C     3.649378319300000e+00   2.555881332044840e+00   3.429617400000000e+00  9.12566670e-01  -1.27050721e+00   2.96143580e-01
C     4.920420960700000e+00   3.239763167058818e+00   3.369873900000000e+00 -1.68646643e+00  -9.38501620e-01   2.80490740e-01
C     6.206455830700000e+00   1.753163454422380e+00  -2.003039999999956e-02 -8.18893360e-01   2.92291170e-01  -5.81258760e-01
C     7.395456123600000e+00   2.467636209090853e+00  -1.311414000000006e-01  2.23419682e+00  -9.41891870e-01   5.35869120e-01
C     6.141597292999999e+00   2.515040013429944e+00   3.345671100000000e+00 -1.11521972e+00  -1.14708577e+00  -6.65814300e-01
C     7.332634267500000e+00   3.231812665181100e+00   3.276965700000000e+00  1.68910310e+00   1.02322230e-01   8.65694820e-01
C     8.661085378499999e+00   1.785110966671833e+00  -6.060150000000064e-02 -9.24168980e-01  -1.78445374e+00  -1.94308110e-01
C     9.867810648299999e+00   2.464672574723559e+00   3.506070000000000e-02  8.01638020e-01   1.23840980e+00   8.19087000e-02
C     8.578810974900000e+00   2.519189033232071e+00   3.420181800000000e+00  2.87946790e-01  -1.20470842e+00  -1.25502300e-02
C     9.830324752399999e+00   3.156211255044848e+00   3.590706000000000e+00 -1.93292310e-01   2.25252962e+00  -5.10178090e-01
C     2.539862395100000e+00   3.875492326514609e+00   2.753637000000000e-01 -1.79111946e+00   1.00322038e+00  -7.19630500e-02
C     3.746945089900000e+00   4.611805393677883e+00   1.902348000000000e-01  7.48673240e-01  -5.16742590e-01   7.92842300e-02
C     1.230366355160000e+01   4.672256208299681e+00   3.677867400000000e+00 -8.90288420e-01  -1.55406100e-01  -7.74709700e-02
C     3.665481819200000e+00   5.381581391280494e+00   3.524633100000000e+00 -6.40647600e-02  -1.99253483e+00  -9.82642100e-02
C     5.004073299300000e+00   3.905492944374621e+00   4.248030000000001e-02 -1.77065731e+00  -1.42942917e+00   2.67029700e-02
C     6.200721254699999e+00   4.565923241006327e+00  -1.420487999999978e-01  9.25691620e-01   2.49585927e+00   1.81193820e-01
C     4.856921969100000e+00   4.629840296152271e+00   3.366604500000000e+00  2.08210682e+00   1.71454262e+00  -4.61598370e-01
C     6.110990521900000e+00   5.358065554149308e+00   3.158853900000000e+00 -6.13510960e-01  -2.14056940e-01   9.89293820e-01
C     7.440829772999999e+00   3.842137841508366e+00  -1.570542000000010e-01 -5.42555550e-01   2.40137272e+00   1.78801660e-01
C     8.671442716900000e+00   4.584357598390970e+00  -3.497490000000170e-02 -1.47582469e+00   4.95809380e-01  -2.37188340e-01
C     7.340868304199999e+00   4.658440089343040e+00   3.228040500000000e+00  6.88209100e-01  -2.37303920e-01  -3.32735950e-01
C     8.614416223700001e+00   5.345140053985732e+00   3.273860100000000e+00 -1.90942210e-01  -1.19271618e+00   6.98718510e-01
C     9.870859902599999e+00   3.907260434153877e+00   1.017957000000000e-01  2.14723262e+00  -9.25734590e-01   3.15363380e-01
C     1.114074049370000e+01   4.604953520888521e+00   2.717547000000000e-01 -6.19534930e-01   3.39123250e-01  -7.40823200e-01
C     9.818336619300000e+00   4.615404757375412e+00   3.552835500000000e+00  6.83013660e-01   1.62582090e-01  -4.27459810e-01
C     1.105995485150000e+01   5.385660732757104e+00   3.624879000000000e+00 -7.84664410e-01  -2.19732086e+00   1.17906250e-01
C     3.717293259800000e+00   6.037198418484834e+00   1.772382000000000e-01  1.60526084e+00  -4.62202990e-01  -1.46838281e+00
C     4.930657316900000e+00   6.767216270951937e+00  -9.152220000000000e-02  1.01040809e+00  -2.12345634e+00   7.70297790e-01
C     1.353446378620000e+01   6.763212414327969e+00   3.435273300000000e+00 -5.30069860e-01   1.72401078e+00   3.41885100e-01
C     4.867925433300000e+00   7.503162160664570e+00   3.268251300000000e+00  2.02893343e+00  -7.53554440e-01  -2.68512300e-02
C     6.174721617900000e+00   6.051012915029482e+00  -1.702563000000019e-01  2.27186690e-01  -1.35077342e+00   8.78156400e-02
C     7.418688452800000e+00   6.740086212244986e+00  -1.753527000000012e-01 -6.09453650e-01   1.15824832e+00   1.13895110e-01
C     6.126864678200000e+00   6.773281786266195e+00   3.167662800000000e+00  2.57983680e-01   9.74005470e-01   2.34027490e-01
C     7.408205892399999e+00   7.478333365281979e+00   3.197987700000000e+00 -1.45420285e+00   1.25934070e-01  -3.97262060e-01
C     8.623411600299999e+00   6.010259975173054e+00  -3.131010000000245e-02  1.02190565e+00   7.73816760e-01  -4.28885000e-01
C     9.865586823899999e+00   6.743868737717311e+00   4.304220000000000e-02  9.45199000e-01  -6.01084900e-02   1.45278040e-01
C     8.657557470499999e+00   6.751467432363254e+00   3.215083200000000e+00 -2.63491902e+00   5.47666150e-01   4.49311050e-01
C     9.813103522900001e+00   7.488922336007913e+00   3.364780500000000e+00  1.54519216e+00   2.25573100e-02  -4.60091630e-01
C     1.110788874850000e+01   6.047826497878765e+00   1.791741000000000e-01  9.85004810e-01  -9.03399090e-01  -9.82728900e-02
C     1.239685391190000e+01   6.741856263727384e+00   1.069710000000000e-01 -3.10232160e+00   7.86821770e-01   2.34032170e-01
C     1.104472238400000e+01   6.770856536509665e+00   3.522124800000000e+00  7.56068900e-01   1.43220817e+00   2.28802800e-01
C     1.230463313470000e+01   7.467820562529527e+00   3.549573900000000e+00 -9.67439900e-01   1.02832813e+00  -1.25892105e+00
