64
Lattice="9.86 0 0 4.93 8.53901048131456 0 0 0 30 " PBC="1 1 1" Properties=species:S:1:pos:R:3:force:R:3 Energy="-513.2769509"
C     4.961851448200000e+00   8.478185058988444e+00  -3.289799999999943e-02 -3.68514200e-02  -1.16303468e+00   2.05224830e-01
C     1.260703396100000e+00   6.457653146432488e-01   1.960680000000000e-02  1.24117270e-01   1.14571060e+00  -1.09496974e+00
C     1.181472084300000e+00   8.093597761441192e-01   3.428358300000000e+00  2.31724746e+00  -1.65260431e+00   1.00389041e+00
C     2.463575279300000e+00   1.498090915209689e+00   3.462868200000000e+00 -1.01430031e+00  -2.87072381e+00   3.12779050e-01
C     7.435910618999999e+00   8.515751410913946e+00  -1.005420000000008e-01 -1.16359139e+00  -1.20670548e+00   1.33753452e+00
C     3.729929835800000e+00   6.804291715164944e-01  -7.784670000000204e-02 -2.47807460e-01  -6.92794130e-01  -1.35864974e+00
C     3.699187391100000e+00   7.665151202805096e-01   3.604044900000000e+00 -8.07908000e-01   8.95226350e-01  -1.13065300e-01
C     4.900599156200000e+00   1.510144667793362e+00   3.578392800000000e+00  1.00390906e+00  -1.33756229e+00  -1.29012530e-01
C     9.866118918799998e+00   8.476519610384425e+00  -1.730142000000008e-01  4.61034320e-01  -1.41899496e+00   1.38855150e-01
C     6.162137694299999e+00   5.639511766520632e-01  -1.785312000000019e-01  2.41051433e+00   3.37095574e+00   9.84398160e-01
C     6.127119756399999e+00   7.845301268604800e-01   3.543787200000000e+00  9.36083470e-01   9.81635900e-01   1.13216855e+00
C     7.390583706000000e+00   1.528368282399359e+00   3.624576000000000e+00 -1.14273570e+00  -1.26165565e+00  -7.12502200e-01
C     1.237858998740000e+01   8.413462433593818e+00  -1.833237000000025e-01 -1.44373454e+00   3.50954745e+00  -2.55121970e-01
C     8.671657763500001e+00   6.552108264758055e-01  -8.044139999999800e-02 -4.49146260e-01  -9.18569760e-01  -3.61349690e-01
C     8.625482249599999e+00   7.559995850447040e-01   3.617799600000000e+00 -2.53509465e+00  -6.56234220e-01   4.52995900e-02
C     9.801905175799998e+00   1.467670775764794e+00   3.472065300000000e+00  1.70352576e+00  -4.68499140e-01   5.91677750e-01
C     1.264166573200000e+00   2.079133262897891e+00  -1.132236000000013e-01 -1.54978195e+00  -1.70654710e-01  -1.01971450e-01
C     2.471013909800000e+00   2.752413233280111e+00  -2.987016000000011e-01  5.20339140e-01   2.60807544e+00  -1.30849330e-01
C     2.444451217700000e+00   2.852042735786244e+00   3.478636800000000e+00  1.18805865e+00   3.54746143e+00  -2.34151930e-01
C     3.695727467799999e+00   3.609281416641701e+00   3.487663500000000e+00 -1.93865948e+00   1.54209152e+00   2.96757730e-01
C     3.723132203900000e+00   2.082814344925714e+00  -2.754914999999976e-01 -6.37141720e-01  -5.64327670e-01   1.25869621e+00
C     4.945966445900000e+00   2.759807930965686e+00  -1.742795999999984e-01  1.35855859e+00   4.60174060e-01   9.33852000e-02
C     4.904314157699999e+00   2.898935907298631e+00   3.558028500000000e+00  7.31267250e-01   3.20873560e+00  -3.49359370e-01
C     6.126068433900000e+00   3.736217820761826e+00   3.564851700000000e+00  6.18942950e-01  -5.39294531e+00   2.33821800e-01
C     6.181552576600000e+00   2.048071075255005e+00  -1.139639999999886e-02  1.40359560e-01  -8.81740890e-01  -1.21298969e+00
C     7.410474629100000e+00   2.807454926323247e+00   1.020840000000000e-02  1.95471550e-01  -2.09563918e+00  -8.37698910e-01
C     7.362507405300000e+00   2.982411053608386e+00   3.575979600000000e+00 -6.17750890e-01  -2.46991093e+00  -8.31849400e-02
C     8.609657491900000e+00   3.574834792195066e+00   3.540149400000000e+00  7.25414050e-01   1.65761686e+00   9.43383560e-01
C     8.680810061999999e+00   2.076401121104710e+00  -1.314852000000002e-01 -2.71860071e+00   3.05291040e-01   1.64050982e+00
C     9.846010286900000e+00   2.821302127278035e+00  -1.179866999999994e-01  2.79396147e+00  -1.79558866e+00  -8.69983860e-01
C     9.864305714099999e+00   2.849906446144358e+00   3.562234800000000e+00 -1.58640657e+00   2.35533867e+00  -9.44656080e-01
C     1.107853424670000e+01   3.573387942259335e+00   3.504795300000000e+00  4.20470750e-01   8.01457010e-01  -2.08296030e-01
C     2.473770913700000e+00   4.246509770167465e+00  -4.102983000000009e-01  1.35938269e+00  -2.61591580e+00   5.04550550e-01
C     3.735187089199999e+00   4.915969814211456e+00  -2.891769000000011e-01 -5.18826190e-01  -2.90950650e-01  -7.49393660e-01
C     3.643685697600000e+00   5.117145485516064e+00   3.502384800000000e+00  9.42632220e-01  -2.92041249e+00   1.94405620e-01
C     4.926489001900000e+00   5.743032154542083e+00   3.551572800000000e+00 -1.25078090e+00   2.06400453e+00   5.00592320e-01
C     4.999117318200000e+00   4.173983599265480e+00  -2.169732000000018e-01 -1.66667073e+00   1.16975052e+00  -3.22401640e-01
C     6.218407876199999e+00   4.901949612904344e+00  -2.181372000000010e-01 -1.83215112e+00   7.85799890e-01   1.94767983e+00
C     6.174177493800000e+00   5.082524750645742e+00   3.625769400000000e+00 -1.77407659e+00   8.31442070e-01  -1.08872669e+00
C     7.396375470000000e+00   5.754527968180992e+00   3.574572000000000e+00 -5.04980900e-02   8.56600530e-01   1.30443991e+00
C     7.401648893800001e+00   4.215032501225146e+00  -2.946120000000008e-02  2.15555337e+00  -2.79766050e-01  -5.24431740e-01
C     8.663484069999999e+00   4.920169128785311e+00  -8.888160000000056e-02 -1.05679423e+00   1.44896414e+00  -7.33624670e-01
C     8.570832755900000e+00   4.996479447571612e+00   3.641658300000000e+00  2.97577463e+00   7.88897930e-01  -1.24637656e+00
C     9.852597752900000e+00   5.701925358091363e+00   3.564264600000000e+00 -1.13751076e+00   1.01627989e+00   9.96598140e-01
C     9.860497239799999e+00   4.198765515480535e+00  -2.989281000000013e-01  5.72926380e-01   1.83723895e+00   9.89086660e-01
C     1.111958980770000e+01   4.942943267466204e+00  -4.345815000000002e-01 -1.35594020e+00  -3.10420473e+00   4.95095620e-01
C     1.109354111740000e+01   5.034365243879171e+00   3.487051800000000e+00 -1.99374895e+00  -1.55936794e+00   3.57113870e-01
C     1.223469423200000e+01   5.816310783047565e+00   3.528710100000000e+00  2.93789812e+00  -1.69905936e+00  -4.18249240e-01
C     3.666012188599999e+00   6.344036317809590e+00  -2.957394000000022e-01  2.96319226e+00  -6.69983470e-01   5.01607640e-01
C     4.943523877400000e+00   7.013940134228227e+00  -7.722030000000046e-02 -1.59759899e+00   1.73686607e+00  -4.34938320e-01
C     4.905561201200000e+00   7.176124975879059e+00   3.610559700000000e+00  1.46577121e+00  -5.24899970e-01   3.51369700e-02
C     6.175528905399999e+00   7.931922527935806e+00   3.597576000000000e+00 -1.65127223e+00  -1.16323421e+00  -4.54803900e-01
C     6.153496193100001e+00   6.327099446692825e+00  -3.178169999999980e-02  1.21139802e+00  -8.63461100e-02  -1.05742687e+00
C     7.379227056600000e+00   7.076431345404220e+00  -4.667880000000224e-02  9.92484340e-01   3.59093870e-01  -4.87598600e-02
C     7.391671017499999e+00   7.175683935987767e+00   3.663519000000000e+00  7.86796710e-01   1.39111537e+00  -2.32000410e-01
C     8.646635351299999e+00   7.911060615261804e+00   3.741355500000000e+00 -7.16741730e-01  -2.06871991e+00  -8.30728100e-01
C     8.629214752599999e+00   6.405042936623532e+00  -1.145063999999998e-01  4.83329080e-01  -2.98883159e+00  -2.25730600e-02
C     9.901566358299998e+00   7.033268782180441e+00  -2.162642999999989e-01 -2.29242960e+00   1.02801151e+00  -5.24902300e-02
C     9.877240407199999e+00   7.145899098922584e+00   3.710030400000000e+00 -1.66783588e+00   2.06297920e-01  -8.64786140e-01
C     1.105072594080000e+01   7.904148542448558e+00   3.599037000000000e+00  6.82055120e-01   5.34082040e-01  -5.11502000e-03
C     1.107930860180000e+01   6.287793954502860e+00  -3.763079999999981e-01  1.44620341e+00   4.26713688e+00  -6.18133300e-02
C     1.233569533920000e+01   7.070914632293512e+00  -3.856655999999994e-01 -6.35996850e-01  -3.09485203e+00   7.10084890e-01
C     1.227314976030000e+01   7.210890105416597e+00   3.564740400000000e+00 -2.74798720e-01  -9.01425580e-01   5.33135420e-01
C     1.352182933010000e+01   7.803420581634277e+00   3.682915800000000e+00  7.03224910e-01   4.32762070e+00  -1.18244174e+00
