64
Lattice="9.86 0 0 4.93 8.53901048131456 0 0 0 30 " PBC="1 1 1" Properties=species:S:1:pos:R:3:force:R:3 Energy="-515.79010444"
C     4.998920364699999e+00   6.771806672205775e+00  -1.171490999999989e-01  8.15113880e-01  -1.41818800e-02  -1.88488810e-01
C     6.237876939200000e+00   7.474227296702566e+00  -2.457510000000021e-01  5.90250300e-02   6.07329930e-01   7.80750440e-01
C     9.759709059300000e+00   1.771476045517578e+00   3.699409500000000e+00  1.61265641e+00   3.88225940e-01   2.70200000e-04
C     1.104309158930000e+01   2.498690284673784e+00   3.746879100000000e+00 -1.73676011e+00  -5.14045300e-02  -3.01214960e-01
C     7.475929992599999e+00   6.755135876655566e+00  -1.800002999999997e-01  8.40713200e-02   4.96883970e-01  -4.56522240e-01
C     8.721916254100000e+00   7.469863264616553e+00  -1.782672000000005e-01 -1.10106408e+00   1.87846090e-01  -1.48701700e-01
C     2.400624503700000e+00   1.776412276695857e+00   3.757481700000000e+00 -2.23134140e-01   2.60992240e-01  -3.17511280e-01
C     3.639934214100000e+00   2.495009288036065e+00   3.669151200000000e+00 -1.01562270e-01  -1.74982534e+00   2.00434350e-01
C     9.928306530399999e+00   6.728278126992822e+00  -1.472465999999990e-01  1.41041469e+00   2.01409101e+00   3.40519750e-01
C     1.118989052310000e+01   7.474152580360866e+00  -7.056539999999956e-02 -9.89735420e-01   1.18523840e-01  -2.50767310e-01
C     4.873600307000000e+00   1.762965469942477e+00   3.630114300000000e+00 -1.27249533e+00  -9.83714540e-01  -1.12996352e+00
C     6.076053090899999e+00   2.469769851639490e+00   3.485937600000000e+00 -3.09181130e-01   2.06220780e-01   4.99677960e-01
C     1.242569870100000e+01   6.803303068531569e+00  -1.260360000000205e-02 -1.45574123e+00  -2.32063796e+00  -2.44471910e-01
C     1.362609942170000e+01   7.492907492198929e+00  -7.910790000000034e-02  1.07314859e+00  -1.46880560e-01   4.57616400e-02
C     7.290982718800000e+00   1.756946833795753e+00   3.515921100000000e+00  1.00401050e+00   1.75916741e+00  -1.49843440e-01
C     8.529172037399999e+00   2.481603639313198e+00   3.584940000000000e+00  2.01628250e-01  -1.17361621e+00   1.14482200e-02
C     1.304872005600000e+00   3.842471033697296e-01  -2.773649999999996e-01  9.00649940e-01  -7.74547490e-01   1.51902460e-01
C     2.561830228600000e+00   1.107882643233767e+00  -2.772452999999970e-01 -8.21686250e-01  -1.29815351e+00   6.35895100e-02
C     1.101799424110000e+01   3.940459679949593e+00   3.652481100000000e+00 -2.41750190e-01  -1.49382825e+00  -4.65612800e-01
C     1.223817545290000e+01   4.628318302924316e+00   3.571568400000000e+00  5.40489310e-01   2.61939400e-02   3.77992310e-01
C     3.771044606100000e+00   3.712465453040344e-01  -2.160707999999971e-01  8.16144720e-01  -7.69041310e-01   2.58747080e-01
C     5.019618180899999e+00   1.054705357738833e+00  -1.500416999999992e-01 -3.61722780e-01   4.71595880e-01  -4.98690450e-01
C     3.634003029700000e+00   3.885787811450345e+00   3.589042800000000e+00 -2.55816081e+00   1.25181353e+00  -2.84626300e-02
C     4.790903205199999e+00   4.611514811151248e+00   3.507299400000000e+00  3.25512457e+00   1.41270118e+00   1.12459580e-01
C     6.250300982900000e+00   3.595351216505048e-01  -1.384514999999986e-01  6.51349210e-01  -1.98949300e-02   4.99768620e-01
C     7.503214781800000e+00   1.097947162979867e+00  -1.457522999999981e-01 -2.13880401e+00  -5.16046090e-01  -1.67637780e-01
C     6.037451782500000e+00   3.879074099850550e+00   3.480609900000000e+00  1.06900855e+00   1.85633530e+00   2.88422730e-01
C     7.305779275699999e+00   4.619459250331525e+00   3.529482300000000e+00 -8.55604270e-01  -1.12659561e+00  -3.36147260e-01
C     8.691974737199999e+00   3.598552491534000e-01  -1.481546999999992e-01  1.47367748e+00   1.21312058e+00  -1.63228970e-01
C     9.945427631599999e+00   1.084058803994566e+00  -2.397372000000004e-01 -3.89214060e-01  -4.25533150e-01  -7.75082900e-02
C     8.532480018099999e+00   3.875445020396549e+00   3.541083600000000e+00 -3.10301000e-03   1.72009881e+00  -1.02837600e-02
C     9.769674216199999e+00   4.610448288742296e+00   3.522215400000000e+00 -5.65522300e-02  -5.08901380e-01   5.04347030e-01
C     2.560239859899999e+00   2.508669826221759e+00  -2.644736999999999e-01 -1.48495580e-01   5.14439230e-01   8.45489300e-02
C     3.812467008400000e+00   3.216373194942107e+00  -2.212130999999999e-01 -1.44337038e+00  -3.07559190e-01   2.62490180e-01
C     1.221378417930000e+01   6.055503922201334e+00   3.534534000000000e+00  1.91059332e+00  -9.41154210e-01  -2.93892500e-01
C     1.347110110910000e+01   6.763159387072888e+00   3.562860000000000e+00 -3.42050160e-01   8.84797630e-01   7.59870400e-02
C     5.014612061699999e+00   2.474377672474708e+00  -1.825796999999980e-01  1.85112210e-01   8.82215460e-01   2.70551000e-03
C     6.224381606500000e+00   3.228039788790617e+00  -1.845096000000019e-01  3.93175130e-01  -1.24062206e+00  -2.28245480e-01
C     4.844553092100000e+00   6.090687377862287e+00   3.550468800000000e+00  7.46838300e-02  -2.29966839e+00   1.30058560e-01
C     6.103214630100000e+00   6.766085705964385e+00   3.625363200000000e+00 -8.11899510e-01  -3.94621270e-01  -7.09316600e-02
C     7.443992565199999e+00   2.523263934423232e+00  -2.176067999999987e-01  1.72386440e+00  -6.28977670e-01  -4.45693600e-02
C     8.696713748999999e+00   3.209820699860174e+00  -3.022695000000013e-01  5.07835650e-01   4.49308200e-02   4.18532560e-01
C     7.327139486700000e+00   6.040805552681900e+00   3.574340400000000e+00 -7.60909370e-01  -7.76030410e-01  -7.74333900e-02
C     8.544416534100000e+00   6.727636761915670e+00   3.549831300000000e+00  2.30862000e-02   1.35599221e+00  -2.62850500e-02
C     9.972784595999999e+00   2.503528402621646e+00  -2.828942999999988e-01 -3.11657350e+00  -6.21740200e-01  -3.22039800e-02
C     1.115085172650000e+01   3.194652940934655e+00  -2.567190000000004e-01  2.95733890e+00   1.21408429e+00   1.62641060e-01
C     9.774813198899999e+00   6.016163847018926e+00   3.475413000000000e+00 -2.31109240e-01   8.70352230e-01   1.51035080e-01
C     1.100688695110000e+01   6.740105425018565e+00   3.462451800000000e+00 -3.98576270e-01   2.63387660e-01   1.01939500e-02
C     3.782252813200000e+00   4.635130981655574e+00  -1.383131999999989e-01  6.83372320e-01   2.50725280e-01   5.36509750e-01
C     5.039334384800000e+00   5.344756567025075e+00  -9.016169999999946e-02 -1.11707916e+00   1.56213790e-01  -6.35753070e-01
C     1.350241499010000e+01   8.193107205459977e+00   3.615532800000000e+00 -1.48201994e+00  -1.34075320e-01  -5.16367960e-01
C     9.797166361200000e+00   3.372333610293648e-01   3.713034300000000e+00 -6.55735760e-01   9.83531870e-01  -9.59311900e-02
C     6.268941017100000e+00   4.624633207561567e+00  -1.994870999999989e-01 -1.23247388e+00   8.67200730e-01   5.38484660e-01
C     7.486160679299999e+00   5.331617847769814e+00  -1.980515999999994e-01  7.55866200e-02   5.00124100e-01  -3.29056160e-01
C     6.094790344700000e+00   8.177288517765568e+00   3.731907600000000e+00 -9.66021420e-01  -4.32459660e-01  -3.15127430e-01
C     2.350914820700000e+00   3.466475346934600e-01   3.710073000000000e+00  1.64170658e+00   9.63923110e-01   3.08420690e-01
C     8.707808664700000e+00   4.629400195552132e+00  -2.818062000000019e-01  5.77688520e-01  -2.19343430e-01   4.95994170e-01
C     9.946234771199999e+00   5.340361025990391e+00  -1.861248000000018e-01  1.97147800e-01  -1.22917140e+00  -1.48067210e-01
C     8.492995993199999e+00   8.179198438239629e+00   3.615925500000000e+00  2.27882534e+00  -1.14404499e+00  -5.37029110e-01
C     4.837620969800000e+00   3.135673227038352e-01   3.510427800000000e+00  1.00517760e-01   9.57541430e-01   6.95602150e-01
C     1.120120438010000e+01   4.619899521711875e+00  -1.537772999999980e-01 -1.95943606e+00   2.24265720e-01  -1.25566010e-01
C     1.239059394580000e+01   5.334766778664523e+00  -4.397520000000199e-02  1.82358096e+00   9.59406410e-01  -4.77723070e-01
C     1.103317469710000e+01   8.154886765331707e+00   3.429268500000000e+00 -1.36656689e+00   9.40188850e-01   3.61752450e-01
C     7.313888139700000e+00   3.890850505373832e-01   3.482423100000000e+00  5.83852450e-01  -3.07547191e+00   4.80177650e-01
