64
Lattice="9.86 0 0 4.93 8.53901048131456 0 0 0 30 " PBC="1 1 1" Properties=species:S:1:pos:R:3:force:R:3 Energy="-504.63439094"
C     4.889861862700000e+00   8.327696526942592e+00   1.043586000000000e-01  6.41736051e+00  -3.71700820e-01  -3.58825240e-01
C     1.332228822100000e+00   5.436874216621848e-01  -7.095869999999849e-02 -2.95203639e+00  -1.21814435e+00   1.01075896e+00
C     1.183494370300000e+00   8.508708093509624e-01   3.573502200000000e+00  1.45099150e-01   1.23206695e+00   5.10739760e-01
C     2.409523252300000e+00   1.630068153386473e+00   3.297715800000000e+00 -1.10973731e+00  -1.34827409e+00   2.58529350e-01
C     7.378226956799999e+00   8.328331573151990e+00   2.451153000000000e-01  3.59670232e+00  -3.35058310e-01  -2.07997880e-01
C     3.789539846199999e+00   5.235366377809568e-01   3.422709000000000e-01 -6.21463260e-01   8.94578080e-01  -4.64099813e+00
C     3.635727642300000e+00   9.303619949311688e-01   3.540756300000000e+00 -2.26646417e+00  -1.49161303e+00   6.92156490e-01
C     4.769980778200000e+00   1.706770583534016e+00   3.635759700000000e+00  3.82365384e+00  -2.31685114e+00  -9.57051900e-02
C     1.001637215570000e+01   8.355733684732835e+00   2.908200000000000e-03 -2.54236586e+00   5.79488420e-01   2.34927539e+00
C     6.337458896599999e+00   4.562581157694560e-01   3.290370000000000e-02 -1.96354608e+00   2.86665939e+00  -1.61509730e-01
C     6.067458917700000e+00   9.709957302012968e-01   3.799353900000000e+00 -1.21336476e+00  -2.71438245e+00  -6.29473890e-01
C     7.284160091800000e+00   1.654652733069336e+00   3.842354400000000e+00 -5.21368050e-01  -1.03207511e+00  -9.47965290e-01
C     1.246243952600000e+01   8.300867724525375e+00   2.337900000000000e-03 -2.79343897e+00  -2.92571761e+00  -1.73121443e+00
C     8.670437785699999e+00   4.609049598825672e-01   8.501040000000000e-02  1.49275589e+00   3.51700925e+00  -9.71715500e-02
C     8.513106449199999e+00   9.449752305161168e-01   3.779193300000000e+00  1.69174298e+00   1.63400100e+00   2.70286100e-02
C     9.859576217199999e+00   1.647521463857069e+00   3.545673600000000e+00 -2.52087277e+00  -3.18265813e+00   1.28114663e+00
C     1.365481376300000e+00   1.909782398262138e+00  -4.450851000000000e-01 -1.39704669e+00   1.44485775e+00   2.79162496e+00
C     2.600440706800000e+00   2.656936336960506e+00  -5.584196999999982e-01  2.14243300e-02  -7.38109350e-01  -5.78625720e-01
C     2.378784110700000e+00   3.023450733436734e+00   2.911893300000000e+00 -4.65312970e-01   1.51192840e+00   1.47465495e+00
C     3.635554599300000e+00   3.797189088072380e+00   3.069450000000000e+00 -7.14314070e-01  -9.82481120e-01   4.78060030e-01
C     3.819104957600000e+00   1.959229843979408e+00  -2.384670000000000e-01  8.47129870e-01  -1.88791852e+00   1.99420746e+00
C     5.148072091700000e+00   2.657124792921799e+00  -1.852869000000013e-01 -4.81382877e+00  -1.61105231e+00  -6.64639060e-01
C     4.807297180700000e+00   3.102933380006460e+00   3.442977300000000e+00 -8.32309390e-01  -6.72232590e-01  -4.12315740e-01
C     6.013977340999999e+00   3.766876198599113e+00   3.578327100000000e+00  1.89827583e+00   3.03365745e+00   9.59076490e-01
C     6.308871009800000e+00   1.934196026955192e+00   3.643140000000000e-02  1.64533730e+00  -1.66970850e+00   2.66246940e-01
C     7.569997547799999e+00   2.630480091570531e+00   1.066590000000000e-01 -2.28793521e+00  -2.76873138e+00   7.73804000e-03
C     7.214308548700000e+00   3.013517473325559e+00   3.699574200000000e+00  2.88211928e+00   3.71750838e+00   1.70950340e-01
C     8.558461216700000e+00   3.733935855601151e+00   3.637830000000000e+00 -1.67185160e+00  -1.25358400e-02   1.08803014e+00
C     8.753381239599999e+00   1.901397175360883e+00   6.243690000000000e-02  1.36232031e+00   1.15187963e+00   3.33310260e-01
C     9.984335438100000e+00   2.684886653014166e+00  -7.948980000000105e-02  4.81995590e-01  -1.63193427e+00  -3.81780409e+00
C     9.816199957300000e+00   3.026310448046486e+00   3.445962900000000e+00 -5.92692560e-01   1.75554778e+00  -1.57580106e+00
C     1.094152831420000e+01   3.768986529649140e+00   2.960686500000000e+00  1.27964854e+00   1.42189810e-01   1.36368628e+00
C     2.562232812400000e+00   4.055581850730010e+00  -9.199836000000019e-01 -6.62376980e-01   8.92800970e-01   1.81920277e+00
C     3.830496018399999e+00   4.745697675735015e+00  -7.592706000000007e-01 -1.57654595e+00   1.55089231e+00   1.16836839e+00
C     3.672225221100000e+00   5.204766748364383e+00   3.194854200000000e+00 -2.02276190e+00  -1.86230850e-01  -8.55323600e-01
C     4.800173872999999e+00   6.007502472518747e+00   3.534040200000000e+00  1.62810580e+00  -3.31023367e+00   1.77337630e-01
C     4.950177947699999e+00   4.035697996316387e+00  -3.485733000000018e-01  4.82694371e+00   1.22762251e+00   5.86902040e-01
C     6.218730791200000e+00   4.762768694706423e+00  -2.154480000000092e-02 -1.00801720e-01  -2.99397922e+00   4.57370720e-01
C     6.067783015900000e+00   5.316427460466523e+00   3.715182000000000e+00 -1.58388092e+00  -4.26088797e+00  -1.29556747e+00
C     7.305430182399999e+00   5.928283169032223e+00   3.853537200000000e+00  1.39436065e+00  -4.57393510e+00   1.04484665e+00
C     7.467953499099999e+00   3.964086268046705e+00   1.729839000000000e-01  1.06368573e+00   6.30776163e+00  -1.93605147e+00
C     8.718539647800000e+00   4.775979739380450e+00  -7.652819999999849e-02 -6.07000130e-01   8.74655830e-01   6.71392650e-01
C     8.584048261800000e+00   5.129061162300276e+00   3.896103900000000e+00 -3.05877720e-01   1.08879028e+00  -3.49995909e+00
C     9.799781676899999e+00   5.905717894547671e+00   3.481683000000000e+00 -2.99342789e+00  -1.13161970e+00   1.56665359e+00
C     9.930771283900000e+00   4.108406987432748e+00  -4.773911999999996e-01 -1.60035090e+00  -1.55824729e+00   2.81827549e+00
C     1.110160812570000e+01   4.825381757561965e+00  -7.340559000000013e-01  3.59906601e+00  -1.37625537e+00  -6.22820400e-01
C     1.092839198410000e+01   5.268817353634234e+00   3.020449200000000e+00  2.66818301e+00  -4.44706602e+00   2.63307870e-01
C     1.225592512910000e+01   5.815785377732730e+00   3.079881000000000e+00 -8.15263120e-01   3.48509743e+00   2.84777530e-01
C     3.865150270200000e+00   6.218205800936730e+00  -4.751127000000004e-01 -1.13886891e+00  -1.59621539e+00   6.09202170e-01
C     4.952978680699999e+00   6.918406795049350e+00   1.131501000000000e-01  1.88344907e+00  -2.07775434e+00  -1.95162709e+00
C     4.804639417700000e+00   7.355373919902809e+00   3.733575600000000e+00 -1.56448184e+00   2.21369490e+00   1.34062131e+00
C     6.050287579800000e+00   7.954859334766343e+00   4.005642300000000e+00  5.74038160e-01   3.23435170e+00  -2.78125444e+00
C     6.266485975699999e+00   6.128595460987198e+00   1.715202000000000e-01 -5.43297148e+00   7.05876550e-01  -6.23411650e-01
C     7.370872580000000e+00   6.838636469216552e+00   2.489079000000000e-01  6.09450358e+00   4.12939171e+00   5.42451850e-01
C     7.282405948499999e+00   7.256571762122082e+00   3.956955900000001e+00  8.25630680e-01   4.37624649e+00  -2.56764640e-01
C     8.503395137999998e+00   7.990410992559196e+00   3.799208699999999e+00  1.04218861e+00   1.88101856e+00  -2.26826550e-01
C     8.718925321699999e+00   6.250552341145913e+00   8.821079999999999e-02 -1.23444668e+00  -2.03891897e+00  -5.46199390e-01
C     9.942671810899999e+00   6.976824898226384e+00  -6.785100000000099e-02  1.66077869e+00  -2.78174963e+00  -1.44480185e+00
C     9.731904352299999e+00   7.282637091612282e+00   3.671319000000000e+00  1.94837699e+00   2.04714451e+00  -3.19615200e-01
C     1.105249521920000e+01   7.975436813001258e+00   3.625109400000000e+00 -3.65943051e+00   1.93793625e+00  -4.87273620e-01
C     1.123186262040000e+01   6.198236471028202e+00  -5.128695000000008e-01 -2.83856148e+00   1.83306522e+00   8.26688830e-01
C     1.247441084780000e+01   6.880166629806871e+00  -4.569347999999991e-01 -4.42476760e-01   1.64597064e+00   1.39458814e+00
C     1.221022688850000e+01   7.239712681390790e+00   3.316427100000000e+00  1.58971267e+00   2.94339990e+00   2.83132782e+00
C     1.339162837520000e+01   8.118626284278911e+00   3.767638800000000e+00  1.43834976e+00  -4.56741475e+00  -2.73415383e+00
