64
Lattice="9.86 0 0 4.93 8.53901048131456 0 0 0 30 " PBC="1 1 1" Properties=species:S:1:pos:R:3:force:R:3 Energy="-515.59744622"
C     4.918953250400000e+00   8.401536851557449e+00  -2.131283999999987e-01  2.39192495e+00   1.69003817e+00  -4.83908600e-02
C     1.255288530600000e+00   5.849942871284513e-01  -1.845573000000016e-01 -5.10681300e-01   7.69018070e-01  -7.20848850e-01
C     1.178244462600000e+00   8.353008630318353e-01   3.567316500000000e+00  1.86482006e+00  -1.01354627e+00   2.93950390e-01
C     2.453109579500000e+00   1.534801999845514e+00   3.598065600000000e+00 -1.00959588e+00   1.45497699e+00  -2.17330770e-01
C     7.429835725100000e+00   8.425979342105926e+00  -2.207058000000011e-01 -1.14010844e+00   2.56924600e-01   2.06804900e-02
C     3.712084172500000e+00   6.181767964636263e-01  -2.577438000000001e-01  5.64313650e-01  -1.46940825e+00   9.45817490e-01
C     3.687431855400000e+00   8.413280381890385e-01   3.558578700000000e+00 -8.39061450e-01  -6.02904560e-01   7.05306100e-02
C     4.920030849799999e+00   1.535109660393109e+00   3.540666000000000e+00 -4.20734080e-01   1.04203903e+00   2.98926000e-02
C     9.864771303300000e+00   8.416159650834135e+00  -1.506134999999986e-01  1.52452426e+00   5.85291040e-01  -9.50299300e-02
C     6.216270129600000e+00   5.916890421249807e-01  -1.202640000000024e-01 -1.67370072e+00  -1.26671150e+00  -6.73291160e-01
C     6.151800421000000e+00   8.718179413495553e-01   3.512017800000000e+00 -2.58127690e-01  -2.01033451e+00   4.94245610e-01
C     7.372269298300000e+00   1.576483984042167e+00   3.551078100000000e+00 -7.21323780e-01  -5.40229450e-01   2.26504050e-01
C     1.236915411530000e+01   8.448585689230887e+00  -1.797113999999986e-01 -9.87349860e-01  -2.11475831e+00   6.20304720e-01
C     8.647781379100000e+00   5.998157037889016e-01  -2.448842999999989e-01  4.27065740e-01  -3.27590850e-01   4.59435620e-01
C     8.575243035300000e+00   8.078924325832360e-01   3.546955800000000e+00  2.42537460e-01   1.92815145e+00   4.55444090e-01
C     9.807350656600001e+00   1.518526560480530e+00   3.606292800000000e+00  6.06317220e-01  -4.50767880e-01  -4.88933400e-01
C     1.246784182000000e+00   2.031220362753982e+00  -2.114153999999999e-01  1.83669911e+00  -6.28195490e-01   1.17240343e+00
C     2.541327048800000e+00   2.770917781330899e+00  -4.774800000000212e-02 -2.46466614e+00  -3.15115584e+00  -1.46788695e+00
C     2.458120431500000e+00   3.007583031822169e+00   3.598924800000000e+00 -1.61804293e+00  -2.19076670e+00  -1.84140870e-01
C     3.664242367900000e+00   3.687956870550753e+00   3.563851500000000e+00  8.47258410e-01  -5.67496150e-01  -1.24326430e-01
C     3.734411156500000e+00   2.013692079771372e+00  -1.703210999999989e-01  7.02158050e-01   1.11322523e+00   2.53535700e-01
C     5.001713160400000e+00   2.696120148251130e+00  -1.700919000000027e-01 -1.07958885e+00   8.39163900e-02   2.11037600e-01
C     4.906881356600000e+00   2.958750907200088e+00   3.568700400000000e+00 -1.13340834e+00   6.82532400e-01  -5.07401100e-02
C     6.084765584099999e+00   3.708909552906158e+00   3.593306700000000e+00  1.90197257e+00   3.78754770e-01   8.98462600e-02
C     6.209751683600000e+00   1.969204432901305e+00  -1.831469999999982e-01  9.75806730e-01   2.07365185e+00  -3.52267200e-02
C     7.464450290400000e+00   2.704391375362477e+00  -2.206173000000007e-01 -1.89563394e+00   8.67721950e-01   1.77468590e-01
C     7.321061339000000e+00   2.994678964574898e+00   3.639507000000000e+00  1.33250703e+00  -4.40206730e-01  -1.03668276e+00
C     8.599449532500000e+00   3.635778393111665e+00   3.552321900000000e+00 -5.50721390e-01   1.30973574e+00   5.00614220e-01
C     8.674646132299999e+00   2.015234225064060e+00  -2.243591999999985e-01 -7.00728770e-01  -8.49231930e-01  -2.27941630e-01
C     9.872004845800001e+00   2.705141954383669e+00  -2.024082000000007e-01  1.25070508e+00   1.62789749e+00   1.17268350e-01
C     9.833339003700001e+00   2.910913406518718e+00   3.587599800000000e+00 -1.46403850e-01   2.37801606e+00  -1.39018550e-01
C     1.106165954690000e+01   3.702228972667025e+00   3.576542400000000e+00  7.27163200e-02  -2.13047613e+00   2.64564490e-01
C     2.486920061800000e+00   4.140658403065184e+00  -5.306009999999972e-02  8.45319620e-01   1.38540621e+00   1.77800230e-01
C     3.735130344900000e+00   4.840163126263265e+00  -9.222869999999972e-02  1.55335620e-01   1.16904316e+00   5.12168900e-01
C     3.639637773200000e+00   5.083724652398391e+00   3.507827400000000e+00  1.79916831e+00   1.49617767e+00   4.86533450e-01
C     4.890576219700000e+00   5.828478446031041e+00   3.555645300000000e+00 -2.33949640e-01   1.74533600e-02  -1.42322700e-01
C     4.984075197999999e+00   4.116407954862403e+00  -1.314351000000009e-01 -1.73922652e+00   2.10060590e-01  -1.55092310e-01
C     6.164675165300000e+00   4.843574460950025e+00  -1.828458000000026e-01  2.02846324e+00   2.43415460e-01  -2.72233380e-01
C     6.139724977600000e+00   5.159167322329821e+00   3.578551500000000e+00 -8.40239930e-01  -1.43577180e+00  -2.47749640e-01
C     7.381280598799999e+00   5.844593010438582e+00   3.535003500000000e+00  4.36089180e-01  -1.54825271e+00   4.10894490e-01
C     7.413089895499999e+00   4.142939599714916e+00  -2.148491999999997e-01  3.71428470e-01  -1.41026770e-01   1.61675680e-01
C     8.639462152000000e+00   4.890490602400603e+00  -1.751055000000008e-01  6.20023800e-02  -1.72612118e+00   1.58475200e-01
C     8.606905122199999e+00   5.078196838574059e+00   3.517544700000000e+00 -1.00468560e-01  -1.00378030e-01   7.90668000e-02
C     9.842715962300000e+00   5.781007525069577e+00   3.511482000000000e+00 -1.21956409e+00   1.53531291e+00   2.92823770e-01
C     9.869226642899999e+00   4.141006196962034e+00  -1.360770000000002e-01 -1.88694450e-01   1.48000580e-01  -3.54547800e-02
C     1.110179748700000e+01   4.825592073390088e+00  -5.710470000000001e-02  4.87662220e-01   1.16242908e+00  -2.34513150e-01
C     1.106365175990000e+01   5.099379476481690e+00   3.582085500000000e+00  1.85349560e-01   2.70566030e-01  -7.47280300e-01
C     1.229704694930000e+01   5.809103772812341e+00   3.518037600000000e+00 -4.96168320e-01   6.38001000e-03   3.71048270e-01
C     3.739814584399999e+00   6.301160067607205e+00  -4.660110000000017e-02  1.24039290e-01  -1.18068298e+00  -1.02133944e+00
C     4.989349607799999e+00   7.019755883485946e+00  -1.919198999999985e-01 -1.38798428e+00  -2.25847290e+00   3.55824490e-01
C     4.914670115699999e+00   7.251203627793726e+00   3.566925000000000e+00 -1.12645952e+00  -4.85920220e-01  -1.51223350e-01
C     6.146341086900000e+00   7.924170387271539e+00   3.545409000000000e+00 -2.18397130e-01   1.71030141e+00   5.04686110e-01
C     6.214836091200000e+00   6.262109806440487e+00  -2.476011000000007e-01 -1.41293455e+00   1.11315119e+00   7.01999720e-01
C     7.409453330300000e+00   7.008589163310935e+00  -2.092917000000014e-01  1.24508031e+00  -7.50561440e-01   7.90282000e-03
C     7.396221604699999e+00   7.247342458034879e+00   3.592572000000000e+00 -2.23230732e+00  -4.63749350e-01  -7.19467290e-01
C     8.564435094899999e+00   7.949979375667128e+00   3.555706500000000e+00  2.70185597e+00   8.59623490e-01  -1.38682660e-01
C     8.644175084099999e+00   6.286082822192774e+00  -1.305972000000004e-01  7.76855820e-01   1.16637653e+00  -3.66439200e-01
C     9.907823267800000e+00   7.002327421535846e+00  -9.922230000000098e-02 -9.70513510e-01  -6.58243280e-01  -2.45207910e-01
C     9.792127309600000e+00   7.229061375888352e+00   3.515188800000000e+00  1.57010351e+00   5.89909100e-02   2.80917380e-01
C     1.105107754840000e+01   7.958924416095453e+00   3.557943600000000e+00 -1.87249000e-02  -3.03090150e-01  -6.29564960e-01
C     1.115226215020000e+01   6.268183433814702e+00  -8.492520000000070e-02 -2.13246050e+00  -2.35828500e-01   4.44680630e-01
C     1.233590269500000e+01   6.987695997858576e+00  -7.165769999999938e-02  2.33072918e+00   1.09991391e+00  -2.84455540e-01
C     1.229319632350000e+01   7.226743632273765e+00   3.545498100000000e+00 -4.31316810e-01   7.54756950e-01   7.09033100e-02
C     1.351817141800000e+01   7.964948004868255e+00   3.579091500000000e+00  1.97675280e-01  -1.62168802e+00  -5.12062680e-01
