64
Lattice="9.86 0 0 4.93 8.53901048131456 0 0 0 30 " PBC="1 1 1" Properties=species:S:1:pos:R:3:force:R:3 Energy="-515.00140441"
C     9.880735727899999e+00   2.254788052020504e-01   3.922020000000000e-02 -2.23886898e+00   4.80543630e-01  -7.60644300e-02
C     1.191988020800000e+00   9.505172190978464e-01  -4.120469999999798e-02  2.07559564e+00   4.36254500e-01   8.38659300e-01
C     1.250387371100000e+00   5.123760656934920e-01   3.360207900000000e+00 -8.18851820e-01  -1.58976101e+00   3.22294350e-01
C     2.486608880200000e+00   1.164822131356083e+00   3.427344900000000e+00  7.39348180e-01   1.09807209e+00  -4.92912260e-01
C     2.449703245300000e+00   2.747763912853960e-01  -6.435299999999700e-03 -1.07387500e-02  -1.40998853e+00  -9.38598000e-02
C     3.705356546600000e+00   9.382034536450576e-01   9.158220000000000e-02  1.91088890e-01   9.98594010e-01  -1.43023772e+00
C     3.717087974600000e+00   4.812453097964512e-01   3.347469000000000e+00  1.26990396e+00  -1.85599950e-01   4.58085330e-01
C     4.962503983000000e+00   1.228817062277605e+00   3.369505200000000e+00 -1.47287214e+00   6.31355700e-02  -2.55915400e-02
C     4.953132989699999e+00   2.058757988431144e-01  -8.014769999999771e-02 -1.50025661e+00   8.49029530e-01   9.19839480e-01
C     6.175301287300000e+00   9.222350770969336e-01  -7.644150000000138e-02  2.52530590e-01  -3.84462340e-01   6.67921210e-01
C     6.168440157000000e+00   4.987895607286592e-01   3.372758700000000e+00  1.91180990e-01   1.13233750e-01  -1.50408840e-01
C     7.394526867900000e+00   1.214248571107572e+00   3.355373100000000e+00  4.73657560e-01  -1.04311546e+00  -4.67547460e-01
C     7.418191163700000e+00   2.457560518284872e-01   3.806880000000000e-02  3.11234570e-01  -4.91740310e-01  -5.67873600e-01
C     8.652263192800000e+00   9.744983469100881e-01   7.174349999999999e-02 -1.02453720e+00  -9.67099440e-01  -2.94680760e-01
C     8.624407558900002e+00   4.252901134121640e-01   3.360018300000000e+00  3.55252100e-01   7.39125520e-01  -2.20600590e-01
C     9.855779328399999e+00   1.160948494641936e+00   3.341179800000000e+00 -2.87042370e-01   1.10663060e+00   2.87347530e-01
C     1.104176537000000e+01   2.367638931403345e+00   2.834970000000000e-02  1.13289118e+00   2.58187720e-01  -9.79133900e-02
C     2.420565515600000e+00   3.099899725753230e+00   3.988350000000000e-02  1.67380062e+00  -1.74555393e+00   7.59988630e-01
C     2.526712951200000e+00   2.594875833473123e+00   3.465864900000000e+00 -3.04091073e+00  -7.91889480e-01  -9.77664000e-02
C     3.655155096100000e+00   3.355287781403157e+00   3.482518500000000e+00  3.48949458e+00   6.42046350e-01  -3.77999200e-02
C     3.710459491000000e+00   2.402252322724654e+00   1.026849000000000e-01 -1.40738173e+00  -2.00502728e+00  -5.59034380e-01
C     4.950969409900000e+00   3.052019359239250e+00   4.483320000000000e-02 -8.70025380e-01   1.16979046e+00   1.44088900e-01
C     4.929788256500000e+00   2.669668086976290e+00   3.380660700000000e+00 -1.69610780e-01  -9.88448460e-01  -3.20362100e-02
C     6.155591590999999e+00   3.362346895976869e+00   3.276560400000000e+00 -2.05516360e-01   4.78101030e-01   3.21919410e-01
C     6.158728352800000e+00   2.319277562429027e+00  -2.411250000000109e-02  9.96851500e-02   1.47176652e+00   3.29055100e-02
C     7.370575547500000e+00   3.063151154861398e+00  -4.227600000000109e-03  2.50822920e-01   3.23448780e-01   2.62421200e-01
C     7.386167658500000e+00   2.647846987255070e+00   3.245273400000000e+00 -2.00420460e-01  -1.54718818e+00   1.02942152e+00
C     8.618805599900000e+00   3.299494057707047e+00   3.360950100000000e+00  6.94150440e-01   1.06808342e+00  -5.14157620e-01
C     8.588400219299999e+00   2.393717837920209e+00   5.695140000000000e-02  1.40917942e+00  -1.46657025e+00  -2.05912270e-01
C     9.836000119099999e+00   3.069612282531194e+00   6.774570000000001e-02 -9.50234920e-01   1.20014204e+00  -4.55671980e-01
C     9.858731313800000e+00   2.603419113458363e+00   3.369651300000000e+00  5.93261900e-01  -9.82769670e-01   3.71908700e-02
C     1.113904713730000e+01   3.273534953507218e+00   3.411063600000000e+00 -1.56959681e+00   1.71944911e+00   1.44411640e-01
C     1.234350278300000e+01   4.482974012352035e+00   1.252686000000000e-01 -1.37231422e+00   1.60563093e+00  -5.85810250e-01
C     3.729231797100000e+00   5.213789237617761e+00   7.823700000000000e-02 -1.28421264e+00  -7.79798820e-01  -1.78531500e-02
C     3.676805585499999e+00   4.779402430951148e+00   3.526216200000000e+00  5.67984870e-01   1.44814640e-01  -9.00219580e-01
C     4.957789769100000e+00   5.476390451590459e+00   3.358296600000000e+00 -2.61471037e+00  -1.18323784e+00   4.13853210e-01
C     4.938767906400000e+00   4.497827962642414e+00   6.329880000000000e-02  8.19730740e-01  -1.09925489e+00  -3.53824230e-01
C     6.179719651899999e+00   5.173965512881765e+00  -8.246700000000828e-03 -8.60724900e-01   1.34048720e+00   3.17259650e-01
C     6.125958347000000e+00   4.797413168025878e+00   3.294973800000000e+00  3.36195860e+00  -1.82496360e+00   2.34527130e-01
C     7.403579432500000e+00   5.490742137284403e+00   3.338316900000000e+00 -7.79387220e-01  -1.29562733e+00  -2.37152520e-01
C     7.423300122700000e+00   4.487711028415815e+00   1.094910000000000e-02 -2.31929910e+00  -2.02071510e-01  -4.39195110e-01
C     8.587157415600000e+00   5.235316851548784e+00  -1.725239999999673e-02  1.63084892e+00  -6.88587220e-01   1.98179010e-01
C     8.611401084999999e+00   4.714932816437043e+00   3.380080500000000e+00 -9.67817400e-02   1.34769485e+00  -1.73876330e-01
C     9.831631448900000e+00   5.437337457940388e+00   3.407431800000000e+00  1.78216759e+00  -1.07960832e+00  -2.25882900e-02
C     9.819668557399998e+00   4.490877720452323e+00   1.783950000000000e-02  1.43724693e+00   1.21503765e+00   5.33282100e-01
C     1.108186120790000e+01   5.197206308485391e+00   1.022730000000000e-01  3.18554080e-01   1.16920446e+00   2.27869200e-02
C     1.109096174140000e+01   4.733796515268621e+00   3.398797200000000e+00  1.25506060e-01  -8.21727390e-01   9.22691090e-01
C     1.230887949160000e+01   5.491213063712376e+00   3.509949900000000e+00 -4.65005520e-01  -1.26563418e+00  -9.65725210e-01
C     1.353367971900000e+01   6.620235052070640e+00  -9.572999999996057e-04  5.57441860e-01   5.04034180e-01   9.40354720e-01
C     4.877314618300000e+00   7.354945090796503e+00   5.408700000000000e-02  1.45947238e+00  -1.17890158e+00  -7.15397100e-01
C     4.990491346500000e+00   6.846122363534054e+00   3.296439900000000e+00 -1.99444040e+00   2.38825261e+00   8.75605210e-01
C     6.151638717000000e+00   7.627578361231629e+00   3.382663200000000e+00  2.46439394e+00  -9.96509170e-01  -1.02876188e+00
C     6.100668186500000e+00   6.605389726180846e+00  -1.203600000000193e-03  1.64760199e+00   1.11552000e+00  -2.80487540e-01
C     7.351109639699999e+00   7.365459174400526e+00  -6.331349999999958e-02 -4.47632540e-01  -1.81502200e-02   4.88106080e-01
C     7.418893442200000e+00   6.891717520063375e+00   3.332172300000000e+00  4.31860150e-01   1.46526505e+00   3.67895440e-01
C     8.699630879299999e+00   7.599179576347559e+00   3.328461300000000e+00 -1.28365388e+00  -8.59656410e-01   6.17769110e-01
C     8.575114362299999e+00   6.650467504065185e+00  -4.040849999999807e-02  1.19609423e+00   2.20431040e-01  -2.12291800e-02
C     9.857134634700000e+00   7.339280788411572e+00  -3.081420000000179e-02 -3.52949300e-01  -2.32680100e-02   4.04533580e-01
C     9.929626143499998e+00   6.836319237942595e+00   3.424294200000000e+00 -2.49188525e+00   2.02620178e+00  -6.67754170e-01
C     1.111028739070000e+01   7.605832148632317e+00   3.390252300000000e+00 -6.22607600e-02   1.11727630e-01  -2.35005900e-02
C     1.111592519080000e+01   6.684465830461619e+00   1.317933000000000e-01 -1.99376501e+00  -3.18277352e+00  -1.37534649e+00
C     1.233037251680000e+01   7.345618868940352e+00   3.547920000000000e-02  1.58157900e-01   1.12407224e+00   3.50540080e-01
C     1.230546753720000e+01   6.892859014984342e+00   3.357712500000000e+00  1.86263205e+00  -4.78567260e-01   8.49743200e-01
C     1.358855106270000e+01   7.513352444991193e+00   3.342018000000000e+00 -8.80113210e-01   2.54409538e+00  -9.71332800e-02
