32
Lattice="9.86 0 0 4.93 8.53901048131456 0 0 0 30 " PBC="1 1 1" Properties=species:S:1:pos:R:3:force:R:3 Energy="-256.13931322"
C     4.960299977200000e+00   8.369443493008999e+00   1.490796000000000e-01 -3.71217490e-01   4.91905770e-01   7.13185000e-03
C     1.270178313800000e+00   6.042943293955567e-01   1.865388000000000e-01 -1.46417003e+00  -2.46544323e+00  -5.10448460e-01
C     7.390463611200000e+00   8.383605100329660e+00   1.633671000000000e-01  4.59753270e-01  -7.79646440e-01   2.96406400e-02
C     3.701008434500000e+00   4.920106964789016e-01   5.207790000000000e-02  2.85309900e-01   1.67358169e+00   6.07137380e-01
C     9.873883274400001e+00   8.341503338377809e+00   9.171300000000000e-02 -1.51115916e+00  -5.78882210e-01  -4.69147770e-01
C     6.150724596400000e+00   4.998024581517968e-01   1.107630000000000e-01  8.86190970e-01   3.58675300e-02  -6.74558930e-01
C     1.232067136140000e+01   8.275340694255835e+00  -1.220070000000106e-02  7.94610230e-01   2.25947664e+00   8.41574870e-01
C     8.643587280200000e+00   4.711791826822080e-01   8.959170000000000e-02 -8.95637730e-01   2.70572960e+00   2.66691780e-01
C     1.243373903800000e+00   1.986222510007736e+00   2.655180000000000e-02 -3.25517500e-02   2.09843870e-01   5.65476000e-03
C     2.470303644700000e+00   2.660833455953473e+00  -9.542370000000133e-02  2.36987790e-01   8.67710780e-01  -6.17553900e-01
C     3.668423353000000e+00   1.909665157648248e+00  -3.795450000000145e-02  2.13379230e+00   2.02585491e+00  -1.18856460e-01
C     4.968292049500000e+00   2.701199749415367e+00  -4.098420000000047e-02 -3.37093544e+00  -1.41105192e+00   1.53548730e-01
C     6.102961474600000e+00   1.944368379359806e+00   1.211184000000000e-01  3.75068488e+00   1.90948900e-02   5.28475400e-02
C     7.388502457200000e+00   2.681123084145105e+00   1.896465000000000e-01  1.12204550e-01  -9.61305340e-01  -4.56059470e-01
C     8.652437073900000e+00   2.007801870342268e+00   1.545102000000000e-01 -1.15647287e+00  -3.12697788e+00  -3.58226030e-01
C     9.877478674099999e+00   2.684382168275007e+00   1.853850000000000e-02 -5.62074590e-01   1.54657120e+00   2.72833370e-01
C     2.481027479300000e+00   4.103339767833707e+00  -3.002517000000005e-01 -2.55047714e+00  -9.83873260e-01   5.36854410e-01
C     3.657679601200000e+00   4.784433701316068e+00  -1.994420999999988e-01  3.92071945e+00   1.20374460e+00   4.83179620e-01
C     4.950074269800000e+00   4.126006314982551e+00  -8.483730000000023e-02 -6.21297390e-01  -1.27259649e+00   3.50596860e-01
C     6.179084470699999e+00   4.804615908755863e+00   9.930330000000000e-02 -2.08031190e-01   9.55065450e-01  -2.90339510e-01
C     7.427475783399999e+00   4.088680250811957e+00   1.634928000000000e-01 -1.44692568e+00   5.36959180e-01   9.81836500e-02
C     8.638660238200000e+00   4.826286978062950e+00   1.162299000000000e-01  2.32604600e-01  -1.26366497e+00  -5.11751430e-01
C     9.866725013000000e+00   4.146732884340446e+00  -6.059699999999779e-02  2.59720340e-01  -1.50701261e+00  -1.74818060e-01
C     1.107245876120000e+01   4.855021260668780e+00  -3.086793000000014e-01  7.42749930e-01  -1.02933962e+00   7.15497940e-01
C     3.723467000200000e+00   6.202150411871814e+00  -4.698750000000018e-02 -1.56425754e+00  -1.77997930e-01  -8.02088520e-01
C     4.909247460800000e+00   6.953982276681440e+00   1.128555000000000e-01  1.52586589e+00  -8.57673690e-01  -2.43896720e-01
C     6.148559093899999e+00   6.244738299690290e+00   1.295991000000000e-01  1.12941990e+00  -2.93923570e-01   5.04742850e-01
C     7.400586183000000e+00   6.959675064188246e+00   2.020350000000000e-01 -8.50461140e-01  -7.67181610e-01  -4.35230880e-01
C     8.645107396400000e+00   6.214701220255527e+00   1.006662000000000e-01 -2.73689052e+00   9.89735610e-01   2.35322750e-01
C     9.806934761799999e+00   6.914657742498106e+00  -1.477050000000091e-02  3.49453849e+00   1.90699031e+00  -4.06208690e-01
C     1.107132451610000e+01   6.283787194615330e+00  -2.585148000000004e-01 -7.67357210e-01  -3.03883393e+00   6.92449280e-01
C     1.233255221770000e+01   6.856330067442055e+00  -1.373984999999998e-01  1.44764350e-01   3.08727266e+00   2.15296520e-01
