32
Lattice="9.86 0 0 4.93 8.53901048131456 0 0 0 30 " PBC="1 1 1" Properties=species:S:1:pos:R:3:force:R:3 Energy="-255.69297475"
C     1.216122096300000e+00   4.941601361969272e-01   3.457847400000000e+00  9.22684480e-01   1.38509989e+00   4.50592790e-01
C     2.489403401400000e+00   1.209272121189933e+00   3.430507800000000e+00 -1.29625296e+00  -7.09289060e-01  -9.88234250e-01
C     3.686341684499999e+00   4.642017010486856e-01   3.355374300000000e+00  1.29390438e+00   2.32698470e-01   4.63605160e-01
C     4.918816985199999e+00   1.224456872746307e+00   3.429238500000000e+00 -4.41297790e-01  -7.21943080e-01  -1.13139023e+00
C     6.170917777800000e+00   5.563983364923983e-01   3.348498600000000e+00 -1.25296665e+00  -1.47596917e+00   6.44246980e-01
C     7.387560975100000e+00   1.214953381032591e+00   3.427378500000000e+00  2.95009789e+00  -2.94121207e+00  -1.86628420e-01
C     8.653367414200000e+00   5.022593022471024e-01   3.461325000000000e+00 -1.63515770e-01   1.53084771e+00  -2.58031730e-01
C     9.870281662899998e+00   1.288365645052086e+00   3.440098200000000e+00  7.41912300e-02  -2.97292427e+00   6.02579830e-01
C     2.522689282400000e+00   2.636591461371067e+00   3.240630600000000e+00 -2.41309762e+00   2.72297670e-01   2.11800920e-01
C     3.684638123000000e+00   3.363526987225204e+00   3.123396900000000e+00  3.24940638e+00  -7.98793290e-01   1.62218317e+00
C     4.934737927200000e+00   2.640926204651135e+00   3.356970600000000e+00 -1.20517840e-01  -6.80655190e-01  -3.78664550e-01
C     6.214824752199999e+00   3.215839677567317e+00   3.429858300000000e+00 -1.13684920e-01   4.96220200e+00   1.87401940e-01
C     7.492447267399999e+00   2.547848257935781e+00   3.433226700000000e+00 -2.57492761e+00   5.16567154e+00  -1.08654800e-02
C     8.654564122400000e+00   3.391414370771627e+00   3.372511500000000e+00  5.57706680e-01  -6.00821550e-01   1.09271039e+00
C     9.876682774899999e+00   2.678590157466423e+00   3.449453100000000e+00  1.97373712e+00   2.03010689e+00  -1.50057256e+00
C     1.116909464920000e+01   3.420195959495515e+00   3.253204500000000e+00 -2.25333230e+00  -2.40927026e+00   7.85828660e-01
C     3.720065250900000e+00   4.757605752799901e+00   3.195160200000000e+00 -6.93864800e-02   1.09121335e+00  -1.06564680e-01
C     4.944718712199999e+00   5.482410027028335e+00   3.338886900000000e+00  8.58029480e-01  -7.28571950e-01   5.85825080e-01
C     6.188135359100000e+00   4.779055064004822e+00   3.499418400000000e+00 -1.97107390e-01  -2.48884962e+00  -1.70171038e+00
C     7.391416875999999e+00   5.519537303034955e+00   3.369013800000000e+00  5.79730040e-01  -7.73430570e-01   1.30892703e+00
C     8.664154697899999e+00   4.834559656806079e+00   3.399260400000000e+00 -1.40534210e+00  -1.31370677e+00  -1.28896617e+00
C     9.884931798800000e+00   5.518887825897846e+00   3.226127100000000e+00  1.66591780e-01  -1.85116850e-01   1.04156747e+00
C     1.111006514630000e+01   4.831775256268761e+00   3.197928000000000e+00  1.23283552e+00  -1.61761140e+00  -1.13416740e-01
C     1.236748979660000e+01   5.469252094999493e+00   3.199556700000000e+00 -5.91321480e-01   3.28347046e+00  -6.26919020e-01
C     4.981346048600000e+00   6.905134354889971e+00   3.427428900000000e+00 -2.65189506e+00  -1.09683370e+00   1.40136220e-01
C     6.153057225900000e+00   7.586169710760441e+00   3.527935800000000e+00  1.44304091e+00   3.17154727e+00  -7.73845030e-01
C     7.381508808500000e+00   6.939494393770338e+00   3.409734000000000e+00  1.11362149e+00  -2.06036118e+00  -3.31872480e-01
C     8.644337774099998e+00   7.550730426345506e+00   3.296892000000000e+00 -3.96328200e-01   3.29811778e+00   1.00340909e+00
C     9.904534415499999e+00   6.915604804150442e+00   3.313123500000000e+00 -6.01306470e-01   4.53358570e-01  -1.01477313e+00
C     1.111107441590000e+01   7.671204251164053e+00   3.275523000000000e+00  8.27770800e-01  -7.90269770e-01  -1.43068560e-01
C     1.236166904420000e+01   6.958093639447350e+00   3.193300200000000e+00  3.96919840e-01  -1.13983419e+00   1.43304581e+00
C     1.361782106430000e+01   7.652473419335545e+00   3.416149800000000e+00 -1.09798737e+00  -1.37116763e+00  -1.01833712e+00
