32
Lattice="9.86 0 0 4.93 8.53901048131456 0 0 0 30 " PBC="1 1 1" Properties=species:S:1:pos:R:3:force:R:3 Energy="-257.07642242"
C     1.251466449500000e+00   2.644747582621144e-01   3.319747500000000e+00 -1.43521728e+00  -6.30902510e-01   7.13507140e-01
C     2.450546028800000e+00   9.594408266098655e-01   3.378269700000000e+00  1.52796706e+00  -8.26345850e-01  -5.23557950e-01
C     3.697409830300000e+00   2.490796054875128e-01   3.367771500000000e+00 -3.52232830e-01  -1.26221739e+00   4.51619840e-01
C     4.925449067699999e+00   9.103801980673399e-01   3.374769600000000e+00  4.87003890e-01   2.50584257e+00  -6.12563990e-01
C     6.173459340700000e+00   2.073412638216920e-01   3.310649400000000e+00 -3.21581150e-01   2.83726593e+00   6.91715970e-01
C     7.394808568100000e+00   9.770389586982023e-01   3.344719800000000e+00  8.21200820e-01  -1.55692514e+00  -1.62028710e-01
C     8.652573684200000e+00   2.276616324510528e-01   3.387348000000000e+00 -4.93820660e-01   5.68599300e-01  -3.85707470e-01
C     9.877641659900000e+00   9.751759173916760e-01   3.342324900000000e+00 -6.13920470e-01  -9.10478620e-01   1.38729860e-01
C     2.459876990500000e+00   2.344228465661482e+00   3.329916900000000e+00 -9.55927100e-02   1.90040137e+00  -9.47487900e-02
C     3.684367367400000e+00   3.067596136766762e+00   3.298327500000000e+00  3.75016790e-01   1.00916102e+00   3.86051420e-01
C     4.904008004700000e+00   2.404555891581844e+00   3.338297700000000e+00  1.62145140e+00  -2.90582679e+00   1.03133050e-01
C     6.167686064199999e+00   3.088162514288051e+00   3.348324300000000e+00 -8.78681190e-01  -6.76156490e-01  -7.68218100e-02
C     7.406219348900000e+00   2.410584774541143e+00   3.312995100000000e+00 -1.09856702e+00  -2.54304473e+00   4.58079600e-02
C     8.624787957699999e+00   3.056306625621048e+00   3.269464800000000e+00  6.82661430e-01   2.00993136e+00   9.19065020e-01
C     9.849355784899998e+00   2.384043309826578e+00   3.342987600000000e+00  1.57987685e+00  -2.01183310e-01  -6.70422060e-01
C     1.111562140420000e+01   3.087508938425912e+00   3.304043400000000e+00 -1.42806918e+00   7.75284190e-01   3.67192650e-01
C     3.740485508100000e+00   4.502389245870516e+00   3.309918000000000e+00 -3.07218212e+00   1.18630110e-01   1.24580340e-01
C     4.926777653399999e+00   5.214264433550973e+00   3.310971900000000e+00  1.85642304e+00  -1.38913842e+00   4.07375120e-01
C     6.177174588700000e+00   4.468647687519215e+00   3.377446500000000e+00 -1.10058565e+00   1.81011376e+00  -8.41089750e-01
C     7.385449160300000e+00   5.174884139629204e+00   3.329043000000000e+00  7.66519640e-01   1.93110484e+00   8.37503430e-01
C     8.629405346399999e+00   4.481415130598807e+00   3.354013800000000e+00 -2.18616660e-01   7.03675480e-01  -6.39490640e-01
C     9.846865395400000e+00   5.225383591437610e+00   3.358370700000000e+00  6.66072210e-01  -1.92282540e-01   2.40080740e-01
C     1.109237872200000e+01   4.547047672950183e+00   3.330174300000000e+00  4.68007310e-01  -1.81168501e+00   2.26632200e-02
C     1.232909130840000e+01   5.245779359529509e+00   3.360640800000000e+00  6.09419180e-01  -7.26498060e-01  -6.71815490e-01
C     4.935755725700000e+00   6.603348219555287e+00   3.330328200000000e+00  8.44798090e-01   1.92926226e+00   3.53697890e-01
C     6.151836114199999e+00   7.389690068269308e+00   3.369589800000000e+00  6.93136510e-01  -1.79793107e+00  -3.13749470e-01
C     7.383312449000000e+00   6.651452991264682e+00   3.392871300000000e+00  4.35940560e-01  -9.00343730e-01  -3.03180620e-01
C     8.641208012900000e+00   7.344543209790187e+00   3.408956700000000e+00 -6.29433740e-01   4.25250880e-01  -1.30862790e-01
C     9.890331874299999e+00   6.645012954950769e+00   3.413813100000000e+00 -1.75323243e+00   5.39376000e-03  -4.42672590e-01
C     1.109372239350000e+01   7.372972308161460e+00   3.347940600000000e+00  7.83594890e-01  -1.61647466e+00   1.58896200e-02
C     1.231978948300000e+01   6.659043488460563e+00   3.323920800000000e+00  1.21091086e+00  -4.34520320e-01   6.46017780e-01
C     1.359789996960000e+01   7.313329454711281e+00   3.384012900000000e+00 -1.93826745e+00   1.85203781e+00  -5.95918910e-01
