32
Lattice="9.86 0 0 4.93 8.53901048131456 0 0 0 30 " PBC="1 1 1" Properties=species:S:1:pos:R:3:force:R:3 Energy="-256.54259895"
C     1.212224980600000e+00   4.426568383164928e-01   3.344262600000000e+00  1.56559118e+00   1.62702935e+00  -2.60920350e-01
C     2.491027639200000e+00   1.182636898140298e+00   3.379916100000000e+00 -9.92802370e-01   3.67321100e-02   4.55283000e-01
C     3.749108373900000e+00   4.659226532208248e-01   3.382480200000000e+00 -2.31265900e+00   6.90658450e-01  -1.12589340e-01
C     4.924339127500000e+00   1.223237758220078e+00   3.379112700000000e+00  1.10748875e+00  -1.01232610e+00   4.32008440e-01
C     6.167949967099999e+00   5.224020594584792e-01   3.420569400000000e+00  2.90514170e-01  -1.53861003e+00  -8.97927790e-01
C     7.438860583100000e+00   1.173201376950002e+00   3.346160700000000e+00 -2.51911503e+00   1.44429127e+00  -5.66568000e-01
C     8.623410269199999e+00   4.551336988694496e-01   3.300798000000000e+00  5.54961750e-01   4.00078400e-02   6.22226900e-02
C     9.824041368800000e+00   1.172583750321984e+00   3.340699500000000e+00  2.25106956e+00   1.69637250e-01  -3.02641810e-01
C     2.469463474100000e+00   2.625484855829836e+00   3.515325000000000e+00  1.57569673e+00  -1.21117664e+00  -4.71699880e-01
C     3.739252958800000e+00   3.358136993030019e+00   3.555036000000000e+00 -3.27922715e+00  -1.23408099e+00  -4.62052120e-01
C     4.902223048900000e+00   2.622905391544037e+00   3.410640900000000e+00  1.37621371e+00   1.21062634e+00  -1.95034180e-01
C     6.124252862800000e+00   3.360042900169155e+00   3.280988700000000e+00  1.89035867e+00  -2.66393964e+00   5.65178400e-02
C     7.384654789400000e+00   2.613311044758814e+00   3.218214300000000e+00  3.01958560e-01   1.34956130e-01   1.28763370e+00
C     8.614650201500000e+00   3.334258931074271e+00   3.346505700000000e+00  4.26499260e-01  -1.01479068e+00  -9.13459820e-01
C     9.886987263700000e+00   2.598408849059223e+00   3.349607400000000e+00 -1.74298976e+00   5.35675160e-01   3.98941350e-01
C     1.111255484560000e+01   3.318342813270285e+00   3.450760200000000e+00 -2.30418250e-01  -1.64156818e+00   1.96894870e-01
C     3.664335495600000e+00   4.765345938849497e+00   3.531853500000000e+00  1.10360223e+00  -6.82415160e-01   2.21695380e-01
C     4.888985653800000e+00   5.419102315670243e+00   3.412042800000000e+00  2.31668987e+00   2.45436965e+00  -4.54523560e-01
C     6.181397528100000e+00   4.738785432141561e+00   3.293543100000000e+00 -1.95702811e+00   1.26321854e+00   8.11497900e-01
C     7.403074797700000e+00   5.464704303407950e+00   3.369064500000000e+00 -3.94803430e-01   5.07756600e-01  -1.10138996e+00
C     8.605649106100000e+00   4.752843717435414e+00   3.367247400000000e+00  1.91127164e+00  -7.86663680e-01   9.20946500e-01
C     9.893359584499999e+00   5.385559289312602e+00   3.534962700000000e+00 -1.84589863e+00   2.80575826e+00  -1.26580050e+00
C     1.112272849220000e+01   4.699198323385966e+00   3.515494500000000e+00 -1.40701210e+00   1.82724737e+00   6.61398630e-01
C     1.229913973430000e+01   5.459469036082662e+00   3.600605100000000e+00  1.38037649e+00   3.77194200e-01  -7.82916020e-01
C     4.951585462700000e+00   6.875148167957669e+00   3.345376200000000e+00  3.20731610e-01  -1.34854587e+00  -3.17180160e-01
C     6.209058229800000e+00   7.574815644695499e+00   3.289587000000000e+00 -2.26866089e+00   3.56781760e-01   1.13028520e-01
C     7.416526746399999e+00   6.897066527008257e+00   3.285911100000000e+00 -1.36951580e-01  -1.41125712e+00   8.85817250e-01
C     8.622298159800000e+00   7.586688455647101e+00   3.378341400000000e+00  1.39265501e+00   1.72444190e-01  -1.28453980e-01
C     9.837508304700000e+00   6.870175219034327e+00   3.455404500000000e+00  2.22857453e+00  -1.06959829e+00   1.26306280e-01
C     1.108847337320000e+01   7.614702728889256e+00   3.400824600000000e+00  5.58133650e-01  -5.84532150e-01   1.08308652e+00
C     1.238204448770000e+01   6.873640520267321e+00   3.488283600000000e+00 -3.00150017e+00   6.82917490e-01  -7.33938320e-01
C     1.359432428990000e+01   7.576923328652278e+00   3.294393600000000e+00 -4.63320900e-01  -1.37797420e-01   1.25381692e+00
