32
Lattice="9.86 0 0 4.93 8.53901048131456 0 0 0 30 " PBC="1 1 1" Properties=species:S:1:pos:R:3:force:R:3 Energy="-257.08454115"
C     1.215819246400000e+00   3.864708324789312e-01   3.519456600000000e+00 -7.41866330e-01   3.11309931e+00  -1.31558810e-01
C     2.431283730000000e+00   1.164911107845285e+00   3.485871600000000e+00 -3.20453580e-01  -1.55651706e+00   2.40222850e-01
C     3.627761107400000e+00   4.174139863157264e-01   3.511589100000000e+00  1.82499161e+00   7.96226240e-01  -1.89047790e-01
C     4.890956569199999e+00   1.157621354598509e+00   3.518046300000000e+00 -1.45952530e-01  -2.13485268e+00   2.02224590e-01
C     6.134806711000000e+00   4.473377530814192e-01   3.542844000000000e+00 -3.79295360e-01  -5.58553650e-01  -2.90953300e-01
C     7.381572405500000e+00   1.143132617786359e+00   3.584800200000000e+00 -1.26284580e-01  -9.66704870e-01   1.55946540e-01
C     8.602752090199999e+00   4.692020601956688e-01   3.659042700000000e+00  1.42062579e+00  -1.28917881e+00  -1.37694273e+00
C     9.850667953700000e+00   1.175059636410660e+00   3.528088800000000e+00 -3.45967880e-01  -8.51537500e-01   1.01569981e+00
C     2.464120586600000e+00   2.595112534843629e+00   3.493985100000000e+00 -1.03126053e+00  -1.66471064e+00  -1.65836340e-01
C     3.667037037000000e+00   3.270725875229613e+00   3.471669300000000e+00  2.16852222e+00   1.92394770e-01   5.92941650e-01
C     4.918539672700000e+00   2.540128736291546e+00   3.550634400000000e+00 -4.57336910e-01   1.22417361e+00  -1.64218340e-01
C     6.168588599300000e+00   3.214540125562366e+00   3.620498700000000e+00 -2.66089860e-01   1.69952184e+00  -7.03410200e-01
C     7.439605949799999e+00   2.520886844685810e+00   3.556511100000000e+00 -2.83676872e+00   2.55558718e+00   6.53546360e-01
C     8.593382822399999e+00   3.310196597272365e+00   3.573800400000000e+00  2.08008728e+00  -3.69665610e-01  -1.73670340e-01
C     9.835254407299999e+00   2.606403924571647e+00   3.567147300000000e+00  1.21105548e+00  -5.65210320e-01  -3.83586550e-01
C     1.111041093650000e+01   3.285896195858276e+00   3.526772100000000e+00 -1.89797777e+00   8.41444670e-01  -8.62372700e-02
C     3.690524296500000e+00   4.679878043664023e+00   3.496129200000000e+00 -3.77786480e-01   3.31821100e-01  -2.35614090e-01
C     4.904831068200000e+00   5.389999660152307e+00   3.514862400000000e+00  8.14617360e-01   7.19907240e-01   5.96805980e-01
C     6.124225747800000e+00   4.676927730153078e+00   3.603819900000000e+00  1.63408015e+00  -1.07613659e+00  -4.11638850e-01
C     7.392160320000000e+00   5.391461026405854e+00   3.565614300000000e+00 -1.98166906e+00   1.07409743e+00   5.26833100e-02
C     8.626235701500001e+00   4.744341766260897e+00   3.543640800000000e+00 -4.17696930e-01  -1.61038203e+00   2.84360010e-01
C     9.851389015500001e+00   5.433892137991918e+00   3.524831100000000e+00  7.67256800e-01  -2.03149940e-01   6.31243000e-03
C     1.109212019280000e+01   4.709344034077882e+00   3.502877400000000e+00 -3.97262200e-02   1.22914610e-01  -1.26905000e-03
C     1.233480478400000e+01   5.399392230119888e+00   3.473594100000000e+00 -4.96163900e-01   1.34925253e+00   5.66424300e-02
C     4.939329088299999e+00   6.837428284623736e+00   3.560209500000000e+00 -3.00105767e+00  -1.34280527e+00  -3.05384000e-01
C     6.111847848900000e+00   7.520526921596489e+00   3.542154900000000e+00  2.40420783e+00   8.34980140e-01   5.81044400e-02
C     7.340396799000000e+00   6.818837065616576e+00   3.537051600000000e+00  1.66841582e+00  -3.28957120e-01   9.98870200e-02
C     8.595375626999999e+00   7.534125039615574e+00   3.530208000000000e+00 -7.54646370e-01   2.58211520e-01  -3.57567900e-02
C     9.857156819699998e+00   6.852962964829582e+00   3.531888000000000e+00 -1.48808096e+00  -6.53772060e-01  -4.21859580e-01
C     1.105201291730000e+01   7.549517886857346e+00   3.464812200000000e+00  2.50753216e+00   9.31195910e-01   7.17249250e-01
C     1.234149449820000e+01   6.851041260521058e+00   3.480270300000000e+00 -1.12955260e+00  -3.80801540e-01   1.15860300e-01
C     1.356343941750000e+01   7.576861335436193e+00   3.559217700000000e+00 -2.65758280e-01  -4.91892420e-01   2.28497090e-01
