32
Lattice="9.86 0 0 4.93 8.53901048131456 0 0 0 30 " PBC="1 1 1" Properties=species:S:1:pos:R:3:force:R:3 Energy="-255.93252903"
C     9.862687983900001e+00   1.875008729714120e-01   7.817460000000000e-02 -1.39287713e+00   8.93712000e-02   1.14666190e-01
C     1.216267284800000e+00   8.665850649472017e-01   3.191070000000000e-02  6.61392090e-01   1.50412205e+00  -1.12836610e-01
C     2.448518073300000e+00   1.524774383668536e-01   1.302774000000000e-01  1.24482745e+00   1.79944414e+00   5.58744800e-02
C     3.716803414999999e+00   9.076327714454000e-01   1.345449000000000e-01 -1.55606084e+00   9.36536130e-01  -1.55969961e+00
C     4.950504264399999e+00   2.159228839639872e-01   1.238094000000000e-01 -1.10717541e+00  -2.32728400e-01   5.38039750e-01
C     6.182332354700000e+00   9.725400956367096e-01   1.728030000000000e-01 -2.09625470e+00  -2.64238608e+00  -1.85145530e-01
C     7.363985567199999e+00   2.150302158084080e-01   1.868091000000000e-01  2.07612342e+00  -1.80512880e-01  -1.71252723e+00
C     8.637027471500000e+00   9.220969159073672e-01   4.961820000000000e-02 -1.53567453e+00  -3.57407910e-01   5.54378790e-01
C     1.103916316810000e+01   2.322275523618450e+00  -1.017900000000012e-01  1.78851263e+00  -9.92187010e-01   5.67782490e-01
C     2.434339196100000e+00   3.041944009993689e+00  -1.999320000000004e-01 -4.77676640e-01  -2.10123506e+00   1.14667920e-01
C     3.672337033500000e+00   2.350581318678393e+00  -1.406942999999998e-01  8.96367630e-01  -7.27475560e-01   1.29337562e+00
C     4.917981892499999e+00   3.123500440648588e+00  -5.643210000000209e-02 -2.24408658e+00  -2.90333794e+00   5.69276550e-01
C     6.075616539400000e+00   2.348404468736727e+00   1.381935000000000e-01  2.71112478e+00   1.91640470e+00  -6.69505990e-01
C     7.344922539000000e+00   3.024249216306719e+00   9.917819999999999e-02  3.93399900e-01   1.70468388e+00   6.01530540e-01
C     8.569674600299999e+00   2.352331132705955e+00   1.035120000000000e-02  1.67980471e+00  -1.15434726e+00   9.54873050e-01
C     9.856181320599999e+00   3.050611020240784e+00   3.753990000000000e-02 -1.88938688e+00  -4.25145330e-01  -1.60619878e+00
C     1.230913126670000e+01   4.416907773658380e+00  -2.211195000000004e-01 -7.40156250e-01   2.73063251e+00   1.63663930e-01
C     3.659959134599999e+00   5.155619192695171e+00  -1.049600999999996e-01  5.05368100e-02   1.12557499e+00  -7.09389300e-02
C     4.873204132200000e+00   4.506496424521291e+00   2.624460000000000e-02  3.31183968e+00  -6.63539700e-02  -5.68163320e-01
C     6.186105431600000e+00   5.201324075509161e+00   1.257843000000000e-01 -2.18700369e+00  -1.14647798e+00   1.11437385e+00
C     7.434365211899999e+00   4.473964587784693e+00   2.269767000000000e-01 -3.49746352e+00  -8.89326020e-01  -1.16523663e+00
C     8.589920039699999e+00   5.210160328943971e+00   1.624989000000000e-01  3.08511593e+00  -3.25332502e+00  -6.58141650e-01
C     9.852673773499999e+00   4.447584168807780e+00  -8.583239999999748e-02 -2.55574910e-01   2.24006751e+00   1.35063262e+00
C     1.108978184450000e+01   5.171731878520407e+00  -1.672575000000016e-01 -8.28853400e-01   4.25054990e-01   5.22508920e-01
C     1.355166273210000e+01   6.573655006072554e+00  -5.066310000000129e-02 -2.16910776e+00   1.26783827e+00   4.81630630e-01
C     4.883864024699999e+00   7.312344309072202e+00   1.593027000000000e-01  1.21000200e-01  -8.38430050e-01  -6.87688610e-01
C     6.096416801000000e+00   6.590366447312648e+00   2.433228000000000e-01  2.31744067e+00   8.18043100e-01  -6.09645990e-01
C     7.378309928700000e+00   7.295724662194769e+00   2.245113000000000e-01 -1.70725185e+00  -3.34428580e-01   4.27374470e-01
C     8.581354854899999e+00   6.567372343721789e+00   2.170512000000000e-01  8.02357460e-01   3.05140692e+00  -5.47419720e-01
C     9.790432868600000e+00   7.328968652405401e+00   9.964020000000000e-02  2.35248670e+00  -4.01240090e-01   3.66807980e-01
C     1.107421236220000e+01   6.642827395218415e+00   2.307000000000000e-03 -2.05840554e+00  -2.52469904e+00  -9.27993110e-01
C     1.227144526210000e+01   7.307921443203982e+00  -4.712879999999942e-02  2.25067955e+00   1.56186380e+00   1.28968397e+00
