32
Lattice="9.86 0 0 4.93 8.53901048131456 0 0 0 30 " PBC="1 1 1" Properties=species:S:1:pos:R:3:force:R:3 Energy="-257.07604936"
C     1.296801743500000e+00   6.938698301823288e-01   3.583184400000000e+00 -2.29185360e+00  -1.39149803e+00   8.05577050e-01
C     2.481070419600000e+00   1.408502264346778e+00   3.558709500000000e+00  1.08102141e+00   4.34659190e-01  -2.96816870e-01
C     3.711562775700000e+00   7.245428097275368e-01   3.550413600000000e+00  5.11334470e-01  -1.50792670e+00   1.50339640e-01
C     4.952680514299999e+00   1.418275247231242e+00   3.581948700000000e+00  6.22480600e-02  -7.71543260e-01  -3.06771910e-01
C     6.178804841100000e+00   6.774257453603640e-01   3.542988000000000e+00  7.18228190e-01  -6.13390600e-02   6.76871640e-01
C     7.403081354599999e+00   1.399337515178803e+00   3.663170700000000e+00  7.14223510e-01   1.22848860e-01  -3.50124390e-01
C     8.673492610900000e+00   7.046025124546409e-01   3.682519800000000e+00 -9.44022380e-01  -1.15446794e+00  -3.51943480e-01
C     9.916317559199999e+00   1.386318769020785e+00   3.621523200000000e+00 -6.36887230e-01   1.49947535e+00   5.25255490e-01
C     2.483150485200000e+00   2.821158415731656e+00   3.481782300000000e+00 -2.09022120e-01   7.27738030e-01  -1.75185590e-01
C     3.720261711400000e+00   3.534503423286035e+00   3.405171900000000e+00  4.49244040e-01  -2.56976210e-01   1.08043968e+00
C     4.950133972100000e+00   2.827522113291876e+00   3.590518200000000e+00  5.17572310e-01   3.20888060e-01  -5.60408950e-01
C     6.201468149699999e+00   3.536388580629704e+00   3.650115600000000e+00 -1.72907887e+00   3.17724820e-01  -3.93165600e-02
C     7.399764204099999e+00   2.828567800515257e+00   3.670966500000000e+00  1.45747606e+00  -3.08102480e-01  -2.03849780e-01
C     8.666408151599999e+00   3.538830993797299e+00   3.598803600000000e+00 -1.24568361e+00  -2.82621900e-02   7.16523730e-01
C     9.880244699900000e+00   2.852236400543930e+00   3.648706200000000e+00  8.99059850e-01  -1.90206245e+00  -9.61390510e-01
C     1.110901293640000e+01   3.538731428935102e+00   3.511473900000000e+00  3.99698130e-01   1.24370419e+00  -1.86983650e-01
C     3.758722465500000e+00   4.948147111232926e+00   3.422525400000000e+00 -4.80848340e-01   6.76327020e-01   3.05558110e-01
C     4.986369570700000e+00   5.697404293602621e+00   3.571733700000000e+00 -1.88816560e+00  -2.37279857e+00  -1.20968300e-02
C     6.172722453600000e+00   4.965019768990882e+00   3.667250700000000e+00  5.92707350e-01  -6.96705630e-01  -6.08594990e-01
C     7.383796229900000e+00   5.655141485913119e+00   3.615772200000000e+00  2.00120751e+00  -4.17940930e-01   5.66591870e-01
C     8.657854010000001e+00   4.949065140249630e+00   3.581111100000000e+00 -7.45288380e-01   1.16792407e+00  -3.42553370e-01
C     9.860511635400000e+00   5.720612043235690e+00   3.481707900000000e+00  1.25778648e+00  -2.48631334e+00   4.37278050e-01
C     1.113172362230000e+01   4.992203452683647e+00   3.414255000000000e+00 -9.33468750e-01  -1.09270258e+00   4.73142670e-01
C     1.238241650550000e+01   5.657133807838314e+00   3.416922300000000e+00 -5.03062610e-01   1.93043390e-01  -3.04980030e-01
C     4.925987768800000e+00   7.071732498717286e+00   3.648336600000000e+00  4.79403720e-01   2.04624430e+00   1.50551620e-01
C     6.152181805800000e+00   7.789422325584099e+00   3.696024000000000e+00  1.55229437e+00   3.75313610e-01  -6.44979740e-01
C     7.390527011000000e+00   7.050657537731808e+00   3.657563400000000e+00  8.88757270e-01   2.46292073e+00  -4.77673600e-01
C     8.660060086400000e+00   7.824166876106381e+00   3.561624300000000e+00 -1.13230301e+00  -4.65080800e-01   5.95203670e-01
C     9.897119399699999e+00   7.105649704514160e+00   3.563476500000000e+00 -5.78607760e-01   9.43428130e-01  -9.93998840e-01
C     1.115909971510000e+01   7.771719846787697e+00   3.484934100000000e+00 -2.54991485e+00   1.91056624e+00   3.47635610e-01
C     1.234439565530000e+01   7.080808015225745e+00   3.459105000000000e+00  1.79588629e+00  -2.76381080e-01   6.34539940e-01
C     1.356000690500000e+01   7.794350871652945e+00   3.638583600000000e+00  4.90058090e-01   7.47295250e-01  -6.47839660e-01
