32
Lattice="9.86 0 0 4.93 8.53901048131456 0 0 0 30 " PBC="1 1 1" Properties=species:S:1:pos:R:3:force:R:3 Energy="-256.46252394"
C     9.797905072399999e+00   1.123810630262320e-01  -1.842413999999977e-01  1.56651401e+00  -3.22601550e-01   1.98727480e-01
C     1.187327198800000e+00   7.866971569400943e-01  -9.685410000000161e-02  2.16406740e-01   2.00336214e+00  -1.08752844e+00
C     2.439692584499999e+00   1.020957395129672e-01  -3.150714000000008e-01 -1.54183580e+00   2.27640100e-02   1.38609489e+00
C     3.655106387700000e+00   8.027276974845129e-01  -1.671234000000013e-01  1.34245569e+00   5.21639380e-01   9.78687400e-02
C     4.911081963099999e+00   1.227700501267240e-01  -1.845020999999996e-01 -3.15048090e-01  -2.53773614e+00  -4.13519010e-01
C     6.173384207500000e+00   8.094303083706840e-01  -1.532178000000002e-01 -2.60237223e+00  -8.34318090e-01  -3.86736270e-01
C     7.374386831900000e+00   8.368426667641039e-02  -2.086799999999975e-01 -1.09622830e-01   1.67655960e-01   8.44457980e-01
C     8.584941528500000e+00   8.142797832024856e-01  -1.753181999999995e-01 -4.08856000e-02  -1.04106993e+00   7.38783300e-02
C     1.102940768410000e+01   2.260858519960841e+00   3.334920000000000e-02  1.07649281e+00  -2.26342796e+00   4.77236110e-01
C     2.446890680300000e+00   2.939489546650457e+00   1.951293000000000e-01 -1.11740609e+00  -9.49138050e-01  -1.13980760e+00
C     3.688129894100000e+00   2.220845229192189e+00   3.377850000000000e-02 -1.56541022e+00   4.79862640e-01  -1.36944190e-01
C     4.887920132900000e+00   2.959767305617522e+00  -6.735120000000094e-02  5.39730840e-01  -6.82986640e-01   2.14274690e-01
C     6.086740246300000e+00   2.204278524179732e+00  -1.481108999999989e-01  1.83174468e+00   1.01134477e+00  -4.80787360e-01
C     7.350043625800000e+00   2.869374109187186e+00  -2.244471000000026e-01 -1.33868932e+00   2.67849736e+00   6.22918950e-01
C     8.557960673800000e+00   2.206975399859630e+00  -1.241279999999989e-01  1.10090081e+00   1.81223570e-01  -2.34860520e-01
C     9.780305070999999e+00   2.928024815009694e+00   9.218100000000000e-03  1.22301019e+00   5.29043980e-01  -6.77308800e-02
C     1.228144133010000e+01   4.343930486832737e+00   2.104272000000000e-01  8.58710780e-01   7.96821060e-01   2.97632300e-01
C     3.666164279100000e+00   5.047297319080817e+00   1.440060000000000e-01  1.08120722e+00   2.13331099e+00  -1.60220420e-01
C     4.924905880299999e+00   4.391090075472100e+00  -6.393990000000116e-02 -1.39478378e+00  -1.18654811e+00   4.06077290e-01
C     6.143758506399999e+00   5.082283267429368e+00  -2.323541999999996e-01 -6.05137000e-02  -9.18857110e-01   2.21168650e-01
C     7.378863567700000e+00   4.324055769160327e+00  -2.333046000000003e-01 -1.25817818e+00  -3.14967180e-01  -1.47010800e-02
C     8.574496140299999e+00   5.043120547494630e+00  -1.567554000000015e-01  1.13814703e+00   3.27774620e-01  -1.17127500e-02
C     9.841883926200000e+00   4.349659223573664e+00   2.184420000000000e-02 -1.50731538e+00   6.37478720e-01   1.53208300e-02
C     1.105901297500000e+01   5.072157879582393e+00   1.598259000000000e-01  1.21159550e-01   1.66778450e-01  -8.03892860e-01
C     1.357627240470000e+01   6.519972979668148e+00   1.447986000000000e-01 -2.50787273e+00  -9.98393650e-01  -1.92926317e+00
C     4.899863550899999e+00   7.230456906371098e+00  -1.838925000000025e-01 -1.21437405e+00  -8.91945500e-01   1.02386878e+00
C     6.086998183900000e+00   6.485076776319741e+00  -2.858732999999987e-01  1.54229457e+00   1.28205066e+00  -2.20073800e-02
C     7.307728745600000e+00   7.225297380068768e+00  -3.508502999999976e-01  1.58580020e+00  -1.24607067e+00   1.20493380e-01
C     8.540507339900000e+00   6.466676404196808e+00  -2.450328000000006e-01  1.18232136e+00   1.03090535e+00  -3.68264640e-01
C     9.817952572299998e+00   7.171984153526993e+00  -2.346696000000001e-01 -1.25516040e-01   1.65721124e+00   8.08762720e-01
C     1.108918206070000e+01   6.510348831736350e+00  -3.266849999999977e-02 -2.43564952e+00  -1.44795134e+00   1.65244590e-01
C     1.227558463800000e+01   7.216298629264525e+00  -2.058059999999884e-02  2.72857706e+00   8.28702000e-03   2.83950870e-01
