32
Lattice="9.86 0 0 4.93 8.53901048131456 0 0 0 30 " PBC="1 1 1" Properties=species:S:1:pos:R:3:force:R:3 Energy="-256.68801808"
C     4.904272302000000e+00   8.336926599540739e+00  -1.094411999999991e-01  1.78561600e-01   3.17572429e+00  -6.34011600e-02
C     1.207953037000000e+00   5.561826410876736e-01  -1.194375000000001e-01  4.49116100e-02  -6.27440690e-01   3.65636510e-01
C     7.393850669100001e+00   8.446118769103215e+00  -9.392670000000081e-02 -8.24653270e-01  -3.33850062e+00  -2.41521890e-01
C     3.674460631000000e+00   5.644876826805216e-01  -2.067000000000263e-02  1.32485344e+00   2.08452792e+00   4.49527260e-01
C     9.877474828699999e+00   8.402386568490314e+00   8.243400000000001e-03 -2.20814937e+00  -9.49776600e-02  -4.89172340e-01
C     6.131840280700001e+00   5.985319489533384e-01  -3.761310000000151e-02  1.68859061e+00  -1.46171411e+00   5.32748800e-02
C     1.232005205480000e+01   8.420981886222506e+00  -1.899119999999854e-02 -4.10250540e-01   1.99717130e-01   3.31903150e-01
C     8.633424331699999e+00   5.741722014164136e-01  -5.208179999999984e-02 -6.52912440e-01   2.56143320e-01  -1.09741430e-01
C     1.197486104700000e+00   1.949277371094654e+00  -9.965099999998728e-03 -5.69741000e-01   1.80179238e+00   2.14556420e-01
C     2.394526192300000e+00   2.715648609048575e+00   1.213692000000000e-01  1.94022820e+00  -1.42400433e+00  -1.66432570e-01
C     3.646155282500000e+00   2.026127099172977e+00   9.915990000000000e-02  1.35634374e+00  -1.62099609e+00  -9.31483350e-01
C     4.941271261799999e+00   2.694220218419329e+00   4.424700000000000e-03 -2.84294101e+00   9.00116840e-01   2.88490150e-01
C     6.135040935300000e+00   1.987183746417470e+00  -1.066412999999997e-01  7.83974830e-01   1.19963577e+00   4.32217390e-01
C     7.359086774100001e+00   2.738837658248692e+00  -1.181048999999987e-01  1.28021343e+00  -1.87540983e+00   5.56114610e-01
C     8.632181577299999e+00   2.032957282875719e+00  -2.253629999999873e-02 -2.70171189e+00  -2.34957554e+00  -1.06753784e+00
C     9.821461894200000e+00   2.681377717437619e+00  -2.056199999999819e-02  1.76899263e+00   1.76249154e+00   7.77342730e-01
C     2.498625065000000e+00   4.110734807079701e+00   1.939614000000000e-01 -2.61534524e+00   1.34597333e+00  -5.46023000e-03
C     3.696932113300000e+00   4.850700094415375e+00   1.199994000000000e-01 -3.91974720e-01  -8.74006050e-01   3.62708010e-01
C     4.927270604100000e+00   4.129018792489791e+00   3.754410000000000e-02 -4.87292380e-01  -8.07846860e-01   1.97124130e-01
C     6.139155168199999e+00   4.796242982029699e+00   2.277990000000000e-02  5.68170680e-01   2.89359533e+00  -8.87540980e-01
C     7.378111101799999e+00   4.125125089101016e+00  -8.090849999999961e-02  3.94553270e-01   1.11600838e+00   1.78109050e-01
C     8.633149582800000e+00   4.870415901102752e+00  -5.872589999999889e-02 -1.15480729e+00  -1.98825918e+00   4.28616090e-01
C     9.819467807799999e+00   4.120166485715280e+00   9.573120000000000e-02  2.07392972e+00   5.04912170e-01  -4.88536120e-01
C     1.110221584680000e+01   4.837864339251944e+00   2.192052000000000e-01 -1.04761056e+00  -3.08861730e-01  -7.14745660e-01
C     1.347114508470000e+01   6.260872076871411e+00   1.134606000000000e-01  2.89854070e+00   3.25321720e-01  -7.78408620e-01
C     4.876026606500000e+00   6.965397311281209e+00  -8.970689999999948e-02 -2.53980360e-01  -1.76215858e+00   1.04999897e+00
C     6.108102478599999e+00   6.264653919222900e+00  -4.624740000000216e-02  1.77886587e+00  -9.41001360e-01  -3.71888610e-01
C     7.397679750800000e+00   6.962108682175046e+00  -1.235934000000007e-01 -2.47783508e+00   1.48002923e+00   2.66308560e-01
C     8.603729709200000e+00   6.266137657683904e+00  -8.929559999999981e-02  7.55871250e-01   4.83042310e-01   2.96776220e-01
C     9.834124352700000e+00   6.974645401191468e+00  -9.797700000000020e-03  5.67399540e-01   2.82104950e-01   4.65169500e-01
C     1.105240357050000e+01   6.266170703654462e+00   1.500006000000000e-01  8.32506640e-01  -3.86522400e-02  -1.81868710e-01
C     1.230120377740000e+01   7.003477113906873e+00   1.226571000000000e-01 -1.59730261e+00  -2.97731760e-01  -2.16134130e-01
