32
Lattice="9.86 0 0 4.93 8.53901048131456 0 0 0 30 " PBC="1 1 1" Properties=species:S:1:pos:R:3:force:R:3 Energy="-256.78023508"
C     9.832689426900000e+00   2.557998067352728e-01  -1.022955000000003e-01  1.48577905e+00  -3.04528910e-01   1.54136650e-01
C     1.227995853400000e+00   9.435324793054161e-01  -3.182999999999936e-04 -1.74798860e-01   4.39026310e-01  -1.31244100e-01
C     2.456282133100000e+00   2.317501960589816e-01  -1.649312999999992e-01  1.73718710e-01   1.03758448e+00   6.17138390e-01
C     3.700880895400000e+00   9.780071970965296e-01  -6.170939999999803e-02 -7.02013710e-01  -4.23921390e-01  -3.27003140e-01
C     4.912602177899999e+00   2.608595120050920e-01  -1.713302999999975e-01  1.10268640e+00  -1.22445615e+00   7.08927820e-01
C     6.166267653899999e+00   9.539255651309384e-01  -6.558180000000036e-02 -1.17886495e+00   1.04659681e+00  -7.83702120e-01
C     7.397521399200000e+00   2.859402081968432e-01  -1.088240999999996e-01 -1.35631620e-01  -1.34577339e+00   1.26182760e-01
C     8.628815570499999e+00   9.868268848510072e-01  -1.278105000000025e-01 -4.64067110e-01  -1.27496286e+00   4.14887940e-01
C     1.109325157850000e+01   2.365992866353116e+00   2.339814000000000e-01 -5.21643100e-02  -4.39422630e-01  -9.08181460e-01
C     2.472879520400000e+00   3.085929221487112e+00   2.778141000000000e-01 -3.66450260e-01   9.60581480e-01   2.25332500e-02
C     3.692492993400000e+00   2.400094173215940e+00   1.189338000000000e-01  1.07653227e+00   5.27026000e-02  -3.77777040e-01
C     4.955353412399999e+00   3.157361288976295e+00  -8.772900000000305e-03 -1.45156945e+00  -3.81494684e+00   6.08277710e-01
C     6.156061715800000e+00   2.390519722325135e+00  -8.578320000000161e-02  5.24286200e-01  -3.39181200e-02  -4.35934170e-01
C     7.402335544200000e+00   3.072927211789635e+00  -1.896149999999999e-01 -8.57259680e-01   1.49505938e+00   6.80688210e-01
C     8.616357066100001e+00   2.375888042477549e+00  -8.925029999999978e-02  8.09553120e-01   5.93970810e-01   7.18303800e-02
C     9.847377720999999e+00   3.059274358713373e+00   1.106334000000000e-01  3.49159590e-01   5.44113060e-01  -3.40347510e-01
C     1.233810640500000e+01   4.553704173179762e+00   3.235914000000000e-01 -1.00043056e+00  -1.97606392e+00  -3.64456860e-01
C     3.692868807300000e+00   5.230549436607695e+00   2.174160000000000e-01  1.34767024e+00   1.31375941e+00  -8.05484130e-01
C     4.934154116599999e+00   4.512917760402250e+00   2.055090000000000e-02 -7.45756900e-02   2.34169273e+00  -3.70471900e-02
C     6.171033484900000e+00   5.219769789777743e+00  -1.969941000000013e-01 -1.47149191e+00  -3.99365900e-02   4.62651710e-01
C     7.380491897400000e+00   4.528377638876291e+00  -2.044901999999986e-01  1.46604778e+00  -1.02259482e+00  -1.22517990e-01
C     8.624027948899998e+00   5.246799685891764e+00  -1.542206999999998e-01  6.26768730e-01  -1.83000348e+00   1.80825610e-01
C     9.855971647699999e+00   4.470841700871946e+00   3.161160000000000e-02 -3.92468120e-01   1.93861548e+00   4.77594790e-01
C     1.107839255850000e+01   5.222401342027469e+00   1.996245000000000e-01  5.68714890e-01  -3.11226920e-01  -1.78811840e-01
C     1.359215104730000e+01   6.680369923304677e+00   7.018500000000000e-02 -2.22116279e+00  -1.11681621e+00  -1.08685780e-01
C     4.933141149500000e+00   7.357209807156009e+00  -9.719039999999879e-02  9.51487500e-02   6.93343340e-01  -3.22963130e-01
C     6.134232563199999e+00   6.619180996616989e+00  -2.464770000000023e-01  1.65075369e+00   1.76591765e+00   3.51946760e-01
C     7.380418045999999e+00   7.368275596227146e+00  -2.971977000000017e-01  5.64624790e-01  -1.08205644e+00   5.35572020e-01
C     8.661745209699999e+00   6.656435760050076e+00  -1.964510999999973e-01 -2.38317588e+00  -3.75952710e-01  -7.17207850e-01
C     9.863472445499999e+00   7.327641775566913e+00  -1.758194999999994e-01  1.63993032e+00   2.13851902e+00   8.98193690e-01
C     1.112356491600000e+01   6.633999936964400e+00   7.081140000000000e-02 -1.55905969e+00   1.06789096e+00  -1.04025817e+00
C     1.232786018880000e+01   7.394668482159358e+00  -1.332869999999886e-02  1.00381005e+00  -8.12792130e-01   6.90234780e-01
