32
Lattice="9.86 0 0 4.93 8.53901048131456 0 0 0 30 " PBC="1 1 1" Properties=species:S:1:pos:R:3:force:R:3 Energy="-257.35828324"
C     1.256416465300000e+00   4.955658281021448e-01   3.390687600000000e+00  3.34353670e-01  -4.13092830e-01   2.19178440e-01
C     2.502570544000000e+00   1.184058643385218e+00   3.435704100000000e+00 -5.65976410e-01  -3.06667200e-01  -6.55627740e-01
C     3.740668953399999e+00   4.890021469164832e-01   3.347917500000000e+00 -4.99901210e-01  -4.92591330e-01   5.04033910e-01
C     4.933290873599999e+00   1.222339198147267e+00   3.359808600000000e+00  1.04957565e+00  -1.49425670e-01  -3.91393520e-01
C     6.171486896999999e+00   4.804797021168144e-01   3.325757700000000e+00 -7.31271500e-01   6.14182740e-01   4.44430940e-01
C     7.373225028099999e+00   1.198066633907343e+00   3.337019100000000e+00  2.02691134e+00  -8.17205740e-01   1.95577590e-01
C     8.646183319600000e+00   4.531599919871024e-01   3.391066500000000e+00 -1.17506763e+00   1.95362659e+00  -4.34511400e-01
C     9.881600351299999e+00   1.189808898432554e+00   3.359578500000000e+00 -6.81091230e-01  -1.29612107e+00   4.96467700e-01
C     2.457934373300000e+00   2.578551550968193e+00   3.420951300000000e+00  1.33071712e+00   2.50986244e+00   1.66076530e-01
C     3.718870218900000e+00   3.354765023181572e+00   3.422971200000000e+00 -1.20442011e+00  -5.92637340e-01   1.22365780e-01
C     4.946457473900000e+00   2.662454672483205e+00   3.354818100000000e+00 -1.21623110e-01  -9.11864560e-01   4.36518500e-02
C     6.185902857899999e+00   3.353107088906775e+00   3.294015600000000e+00 -2.22968160e-01  -1.14032790e-01   4.53744490e-01
C     7.391260003399999e+00   2.608431341829914e+00   3.328010700000000e+00  6.69279460e-01   7.32815450e-01  -2.25903490e-01
C     8.645026396500000e+00   3.317350665642614e+00   3.342224400000000e+00 -1.00286695e+00  -1.04440110e-01   3.65719850e-01
C     9.857280118999999e+00   2.582652069190794e+00   3.387054300000000e+00  2.16523690e-01   1.42903852e+00  -3.59599460e-01
C     1.107942159740000e+01   3.307185229836488e+00   3.390759000000000e+00  5.72755650e-01  -3.99441800e-01   1.59164060e-01
C     3.713395059500000e+00   4.784541890578851e+00   3.467106600000000e+00 -1.16946267e+00  -9.13316370e-01  -1.09103582e+00
C     4.922174512400000e+00   5.485953374817115e+00   3.335937000000000e+00  1.40693478e+00   4.42696520e-01   2.82548840e-01
C     6.195878466400000e+00   4.774031137188913e+00   3.313656600000000e+00 -2.09479603e+00  -1.24584420e-01  -1.77642000e-01
C     7.387121662800000e+00   5.471183448389859e+00   3.303381300000000e+00  1.86988637e+00   1.22477282e+00   8.48409530e-01
C     8.627468941000000e+00   4.746649775403536e+00   3.378845700000000e+00 -5.53150400e-02   2.41246000e-03  -1.09391467e+00
C     9.861447004300000e+00   5.452913808517375e+00   3.306414600000000e+00 -1.12173890e-01   3.81495830e-01   9.00076660e-01
C     1.107124938290000e+01   4.731672094851302e+00   3.360779100000000e+00  8.99403780e-01  -2.63929000e-02  -2.26422800e-02
C     1.230617809810000e+01   5.455662174430468e+00   3.383655900000000e+00  5.54358310e-01   1.89044040e-01  -3.54821300e-02
C     4.930380891800000e+00   6.917799927574537e+00   3.310992300000000e+00  1.07928825e+00  -8.47921680e-01   8.17587070e-01
C     6.207599344200000e+00   7.618711794309617e+00   3.396353700000000e+00 -1.45210531e+00  -1.13557000e-03  -5.85585460e-01
C     7.437694687399999e+00   6.930111131324181e+00   3.386394600000000e+00 -4.59263570e-01  -2.08180890e+00  -6.95936180e-01
C     8.687418628400000e+00   7.581689889692319e+00   3.326577300000000e+00 -1.04331571e+00   1.76235682e+00   6.21875510e-01
C     9.893063932399999e+00   6.889174602742432e+00   3.362384400000000e+00  2.45474120e-01  -9.99689760e-01  -4.53327440e-01
C     1.111717647410000e+01   7.603469062872082e+00   3.381935700000000e+00 -5.31747170e-01  -1.60059910e-01  -8.42774110e-01
C     1.232358375890000e+01   6.879130079324703e+00   3.304632600000000e+00 -1.15435100e-02  -2.39039250e-01   1.06087161e+00
C     1.354572637120000e+01   7.596053359220726e+00   3.376575900000000e+00  8.79447020e-01  -2.50835010e-01  -6.36404660e-01
