32
Lattice="9.86 0 0 4.93 8.53901048131456 0 0 0 30 " PBC="1 1 1" Properties=species:S:1:pos:R:3:force:R:3 Energy="-257.23218902"
C     1.178244462600000e+00   8.353008630318353e-01   3.567316500000000e+00  1.86104615e+00  -1.02002373e+00   3.23910630e-01
C     2.453109579500000e+00   1.534801999845514e+00   3.598065600000000e+00 -1.01667922e+00   1.45920869e+00  -1.99433620e-01
C     3.687431855400000e+00   8.413280381890385e-01   3.558578700000000e+00 -8.57016880e-01  -5.99325470e-01   9.95836200e-02
C     4.920030849799999e+00   1.535109660393109e+00   3.540666000000000e+00 -4.32000930e-01   1.04483718e+00   4.78434500e-02
C     6.151800421000000e+00   8.718179413495553e-01   3.512017800000000e+00 -2.55038220e-01  -2.01543686e+00   5.09240790e-01
C     7.372269298300000e+00   1.576483984042167e+00   3.551078100000000e+00 -7.25332070e-01  -5.50176500e-01   2.47123170e-01
C     8.575243035300000e+00   8.078924325832360e-01   3.546955800000000e+00  2.48772380e-01   1.93081426e+00   4.81837110e-01
C     9.807350656600001e+00   1.518526560480530e+00   3.606292800000000e+00  5.99619750e-01  -4.37216330e-01  -4.63898200e-01
C     2.458120431500000e+00   3.007583031822169e+00   3.598924800000000e+00 -1.61976585e+00  -2.19105278e+00  -1.68172510e-01
C     3.664242367900000e+00   3.687956870550753e+00   3.563851500000000e+00  8.36655660e-01  -5.67553770e-01  -1.12678640e-01
C     4.906881356600000e+00   2.958750907200088e+00   3.568700400000000e+00 -1.13730951e+00   6.81166010e-01  -2.43863400e-02
C     6.084765584099999e+00   3.708909552906158e+00   3.593306700000000e+00  1.90899543e+00   3.65217540e-01   1.13649190e-01
C     7.321061339000000e+00   2.994678964574898e+00   3.639507000000000e+00  1.33837585e+00  -4.51845310e-01  -1.01431926e+00
C     8.599449532500000e+00   3.635778393111665e+00   3.552321900000000e+00 -5.57901270e-01   1.32103499e+00   5.21998420e-01
C     9.833339003700001e+00   2.910913406518718e+00   3.587599800000000e+00 -1.49978500e-01   2.38290816e+00  -1.16659120e-01
C     1.106165954690000e+01   3.702228972667025e+00   3.576542400000000e+00  6.60938200e-02  -2.12955790e+00   2.81041660e-01
C     3.639637773200000e+00   5.083724652398391e+00   3.507827400000000e+00  1.79421833e+00   1.51076144e+00   4.94134160e-01
C     4.890576219700000e+00   5.828478446031041e+00   3.555645300000000e+00 -2.32811470e-01   1.92762600e-02  -1.29304840e-01
C     6.139724977600000e+00   5.159167322329821e+00   3.578551500000000e+00 -8.39425320e-01  -1.43668482e+00  -2.19569040e-01
C     7.381280598799999e+00   5.844593010438582e+00   3.535003500000000e+00  4.20101780e-01  -1.55676220e+00   4.33317260e-01
C     8.606905122199999e+00   5.078196838574059e+00   3.517544700000000e+00 -1.04476350e-01  -9.77732500e-02   9.19872600e-02
C     9.842715962300000e+00   5.781007525069577e+00   3.511482000000000e+00 -1.22458742e+00   1.53949715e+00   3.00235380e-01
C     1.106365175990000e+01   5.099379476481690e+00   3.582085500000000e+00  1.79644030e-01   2.62622470e-01  -7.35803750e-01
C     1.229704694930000e+01   5.809103772812341e+00   3.518037600000000e+00 -5.06082100e-01   1.21787900e-02   3.84442720e-01
C     4.914670115699999e+00   7.251203627793726e+00   3.566925000000000e+00 -1.13557043e+00  -4.86672900e-01  -1.27204710e-01
C     6.146341086900000e+00   7.924170387271539e+00   3.545409000000000e+00 -2.29667070e-01   1.71684293e+00   5.20282180e-01
C     7.396221604699999e+00   7.247342458034879e+00   3.592572000000000e+00 -2.23248896e+00  -4.67299210e-01  -6.91430950e-01
C     8.564435094899999e+00   7.949979375667128e+00   3.555706500000000e+00  2.69603637e+00   8.53233510e-01  -1.18648930e-01
C     9.792127309600000e+00   7.229061375888352e+00   3.515188800000000e+00  1.57068186e+00   6.78874400e-02   2.90659920e-01
C     1.105107754840000e+01   7.958924416095453e+00   3.557943600000000e+00 -2.28825000e-02  -3.01384630e-01  -6.20523630e-01
C     1.229319632350000e+01   7.226743632273765e+00   3.545498100000000e+00 -4.36275240e-01   7.61460270e-01   9.07764100e-02
C     1.351817141800000e+01   7.964948004868255e+00   3.579091500000000e+00  1.95047900e-01  -1.62018141e+00  -4.90029750e-01
