32
Lattice="9.86 0 0 4.93 8.53901048131456 0 0 0 30 " PBC="1 1 1" Properties=species:S:1:pos:R:3:force:R:3 Energy="-256.44078172"
C     1.153324052100000e+00   3.685466809704680e-01   3.716476200000000e+00  6.42185490e-01   4.58617750e-01  -6.88311220e-01
C     2.414275032800000e+00   1.069535142629553e+00   3.662730300000000e+00  1.10655330e-01   9.71556430e-01   5.95799410e-01
C     3.632177746500000e+00   3.553277804067992e-01   3.710470800000000e+00  1.24861651e+00  -2.17261100e-02  -9.63654700e-01
C     4.891007545400000e+00   1.103583080676877e+00   3.549135600000000e+00 -1.20569315e+00  -1.01661949e+00   1.10362396e+00
C     6.130299212000000e+00   4.315641513623441e-01   3.618053100000000e+00 -4.73621240e-01  -2.67046834e+00  -8.40899600e-01
C     7.379600306899999e+00   1.085866427123078e+00   3.675804600000000e+00 -1.69212410e+00   2.83897500e-01  -4.27725180e-01
C     8.558565042499998e+00   3.749336900292984e-01   3.607070400000000e+00  3.04015369e+00  -3.57154550e-01   7.50710640e-01
C     9.800553813499999e+00   1.104673426925068e+00   3.702966000000000e+00 -1.65443930e-01   7.40477040e-01  -1.11600243e+00
C     2.474595505500000e+00   2.547992311042578e+00   3.612918900000000e+00 -2.21700782e+00  -3.15436309e+00  -4.09246360e-01
C     3.646913565800000e+00   3.249077092739879e+00   3.556066200000000e+00  1.79815354e+00  -3.82138790e-01  -3.78356060e-01
C     4.892144649900000e+00   2.503802419467950e+00   3.536059800000000e+00 -1.04633094e+00   3.16142500e-01   7.18486600e-02
C     6.117308809900000e+00   3.156155495306414e+00   3.559297800000000e+00  6.88725770e-01   2.99958849e+00   6.50830170e-01
C     7.360982556300000e+00   2.485775714443621e+00   3.675697200000000e+00  5.77612510e-01   1.46233485e+00  -5.72369630e-01
C     8.585988660500000e+00   3.252353254890740e+00   3.606502200000000e+00  1.03325700e-01   3.44729860e-01  -3.76180050e-01
C     9.822837955799999e+00   2.569931846839157e+00   3.556853400000000e+00  3.80395200e-01  -2.42841261e+00   8.73078080e-01
C     1.110087232320000e+01   3.212008906685779e+00   3.510429600000000e+00 -1.33769184e+00   1.74477244e+00   4.76543960e-01
C     3.624457021400000e+00   4.647420837879020e+00   3.490456800000000e+00  1.89012347e+00   9.37469110e-01   1.00700569e+00
C     4.894607480700000e+00   5.338004515268225e+00   3.602060400000000e+00 -9.65124410e-01  -1.32642349e+00  -4.92260430e-01
C     6.087175466699999e+00   4.640895923800937e+00   3.616997100000000e+00  2.82518415e+00  -1.43293451e+00  -5.61910800e-02
C     7.358694987000000e+00   5.402721931866459e+00   3.666496200000000e+00 -8.26571650e-01  -2.94040791e+00  -9.29930750e-01
C     8.613175342700000e+00   4.691990117689275e+00   3.526374900000000e+00 -2.23055148e+00  -1.28140745e+00   1.03873949e+00
C     9.823530670099998e+00   5.370172163207852e+00   3.505818000000000e+00  1.45412737e+00  -1.08939189e+00  -2.66802230e-01
C     1.107317730870000e+01   4.644177977869030e+00   3.511919100000000e+00  1.22533680e-01   6.95666490e-01  -2.63588690e-01
C     1.230822153380000e+01   5.399491453421666e+00   3.546405000000000e+00 -1.67226708e+00  -1.72651445e+00  -1.02393490e-01
C     4.955118202100000e+00   6.712296600368559e+00   3.627814200000000e+00 -3.31248492e+00   3.20926399e+00  -4.85837070e-01
C     6.099979021799999e+00   7.475575777237568e+00   3.617474400000000e+00  1.83084154e+00   6.65751050e-01   1.10297537e+00
C     7.348543821200000e+00   6.781471380437353e+00   3.671851200000000e+00 -3.37900780e-01   7.15645480e-01   2.00994280e-01
C     8.580250189799999e+00   7.448278268535104e+00   3.716411100000000e+00  7.11250730e-01   1.82640177e+00  -1.03669600e+00
C     9.817342780599999e+00   6.760489494666107e+00   3.508949700000000e+00  2.65365310e-01   1.79447418e+00   7.86428930e-01
C     1.104741219200000e+01   7.503028695930769e+00   3.491496000000000e+00  4.31327740e-01   7.78674350e-01   1.42217739e+00
C     1.229388578400000e+01   6.795517369556115e+00   3.625464600000000e+00  5.64418450e-01   1.33286154e+00  -1.37903856e+00
C     1.356672191010000e+01   7.501730680947704e+00   3.577888500000000e+00 -1.20218285e+00  -1.45036215e+00   7.04727490e-01
