32
Lattice="9.86 0 0 4.93 8.53901048131456 0 0 0 30 " PBC="1 1 1" Properties=species:S:1:pos:R:3:force:R:3 Energy="-256.35627432"
C     9.934864860099999e+00   2.719009648963608e-01  -1.163751000000026e-01 -2.33266651e+00   1.37550850e+00   3.03418000e-03
C     1.280637259500000e+00   9.766364297441752e-01  -1.490301000000009e-01  3.20841890e-01   1.32778158e+00  -1.12430862e+00
C     2.523219898300000e+00   3.068345691106696e-01  -1.034039999999976e-01 -1.02279771e+00  -1.88370026e+00   4.49076740e-01
C     3.725126339600000e+00   1.002178061721637e+00  -1.776047999999975e-01  6.54868320e-01   1.68143819e+00   5.48768820e-01
C     4.944041625999999e+00   2.869261223468640e-01  -1.299540000000121e-02  2.60149020e-01   1.21098290e-01  -1.24175907e+00
C     6.156867918700000e+00   1.027485895592156e+00  -1.164734999999979e-01  1.19397746e+00  -1.17463604e+00   8.26396230e-01
C     7.409012884100000e+00   3.076409932604008e-01  -8.589749999999796e-02  7.43286390e-01   7.55007400e-01  -4.41574910e-01
C     8.668350177200001e+00   1.054960588762080e+00  -1.273662000000009e-01 -5.69484090e-01  -2.20947590e+00   7.33411700e-02
C     1.111344155540000e+01   2.402476044799230e+00  -3.928379999999976e-01 -9.58500400e-02   3.62395400e-01   1.25034603e+00
C     2.464201093500000e+00   3.163325873186679e+00  -3.703590000000005e-01  1.06172978e+00  -1.53231878e+00  -7.51382140e-01
C     3.728605440600000e+00   2.488094995080094e+00  -3.100856999999984e-01 -1.12430491e+00  -2.55725508e+00   7.32144980e-01
C     4.930459426700000e+00   3.176947131924166e+00  -1.983120000000014e-01  1.02030993e+00  -2.03360960e-01  -1.08532000e-01
C     6.173471369900000e+00   2.430892761605308e+00  -8.130509999999802e-02 -1.32032362e+00   1.13383429e+00  -3.95729900e-01
C     7.367799119399999e+00   3.158056876769995e+00  -4.448730000000012e-02  2.17972665e+00  -1.87303260e-01  -3.65933000e-01
C     8.609683719500000e+00   2.460360545211369e+00  -1.700651999999998e-01  1.46983019e+00  -2.64642440e-01   3.66123260e-01
C     9.897426538700000e+00   3.145961283034970e+00  -2.978874000000005e-01 -1.51751676e+00  -1.29497936e+00   4.28354730e-01
C     1.235975304900000e+01   4.549628503477658e+00  -4.559199000000014e-01 -5.76088650e-01   2.09909905e+00   1.39926140e-01
C     3.741990932900000e+00   5.310857976271047e+00  -3.423090000000002e-01 -1.00647967e+00  -1.54480730e+00   3.39991150e-01
C     4.962899369000000e+00   4.594087544662615e+00  -2.283413999999979e-01  1.19224135e+00  -2.95335050e-01  -6.39957200e-02
C     6.262836050200000e+00   5.253491793795045e+00  -1.181237999999993e-01 -3.98528890e+00   1.47786426e+00   6.63180750e-01
C     7.461140189799999e+00   4.585857987922411e+00   8.086500000000000e-03 -1.14168568e+00  -1.61488006e+00  -4.03306960e-01
C     8.659331136599999e+00   5.282569686182589e+00   3.480300000000000e-03  1.19969755e+00  -1.02136827e+00  -2.94943930e-01
C     9.879926221900000e+00   4.531511199552137e+00  -1.909251000000012e-01  9.79292310e-01   2.40189475e+00  -1.10085867e+00
C     1.110651776480000e+01   5.270794561510878e+00  -4.571246999999978e-01  2.01846900e-01   1.80417400e-02   1.37083766e+00
C     1.353509201610000e+01   6.696352218439884e+00  -1.616840999999987e-01  2.47656329e+00   8.91881360e-01  -7.85461300e-01
C     4.948811746100000e+00   7.406532156369747e+00  -1.121121000000009e-01 -1.23020663e+00  -6.50093770e-01   4.59232150e-01
C     6.134522151400000e+00   6.671013814911846e+00  -3.059999999999974e-02  3.19969638e+00   4.52486810e-01  -1.48781290e-01
C     7.414622188799999e+00   7.381233715410755e+00   5.037630000000000e-02 -1.28855305e+00   1.59944302e+00  -6.13700960e-01
C     8.618246636499999e+00   6.683396148618789e+00   3.388410000000000e-02  2.47266020e+00   5.23454210e-01  -2.22373710e-01
C     9.905993301099999e+00   7.393850530345479e+00  -5.272649999999857e-02 -1.38691152e+00   2.46275390e-01  -4.83771940e-01
C     1.112324983970000e+01   6.710214789613536e+00  -3.391680000000008e-01 -6.25310550e-01  -6.42911450e-01   1.26938007e+00
C     1.235526527000000e+01   7.418413250161514e+00  -1.830497999999992e-01 -1.40324933e+00   6.09563740e-01  -3.73719920e-01
