32
Lattice="9.86 0 0 4.93 8.53901048131456 0 0 0 30 " PBC="1 1 1" Properties=species:S:1:pos:R:3:force:R:3 Energy="-256.84216165"
C     1.176499784900000e+00   2.868947841784024e-01   3.459915900000000e+00  1.89778493e+00   1.13044738e+00   2.95762690e-01
C     2.471804533900000e+00   1.005543029581490e+00   3.506979900000000e+00 -1.69274121e+00   3.62288190e-01  -5.33887100e-01
C     3.699640260899999e+00   3.010662967512200e-01   3.457700700000000e+00 -5.72068180e-01   3.54431830e-01  -1.59413990e-01
C     4.919313288300000e+00   1.046069344099780e+00   3.463949400000000e+00 -7.31679600e-02  -1.86823800e+00   1.82742000e-01
C     6.146282962200000e+00   3.453184377122480e-01   3.482606100000000e+00 -6.64375620e-01  -2.57996434e+00   5.38396700e-02
C     7.372726752999999e+00   1.009149480657718e+00   3.506235000000000e+00 -3.73046000e-01   2.45226180e-01   5.44203850e-01
C     8.577444329599999e+00   2.803191483780688e-01   3.527772300000000e+00  6.49710750e-01   2.40816504e+00  -5.98091120e-01
C     9.809844299900000e+00   1.018100327613169e+00   3.478567800000000e+00  4.69711570e-01  -1.58927469e+00   2.60555340e-01
C     2.449493720300000e+00   2.456979097061289e+00   3.505323300000000e+00 -9.27293000e-03  -1.14472722e+00   1.51447100e-02
C     3.667298179100000e+00   3.176949181286681e+00   3.507621900000000e+00  3.48019140e-01  -4.75166110e-01   8.22715690e-01
C     4.934838351300000e+00   2.425268286182342e+00   3.513696000000000e+00 -3.03932515e+00   2.05829718e+00  -2.93035030e-01
C     6.102365486899999e+00   3.135142185976601e+00   3.522596700000000e+00  3.13416612e+00   2.03580215e+00  -1.37607700e-02
C     7.349022425599999e+00   2.407536262409678e+00   3.578799600000000e+00  8.09411570e-01   2.36193851e+00  -6.15324110e-01
C     8.601114492100001e+00   3.165195233360961e+00   3.554527200000000e+00 -6.43781900e-01  -1.03342577e+00  -1.73296840e-01
C     9.831516530600000e+00   2.411350467610885e+00   3.504966600000000e+00 -6.63717660e-01   1.82681062e+00   1.16733880e-01
C     1.105873290170000e+01   3.143132991983785e+00   3.501675600000000e+00  3.84045800e-01  -1.18337084e+00  -1.05665840e-01
C     3.625695486700000e+00   4.601452014251093e+00   3.639867300000000e+00  2.18611266e+00  -1.00168001e+00  -1.64846903e+00
C     4.903976206199999e+00   5.285685229546321e+00   3.490541100000000e+00 -6.95218050e-01   1.56770225e+00   2.52644540e-01
C     6.154594695700000e+00   4.634224907253542e+00   3.448777800000000e+00 -6.86317990e-01  -2.75324731e+00   1.01358414e+00
C     7.390076113199999e+00   5.328353981794042e+00   3.525848700000000e+00 -3.74859990e-01  -5.02634220e-01  -3.78395400e-01
C     8.611819149000000e+00   4.600942320715541e+00   3.522854100000000e+00 -8.04098210e-01  -1.70046357e+00   1.06822860e-01
C     9.835826435200000e+00   5.249511248669688e+00   3.500176500000000e+00  2.02970360e-01   2.05279782e+00   1.23582800e-01
C     1.105768483300000e+01   4.534203293386166e+00   3.485107800000000e+00 -1.45692220e-01   1.54914836e+00   5.54143320e-01
C     1.226663826560000e+01   5.287671061823551e+00   3.559802400000000e+00  3.48027400e-01  -2.19487640e-01  -3.20331800e-02
C     4.921809741700000e+00   6.728432768472615e+00   3.433259400000000e+00 -1.60179885e+00  -6.97461580e-01   5.16856790e-01
C     6.154960698900000e+00   7.407187440033982e+00   3.470767200000000e+00 -8.51421820e-01   1.11396038e+00  -2.02014090e-01
C     7.399670829900000e+00   6.744555444940112e+00   3.518009400000000e+00 -1.54336733e+00  -1.43745193e+00  -6.67487250e-01
C     8.594293689200001e+00   7.409058934960883e+00   3.406695300000000e+00  1.45479783e+00   1.69992166e+00   1.27212109e+00
C     9.803576593699999e+00   6.710445855237124e+00   3.526367700000000e+00  1.78079504e+00  -1.26401607e+00  -7.43455400e-01
C     1.105297929590000e+01   7.407124422136640e+00   3.524272200000000e+00 -1.33553420e-01   1.33925849e+00  -3.12651200e-01
C     1.229322476960000e+01   6.700114591847477e+00   3.514353300000000e+00 -1.11166680e+00   7.88242170e-01   1.03003590e-01
C     1.349316912020000e+01   7.462409818538875e+00   3.465302400000000e+00  2.01393811e+00  -3.44382890e+00   2.42523360e-01
