32
Lattice="9.86 0 0 4.93 8.53901048131456 0 0 0 30 " PBC="1 1 1" Properties=species:S:1:pos:R:3:force:R:3 Energy="-257.59604388"
C     9.856271884700000e+00   2.774058941726072e-01  -1.680968999999983e-01  1.20414447e+00  -2.16674710e-01   1.74963350e-01
C     1.258650396200000e+00   9.862755209443136e-01  -1.232541000000005e-01 -1.49546598e+00   6.15912800e-02  -3.39339050e-01
C     2.453475484100000e+00   2.686293284210536e-01  -1.157226000000016e-01  1.27415688e+00  -2.55674430e-01   5.31157800e-02
C     3.697815766500000e+00   9.964870674070312e-01  -1.051655999999994e-01  1.62082570e-01  -3.23872220e-01   2.68965570e-01
C     4.942556710000000e+00   2.671781235899776e-01  -8.318189999999959e-02 -5.83200620e-01   2.44406790e-01  -3.04340320e-01
C     6.161618022999999e+00   9.707886591971567e-01  -1.297889999999988e-01  9.44211780e-01   4.37430580e-01   1.60286990e-01
C     7.413063027000001e+00   2.737014152560688e-01  -1.448877000000017e-01 -3.13386870e-01  -2.49742510e-01   7.09344800e-02
C     8.641218316600000e+00   9.915457982125696e-01  -1.489119000000017e-01 -4.63059850e-01   2.54332800e-02  -6.30792700e-02
C     1.112186273490000e+01   2.402045251720514e+00  -1.355600999999993e-01 -7.06005310e-01   9.55494020e-01   7.24780010e-01
C     2.485741989000000e+00   3.145331189451651e+00  -5.217179999999999e-02 -8.97394000e-03  -1.17700675e+00  -5.43310610e-01
C     3.727884083000000e+00   2.436229045424574e+00  -7.046279999999783e-02 -7.57595610e-01  -1.50272022e+00  -1.77930500e-01
C     4.972219287500000e+00   3.090056039861991e+00  -9.986849999999947e-02 -1.24962594e+00   1.98524179e+00   1.06942940e-01
C     6.168132032000000e+00   2.398172212737101e+00  -1.360233000000015e-01  1.44733891e+00  -2.09447580e-01   3.58218800e-02
C     7.412233653099999e+00   3.148210458395402e+00  -1.514924999999998e-01 -6.88964500e-01  -2.57235718e+00   2.34224340e-01
C     8.630112357700000e+00   2.416855140716816e+00  -1.230273000000004e-01  4.59689070e-01   2.79135100e-02  -3.18473540e-01
C     9.859279529799998e+00   3.123500355258483e+00  -1.136727000000022e-01  7.66391740e-01  -3.92051540e-01  -1.46482500e-02
C     1.232634056560000e+01   4.540982243026028e+00  -7.633709999999994e-02  1.86003990e-01   7.65852010e-01   1.16024270e-01
C     3.719410053899999e+00   5.259332903913888e+00  -1.356690000000000e-01 -7.26096870e-01  -1.14862390e+00   6.48846320e-01
C     4.946568201700000e+00   4.540619420470733e+00  -9.764430000000246e-02  1.16686470e-01  -5.86677860e-01  -3.21436700e-01
C     6.168365023800000e+00   5.247762971664013e+00  -1.215551999999995e-01  1.66615270e-01  -4.43869740e-01  -1.36145300e-01
C     7.402377104099999e+00   4.519081303556820e+00  -1.446900000000007e-01  3.35950080e-01   2.52052588e+00  -1.58791950e-01
C     8.640493803800000e+00   5.267540173836741e+00  -1.715403000000002e-01 -9.37366930e-01  -2.00498820e-01   6.28703520e-01
C     9.854248119699999e+00   4.551866834294780e+00  -8.215979999999945e-02 -3.47445750e-01  -7.31368700e-01  -3.47906680e-01
C     1.106959354380000e+01   5.231539022532222e+00  -4.428839999999923e-02  2.01959789e+00   7.67704730e-01  -3.04864220e-01
C     1.358011267750000e+01   6.657446266550280e+00  -1.235862000000019e-01  4.99511660e-01   1.27206067e+00  -4.46100950e-01
C     4.956571073100000e+00   7.383004450013993e+00  -1.779633000000018e-01 -9.90531030e-01   2.09962460e-01   3.77043420e-01
C     6.169059069199999e+00   6.661974930758348e+00  -1.456572000000023e-01 -1.51956840e-01   6.20708000e-02  -3.20787100e-02
C     7.377568653900000e+00   7.367784859294860e+00  -1.239078000000013e-01  8.80091790e-01   1.39358624e+00  -2.21153260e-01
C     8.616604157699999e+00   6.698258467139439e+00  -1.415204999999986e-01  1.22774726e+00  -8.94474680e-01   2.25690600e-01
C     9.885355581599999e+00   7.389210175880333e+00  -8.573220000000248e-02 -3.93931120e-01  -5.79050750e-01  -8.03744500e-02
C     1.112987856980000e+01   6.646749875072507e+00  -6.510450000000034e-02 -1.07352998e+00   1.36841677e+00  -1.98041110e-01
C     1.236392797020000e+01   7.388741725765400e+00  -1.191183000000002e-01 -8.03082660e-01  -6.13579240e-01   1.81671390e-01
