32
Lattice="9.86 0 0 4.93 8.53901048131456 0 0 0 30 " PBC="1 1 1" Properties=species:S:1:pos:R:3:force:R:3 Energy="-257.56494852"
C     9.857281499399999e+00   4.289826377140304e-01  -8.854769999999945e-02  1.49463763e+00  -4.49437250e-01   1.16532140e-01
C     1.260372543800000e+00   1.123376336189307e+00  -1.035291000000029e-01 -8.78209140e-01   6.60571000e-03  -1.62132540e-01
C     2.490120223400000e+00   4.107749056675264e-01  -5.290830000000213e-02 -5.76041400e-01  -1.58825020e-01   7.91770600e-02
C     3.711107145100000e+00   1.123255167630596e+00  -3.420689999999738e-02  3.08903910e-01  -2.91371210e-01  -3.03050470e-01
C     4.938520173899999e+00   4.339146847771736e-01  -8.972099999997596e-03  1.37579422e+00  -1.27738727e+00  -2.76549990e-01
C     6.203459278099999e+00   1.109129424153951e+00  -4.601519999999937e-02 -1.07551427e+00   4.35704810e-01   4.17080630e-01
C     7.424314075800000e+00   4.015541405908032e-01  -3.153540000000277e-02 -3.34340850e-01   4.34937000e-02  -4.00914680e-01
C     8.636095405699999e+00   1.133228219530607e+00  -5.314560000000057e-02  4.54873910e-01  -7.70051470e-01  -2.13934090e-01
C     1.111860499090000e+01   2.542604024649489e+00  -1.902566999999991e-01  2.62400430e-01  -1.70454150e-01  -7.30687200e-02
C     2.508351067600000e+00   3.215365762485677e+00  -2.445560999999969e-01 -1.14417158e+00   2.12197105e+00   3.82337800e-01
C     3.712911673000000e+00   2.520970697768723e+00  -1.403067000000000e-01  1.48215473e+00   1.24250177e+00  -4.55613000e-03
C     4.969359887500000e+00   3.273699073288644e+00  -1.135785000000027e-01 -5.77599780e-01  -1.73894883e+00   1.52934940e-01
C     6.200112449000000e+00   2.528544970844693e+00  -3.074070000000262e-02  7.36420500e-02   8.71431220e-01  -3.64741920e-01
C     7.440317595300000e+00   3.241359108117530e+00  -3.489120000000057e-02 -6.79246020e-01   9.73926500e-01   5.05945500e-02
C     8.666855992799999e+00   2.531063125035245e+00  -7.792500000000047e-02 -2.00785300e-01   1.28355998e+00  -2.05148700e-02
C     9.893373437800001e+00   3.265864275002930e+00  -1.714002000000008e-01 -2.91935840e-01  -5.84220940e-01   4.29174390e-01
C     1.233947802960000e+01   4.679390551555720e+00  -2.396078999999993e-01 -1.17345700e-01  -3.24269110e-01   1.55807190e-01
C     3.704843777299999e+00   5.398264653786003e+00  -1.657949999999992e-01  4.80008110e-01  -1.44579790e-01  -1.42766900e-01
C     4.957342075800000e+00   4.677300031010006e+00  -1.246887000000001e-01 -7.30326490e-01   4.35750190e-01   2.12712070e-01
C     6.176270968999999e+00   5.387954737922557e+00  -1.074840000000066e-02 -6.81833900e-02   3.74770730e-01   1.09827000e-02
C     7.404738278299999e+00   4.694786814401684e+00  -1.325099999998969e-03  8.91875730e-01  -7.64675640e-01   2.03084900e-01
C     8.645811498999999e+00   5.416140645275360e+00   3.744600000000000e-02  7.80973600e-02  -8.46178390e-01  -6.22143320e-01
C     9.868889184400000e+00   4.678863182268476e+00  -1.111094999999978e-01 -7.91286900e-02   8.86190480e-01   3.92670700e-02
C     1.108711412290000e+01   5.418931108510120e+00  -1.820133000000013e-01  1.31002577e+00  -2.03035402e+00   1.54287100e-02
C     1.357842168750000e+01   6.834104047843873e+00  -1.212872999999988e-01  5.00490860e-01  -9.63920180e-01  -1.03400800e-01
C     4.956037400600000e+00   7.544278264636714e+00  -8.145509999999945e-02 -5.72741450e-01  -2.12044100e-01   4.66754110e-01
C     6.166165356399999e+00   6.812332559773540e+00   3.929910000000000e-02  1.03098942e+00   5.68483380e-01  -8.91093630e-01
C     7.417051150499999e+00   7.533537470304445e+00  -4.775999999999669e-04  2.08615560e-01  -4.71813350e-01   5.58350870e-01
C     8.683376077700000e+00   6.836461327076982e+00   3.979770000000001e-02 -1.13069860e+00  -2.50610800e-01  -2.77218760e-01
C     9.913601622199998e+00   7.533592376141832e+00  -3.163229999999828e-02 -5.28879480e-01   6.81805640e-01   2.04173890e-01
C     1.114342576610000e+01   6.810235634969968e+00  -1.184781000000008e-01 -1.21897913e+00   8.84923520e-01   1.22739060e-01
C     1.235656890990000e+01   7.519108933516180e+00  -1.148538000000023e-01  2.51617430e-01   6.38022850e-01   2.38954730e-01
