32
Lattice="9.86 0 0 4.93 8.53901048131456 0 0 0 30 " PBC="1 1 1" Properties=species:S:1:pos:R:3:force:R:3 Energy="-256.00645869"
C     9.908641105499999e+00   3.682129764409096e-01  -2.122166999999990e-01 -1.20545071e+00  -7.07584140e-01  -1.66228890e-01
C     1.222619146100000e+00   1.112833305339756e+00  -2.623910999999985e-01  2.08868787e+00  -1.03264507e+00   7.00646790e-01
C     2.474792705500000e+00   4.036167385722472e-01  -2.781471000000018e-01  1.87028952e+00  -4.22546710e-01  -2.19542900e-02
C     3.791631891700000e+00   1.076992345871842e+00  -1.919585999999995e-01 -2.65428756e+00  -4.62476930e-01   4.52751190e-01
C     5.006801561300000e+00   3.214492563273992e-01  -2.382677999999991e-01 -8.46538910e-01   4.12153458e+00  -5.93825670e-01
C     6.248339138700000e+00   1.062178358150510e+00  -3.358634999999985e-01 -1.29481544e+00  -5.83398940e-01   9.03758080e-01
C     7.458757915200000e+00   3.707696415687264e-01  -2.264973000000019e-01 -4.68565200e-01  -2.24224666e+00   3.99995250e-01
C     8.672101808599999e+00   1.028678368405688e+00  -1.624394999999978e-01  1.68803840e-01   2.14713394e+00  -4.42242640e-01
C     1.106157090550000e+01   2.507112652270626e+00  -9.990599999999716e-02  3.23634132e+00   3.83232310e-01   2.59818750e-01
C     2.494075020100000e+00   3.205211085832756e+00   7.631160000000001e-02 -3.65110520e-01  -9.89328830e-01  -5.10747930e-01
C     3.738158597400000e+00   2.483303073178928e+00   3.654660000000000e-02  5.58320000e-02  -3.26194680e-01  -1.06533852e+00
C     4.961412530300000e+00   3.167268505105505e+00  -9.936719999999966e-02  1.03045177e+00   1.60367045e+00  -1.03453820e+00
C     6.196414702500000e+00   2.464627147187806e+00  -3.373790999999997e-01  1.45001220e-01   7.53514070e-01   1.11197811e+00
C     7.453811596900000e+00   3.172581477426161e+00  -2.792984999999994e-01 -1.77023508e+00  -3.58751720e-01  -3.34730750e-01
C     8.639764360999999e+00   2.458320148657172e+00  -1.791737999999974e-01  1.83430094e+00   5.43328830e-01  -4.10633620e-01
C     9.892519118099999e+00   3.211759311409449e+00  -1.434654000000002e-01 -1.68621797e+00   8.11821050e-01   1.06451978e+00
C     1.241202233870000e+01   4.605925431061354e+00   6.662070000000000e-02 -1.11689924e+00   1.87937183e+00  -7.56860610e-01
C     3.793025997100000e+00   5.359476881801442e+00  -8.830379999999849e-02 -1.75721500e+00  -1.42551055e+00   4.44192320e-01
C     4.991026645900000e+00   4.629106112031201e+00  -2.106698999999992e-01 -9.52825200e-02  -6.83619030e-01   9.69348920e-01
C     6.202155983299999e+00   5.347115127109755e+00  -2.747193000000010e-01  1.55268456e+00  -3.93889710e-01  -6.63016850e-01
C     7.453899942500000e+00   4.577194734839928e+00  -3.334812000000014e-01 -1.87344335e+00   1.02774441e+00   6.07585280e-01
C     8.633676106799999e+00   5.284443315862110e+00  -2.653125000000003e-01  2.72095835e+00   2.47338656e+00   2.58435450e-01
C     9.930887336100000e+00   4.658942951670207e+00  -1.797660000000079e-02 -1.94136706e+00  -1.54052609e+00  -1.78500070e+00
C     1.114525504260000e+01   5.345289572059237e+00  -4.604910000000118e-02  8.57045150e-01   1.48262076e+00   1.81396670e-01
C     1.357478896770000e+01   6.764876411300207e+00  -1.181111999999978e-01  1.24095844e+00   2.73706600e-02  -3.18719100e-02
C     4.929471602600000e+00   7.500670562796611e+00  -2.319314999999982e-01  2.31235408e+00  -1.17395698e+00   2.90285420e-01
C     6.233753339300000e+00   6.789027294640792e+00  -2.784282000000005e-01 -3.06785360e+00  -9.88786510e-01  -2.00947490e-01
C     7.430862496200000e+00   7.491376703790179e+00  -3.428541000000003e-01  4.10936680e-01   6.89900470e-01  -2.23432310e-01
C     8.639711462099999e+00   6.730873046887589e+00  -3.910049999999998e-01  6.53099460e-01   1.06004962e+00   1.30286231e+00
C     9.871599008200000e+00   7.522633410091800e+00  -2.675261999999989e-01  2.18446870e-01  -4.51814198e+00  -5.14965400e-01
C     1.112295270860000e+01   6.840557575794342e+00  -1.939649999999986e-01 -7.16685170e-01  -3.94113455e+00   9.07090660e-01
C     1.234882333760000e+01   7.448851406918522e+00  -8.911020000000036e-02  4.63775280e-01   2.78605953e+00  -1.09832923e+00
