32
Lattice="9.86 0 0 4.93 8.53901048131456 0 0 0 30 " PBC="1 1 1" Properties=species:S:1:pos:R:3:force:R:3 Energy="-256.85376151"
C     1.227898387300000e+00   5.582770041881032e-01   3.347380500000000e+00  8.88647920e-01   2.01398914e+00   3.10032010e-01
C     2.474478812400000e+00   1.297008062948998e+00   3.386914800000000e+00  7.48978430e-01  -1.72019778e+00  -2.30269380e-01
C     3.729044506400000e+00   5.196937415045376e-01   3.445323600000000e+00 -5.88777370e-01   3.13845558e+00  -4.29201250e-01
C     4.954027488900000e+00   1.277937122333071e+00   3.379230900000000e+00  3.42300500e-01  -1.64744708e+00   2.33680290e-01
C     6.224047796200000e+00   5.933930870563696e-01   3.387646200000000e+00 -1.60545131e+00  -6.74980990e-01   3.43512500e-01
C     7.463607704100000e+00   1.264451804642426e+00   3.451249800000000e+00 -1.10739491e+00   7.59039000e-01   3.50751120e-01
C     8.664057675499999e+00   5.833740098898712e-01   3.540015600000000e+00  9.02673270e-01  -1.57801157e+00  -1.55384688e+00
C     9.852180280500001e+00   1.295726784426474e+00   3.343241700000000e+00  2.00270687e+00   5.85085220e-01   8.63774240e-01
C     2.519005783600000e+00   2.708484464645960e+00   3.324173700000000e+00  3.04848720e-01  -3.01976840e-01   1.19769510e-01
C     3.774088782500000e+00   3.405801322578855e+00   3.304788300000000e+00 -2.07464570e+00   5.03214750e-01   5.60538740e-01
C     4.953533749400000e+00   2.664349051958193e+00   3.373458900000000e+00  1.34657855e+00   1.53667052e+00   2.92393720e-01
C     6.213762780900000e+00   3.372273239489555e+00   3.504587400000000e+00 -1.44521120e-01   1.79204800e-01  -1.29634579e+00
C     7.461459407300000e+00   2.680373785975485e+00   3.465989700000000e+00 -3.00497950e-01   8.31206910e-01   4.17377340e-01
C     8.664830650199999e+00   3.446557763429581e+00   3.461543700000000e+00  8.99865660e-01  -9.34174120e-01  -1.17491875e+00
C     9.935884926400000e+00   2.749218789459542e+00   3.341275800000000e+00 -2.39079633e+00  -1.59134001e+00   6.42222740e-01
C     1.115243770750000e+01   3.413331534360748e+00   3.356883600000000e+00  5.60215720e-01   1.20091968e+00  -9.59677940e-01
C     3.722376533499999e+00   4.849416510360022e+00   3.359514900000000e+00 -4.05445700e-01  -1.59401349e+00  -4.50493890e-01
C     4.937673890099999e+00   5.490015638272766e+00   3.375456300000000e+00  2.72473101e+00   2.51749259e+00   2.05639100e-01
C     6.203962581799999e+00   4.791857517027380e+00   3.423905400000000e+00  7.82416700e-02   7.82069630e-01   8.62617640e-01
C     7.446237785799999e+00   5.569336129033476e+00   3.526055100000000e+00 -1.47711959e+00  -8.02816610e-01  -1.27207899e+00
C     8.664281152399999e+00   4.855896680023189e+00   3.358140600000000e+00  1.38298970e-01   3.62964600e-02   1.67482206e+00
C     9.917850148299999e+00   5.536625143857007e+00   3.380284200000000e+00 -7.22881450e-01   9.89826430e-01  -2.70352740e-01
C     1.115045160770000e+01   4.849639720093968e+00   3.292523400000000e+00 -6.78674610e-01  -4.70334390e-01   6.98689550e-01
C     1.235042282680000e+01   5.565921378742524e+00   3.331628400000000e+00  1.05116434e+00   8.44958530e-01   1.27487280e-01
C     5.008795844900000e+00   6.956809457661263e+00   3.385566000000000e+00 -1.12501109e+00  -8.38398640e-01   2.71214960e-01
C     6.219036401900000e+00   7.703618676506553e+00   3.411507600000000e+00 -1.39653281e+00  -1.04094468e+00   8.35156500e-02
C     7.411501548100000e+00   6.994103244372244e+00   3.505907100000000e+00  1.14657015e+00  -9.48994160e-01  -2.90403100e-02
C     8.649891369799999e+00   7.679402982076425e+00   3.508011300000000e+00 -3.84970700e-02  -8.77624110e-01  -1.59083800e-01
C     9.869229600899999e+00   6.968273762351502e+00   3.466675500000000e+00  1.54007919e+00  -3.81570500e-02  -5.53026770e-01
C     1.109926741100000e+01   7.714659360886878e+00   3.391615800000000e+00  1.61368763e+00  -7.69287230e-01   4.02536570e-01
C     1.239148321920000e+01   7.011206967753789e+00   3.393189000000000e+00 -1.66018224e+00  -1.24853836e+00  -7.94017600e-02
C     1.364064967580000e+01   7.667070772361000e+00   3.451306200000000e+00 -5.73159350e-01   1.15880786e+00  -2.83676000e-03
