32
Lattice="9.86 0 0 4.93 8.53901048131456 0 0 0 30 " PBC="1 1 1" Properties=species:S:1:pos:R:3:force:R:3 Energy="-256.80704296"
C     9.854935016600001e+00   4.836302554235152e-01   1.776633000000000e-01 -1.03500940e-01  -8.91253080e-01  -1.04626899e+00
C     1.232798610100000e+00   1.144909244306828e+00   8.526270000000000e-02  1.86387160e-01   1.09734118e+00   6.19209170e-01
C     2.501469921500000e+00   4.608252055246840e-01   1.361070000000000e-01 -1.89468536e+00   2.52397200e-01  -9.00715420e-01
C     3.711260616000000e+00   1.182312586522267e+00   2.889630000000000e-02  8.66092720e-01  -1.11522267e+00   3.86082080e-01
C     4.965866834599999e+00   4.568812927542864e-01   2.731680000000000e-02  2.46867060e-01   2.12626811e+00   7.67521100e-02
C     6.222634513099999e+00   1.180328888997658e+00   8.853900000000001e-02 -1.45448984e+00  -5.85250000e-01  -5.48335670e-01
C     7.460086155800000e+00   5.006233986193440e-01   1.217889000000000e-01 -2.92496799e+00  -2.47977910e+00  -4.94861470e-01
C     8.619235890300001e+00   1.210825111025930e+00   9.087239999999999e-02  2.38618760e+00  -1.25400847e+00   7.33399120e-01
C     1.103042070050000e+01   2.568762941694550e+00   2.910990000000000e-02  1.99592065e+00   1.15457517e+00   1.08758900e-02
C     2.454416867600000e+00   3.282603297246873e+00   3.221400000000000e-03 -1.06437190e+00   2.44524040e-01  -6.19980800e-02
C     3.710699187600000e+00   2.592254186475554e+00   2.055000000000000e-04 -1.44776589e+00   8.64766800e-02   2.15687910e-01
C     4.906381208100000e+00   3.295501216406600e+00   2.235300000000000e-02  2.39489680e+00   1.11652439e+00   6.29582800e-02
C     6.176059669200000e+00   2.577597828887682e+00   3.018300000000000e-02 -1.07675943e+00   8.80548160e-01   5.07499370e-01
C     7.394555905600000e+00   3.279588514206805e+00   7.785330000000000e-02 -9.17839330e-01   1.66509711e+00   1.07279000e-02
C     8.600238776199999e+00   2.583976128155823e+00   7.459050000000000e-02  1.13624727e+00   2.32390721e+00  -4.42592900e-02
C     9.822612901299999e+00   3.337329900803298e+00   3.535290000000000e-02  7.73158770e-01  -7.36131720e-01  -1.53536920e-01
C     1.229830400070000e+01   4.709870293293766e+00  -1.241909999999891e-02  2.04887121e+00   1.71611160e-01  -5.85781100e-02
C     3.724294845800000e+00   5.454228047620353e+00   2.021670000000000e-02 -1.99047710e+00  -9.14415350e-01   1.42328020e-01
C     4.960846073300001e+00   4.751921675083784e+00   6.429450000000000e-02 -1.62127594e+00  -1.08047550e+00  -5.40889570e-01
C     6.164092833700000e+00   5.472190795456185e+00   4.521510000000000e-02  7.36516960e-01  -1.01677894e+00   1.41795880e-01
C     7.385602236800000e+00   4.719648911925147e+00   1.092897000000000e-01  6.90636100e-01   6.91031760e-01  -6.98163670e-01
C     8.622973569799999e+00   5.457583366398364e+00   4.415460000000000e-02 -3.58049550e-01   9.11370570e-01  -5.49442300e-02
C     9.881210437600000e+00   4.779694550499669e+00  -2.324370000000187e-02 -2.58542725e+00  -2.17535699e+00   3.65955750e-01
C     1.108340705870000e+01   5.431294058663273e+00  -4.955189999999732e-02  1.47601239e+00   1.53207025e+00   1.12603940e-01
C     1.350602409520000e+01   6.871611395206958e+00   7.058639999999999e-02  3.13238001e+00  -4.12423370e-01  -8.41228600e-02
C     4.901560801999999e+00   7.604298798520423e+00   1.055199000000000e-01 -1.43127000e-01  -6.79586150e-01  -1.87898610e-01
C     6.147728438200000e+00   6.887395585299029e+00  -3.924599999997724e-03 -1.75114222e+00  -2.38354110e-01   1.15911511e+00
C     7.340832660300000e+00   7.573172653689042e+00   8.858400000000001e-02  2.59042705e+00   1.51377657e+00  -2.20557670e-01
C     8.582678806400001e+00   6.911350071398573e+00   3.837540000000000e-02  2.11551262e+00  -1.46161076e+00  -2.10387800e-01
C     9.899246645399998e+00   7.626479049022433e+00  -2.383050000000253e-02 -2.22273552e+00  -2.75289204e+00   4.47744360e-01
C     1.110675134820000e+01   6.866161457158203e+00  -3.002610000000061e-02 -4.51010270e-01   4.33053620e-01   1.45406750e-01
C     1.232795923250000e+01   7.572178542088960e+00   5.341590000000000e-02 -7.68488840e-01   1.59296506e+00   1.67376740e-01
