32
Lattice="9.86 0 0 4.93 8.53901048131456 0 0 0 30 " PBC="1 1 1" Properties=species:S:1:pos:R:3:force:R:3 Energy="-255.90809011"
C     9.864854669600000e+00   4.222504818515984e-01   1.332234000000000e-01  3.55064850e-01   1.38837860e-01  -1.09471736e+00
C     1.235501285400000e+00   1.125904395632016e+00  -6.920819999999850e-02  3.40112520e-01   2.19091290e-01   1.51784219e+00
C     2.510141446400000e+00   4.528360219294912e-01   7.470059999999999e-02 -1.22590999e+00  -1.06607293e+00  -7.69595780e-01
C     3.743516225600000e+00   1.145021361514430e+00  -8.343569999999900e-02 -5.68160850e-01  -4.54823470e-01   9.87633510e-01
C     4.968343124300000e+00   4.460255633409576e-01   5.505510000000000e-02  8.56073280e-01   6.35392160e-01   2.70255490e-01
C     6.242454444200000e+00   1.198442435758568e+00   1.728624000000000e-01 -2.51223284e+00  -6.16725780e-01  -1.47883538e+00
C     7.451676364600000e+00   4.774819970977056e-01   8.196000000000001e-02 -3.02180244e+00  -2.95216919e+00  -7.41322900e-02
C     8.621606086400000e+00   1.140824267083301e+00   2.738040000000000e-02  2.67634449e+00   7.30690100e-01   8.74780080e-01
C     1.105103391790000e+01   2.556763241047215e+00  -1.440917999999982e-01  2.30139693e+00  -3.26321900e-01  -1.13327522e+00
C     2.485648614800000e+00   3.243007393310485e+00  -3.325748999999973e-01 -1.66105501e+00   1.37178339e+00   8.34399220e-01
C     3.703899337200000e+00   2.547030391512006e+00  -2.009126999999999e-01  3.30842020e-01   6.77004680e-01  -3.55974700e-02
C     4.903222409200000e+00   3.287640630309235e+00  -7.873230000000220e-02  1.97954657e+00   7.26298030e-01   2.21254430e-01
C     6.171716437800000e+00   2.631051863712272e+00   8.033970000000000e-02  1.50791310e-01  -1.82172130e+00   3.00874450e-01
C     7.438039047899998e+00   3.297160687703282e+00   1.084380000000000e-01 -3.14052587e+00  -2.68708270e-01  -4.13830000e-04
C     8.600930504499999e+00   2.550729063901418e+00   4.298430000000000e-02  2.37396523e+00   1.27881471e+00  -3.05088890e-01
C     9.855460012300000e+00   3.278331486474044e+00  -9.616709999999884e-02  5.34027900e-02  -2.37147750e-01   2.17220170e-01
C     1.236015001260000e+01   4.699318552653525e+00  -3.613212000000026e-01 -1.54567700e-02   2.76309710e-01   1.18703220e-01
C     3.771249743400000e+00   5.455768655891154e+00  -2.325869999999988e-01 -2.37850135e+00  -1.87617829e+00   9.51313700e-02
C     4.978818881300000e+00   4.723214546531281e+00  -5.665439999999933e-02 -1.79970285e+00  -1.99217790e-01  -3.89842310e-01
C     6.173486110600000e+00   5.443208796156331e+00   1.191156000000000e-01  4.51971400e-01  -1.71108833e+00  -2.24859510e-01
C     7.367116758099999e+00   4.695915671587140e+00   1.606671000000000e-01  2.47771704e+00  -1.04637300e-02  -5.19630810e-01
C     8.630952824100000e+00   5.326351840006797e+00   7.075740000000000e-02  7.05678160e-01   3.35105304e+00   2.04408050e-01
C     9.932529666999999e+00   4.711434042282968e+00  -1.253084999999992e-01 -4.02414285e+00  -1.71411343e+00   2.27838980e-01
C     1.107610296790000e+01   5.428908259135160e+00  -3.198614999999982e-01  3.48058705e+00   6.70552330e-01   5.65394180e-01
C     1.353775554720000e+01   6.846995818916053e+00  -7.919580000000082e-02  1.82212555e+00   2.70632860e-01   4.99832450e-01
C     4.925555062700000e+00   7.544250512852654e+00   1.709364000000000e-01  1.26884360e-01  -2.16407260e-01  -1.33974825e+00
C     6.197564772900000e+00   6.826723610305799e+00   1.102731000000000e-01 -2.31520163e+00   1.72386629e+00   1.28075636e+00
C     7.390944828499999e+00   7.542469616826945e+00   2.221368000000000e-01  1.68349656e+00   4.37163870e-01  -8.89685930e-01
C     8.607246771200000e+00   6.778089761507064e+00   1.507500000000000e-01  1.62050398e+00   1.32996571e+00  -5.68900080e-01
C     9.866785750599998e+00   7.572594818849860e+00   2.784900000000000e-02 -4.01026150e-01  -1.61882616e+00  -4.76956600e-02
C     1.111483344230000e+01   6.876919500291641e+00  -1.765130999999975e-01 -2.41291861e+00  -1.56699074e+00   3.55460080e-01
C     1.231017539140000e+01   7.531569826119539e+00  -8.068920000000190e-02  1.69013315e+00   2.81952028e+00   3.00234550e-01
