32
Lattice="9.86 0 0 4.93 8.53901048131456 0 0 0 30 " PBC="1 1 1" Properties=species:S:1:pos:R:3:force:R:3 Energy="-256.79150338"
C     1.178625255800000e+00   7.715019877909345e-01   3.595093800000000e+00  2.21697715e+00  -7.71231200e-02  -2.16558550e-01
C     2.445907046699999e+00   1.498462532945778e+00   3.595279200000000e+00 -1.09312481e+00  -6.43890250e-01  -3.99240000e-01
C     3.635629781800000e+00   7.291768453249280e-01   3.507200700000000e+00  2.36013169e+00   2.02982262e+00   4.39120670e-01
C     4.960611454600000e+00   1.418816876665989e+00   3.564330900000000e+00 -1.88728627e+00   2.10945610e-01  -5.06387180e-01
C     6.223979170599999e+00   7.555687065758832e-01   3.540395700000000e+00 -3.06911156e+00  -4.03784560e-01   4.37855480e-01
C     7.395418902099999e+00   1.503935184762410e+00   3.566556300000000e+00  1.16366223e+00  -1.89982075e+00  -9.10112860e-01
C     8.614651187499998e+00   7.298130869957928e-01   3.489865800000000e+00  3.20574420e-01   2.33330989e+00   4.31920370e-01
C     9.840716748699998e+00   1.485753069747346e+00   3.528620100000000e+00 -4.38710320e-01  -8.48493310e-01   2.87205680e-01
C     2.457942852900000e+00   2.936517458662788e+00   3.577323600000000e+00 -1.26859592e+00  -1.24677021e+00  -7.09065100e-02
C     3.670967282300000e+00   3.593914015651159e+00   3.545473200000000e+00  1.82049608e+00  -1.61524546e+00   4.19985390e-01
C     4.926641684000000e+00   2.828044786123357e+00   3.558839100000000e+00 -8.26618980e-01   1.33172791e+00  -3.06980840e-01
C     6.124065079099999e+00   3.576367203015807e+00   3.502683900000000e+00  7.18080330e-01   1.18047569e+00   7.90520280e-01
C     7.370299812600000e+00   2.901927720400509e+00   3.497686800000000e+00  2.82327730e-01   1.49227040e-01   1.89337380e-01
C     8.613625599599999e+00   3.585998609106514e+00   3.492141000000000e+00  4.31714810e-01   5.91500500e-01   9.37434990e-01
C     9.856763060599999e+00   2.898090459871006e+00   3.574156800000000e+00 -9.37790600e-02   7.96052470e-01  -8.50966680e-01
C     1.108711456660000e+01   3.672253374107719e+00   3.548910600000000e+00 -6.78112600e-01  -2.24090422e+00   5.78648620e-01
C     3.676709844900000e+00   4.970017395654511e+00   3.591447000000000e+00  1.07060164e+00   2.25741423e+00  -1.51109750e-01
C     4.922460550999999e+00   5.706021777588933e+00   3.535764900000000e+00 -7.83315350e-01   1.41614361e+00   2.74868940e-01
C     6.132894955599999e+00   5.039524855571607e+00   3.582498900000000e+00  1.78669428e+00  -1.49836304e+00  -1.09931816e+00
C     7.411069433599999e+00   5.752211846978397e+00   3.503115300000000e+00 -1.26753295e+00  -1.20419853e+00   8.27016820e-01
C     8.648344533000000e+00   5.002462988385263e+00   3.592686900000000e+00 -2.30168566e+00   4.05016700e-01  -1.35842770e+00
C     9.825845896699999e+00   5.727777383099772e+00   3.556944000000000e+00  8.59912170e-01   1.65902069e+00   4.07354190e-01
C     1.106401357260000e+01   5.070592678961409e+00   3.581969700000000e+00  1.48956412e+00  -5.74316260e-01   3.35263360e-01
C     1.234469027210000e+01   5.709784663337154e+00   3.666877800000000e+00 -1.51482455e+00   2.23108746e+00  -1.12373185e+00
C     4.943422615200000e+00   7.156294831841356e+00   3.498402000000000e+00 -1.22669739e+00  -9.65689270e-01   5.34477740e-01
C     6.149292529999999e+00   7.871176690501924e+00   3.584125500000000e+00 -4.27566110e-01   6.05914500e-01  -8.28618670e-01
C     7.371577027699999e+00   7.168783390838669e+00   3.491596500000000e+00 -2.63938400e-02  -6.90799670e-01   1.72687790e-01
C     8.574493773899999e+00   7.880577372529461e+00   3.443388900000000e+00  8.81977290e-01  -7.95424980e-01   8.64762610e-01
C     9.803552288799999e+00   7.157810335421345e+00   3.555537600000000e+00  1.00293833e+00   6.49441990e-01  -4.63006000e-01
C     1.106600129930000e+01   7.876459861676006e+00   3.579723000000000e+00  1.00064124e+00  -7.76951840e-01  -3.00863620e-01
C     1.232958938630000e+01   7.190129550796993e+00   3.572666700000000e+00 -8.22014420e-01  -2.56646035e+00   3.84114610e-01
C     1.355602164090000e+01   7.865251898080377e+00   3.488952000000000e+00  3.19076260e-01   2.01134910e-01   2.73653440e-01
