32
Lattice="9.86 0 0 4.93 8.53901048131456 0 0 0 30 " PBC="1 1 1" Properties=species:S:1:pos:R:3:force:R:3 Energy="-256.6958598"
C     4.943632929000000e+00   8.461204211967708e+00  -1.945619999999977e-01 -5.70369750e-01   2.41581465e+00   7.87401710e-01
C     1.245647866300000e+00   6.237534534279048e-01  -1.736630999999988e-01  5.30968250e-01   1.88751563e+00  -1.37590700e-02
C     7.429159279800000e+00   8.496725983223879e+00  -1.834764000000000e-01 -1.92566203e+00  -2.59154204e+00   7.65454020e-01
C     3.677043112899999e+00   6.268742909781352e-01  -5.256750000000210e-02  2.35676424e+00   3.08828547e+00  -1.70736700e+00
C     9.858456910000001e+00   8.485363975879190e+00  -1.790430000000001e-01  2.96501750e-01  -1.54338220e-01   4.10686040e-01
C     6.159419834600000e+00   6.845026210758736e-01  -2.276627999999974e-01 -2.67412130e-01  -1.72959844e+00   1.28627345e+00
C     1.231411727150000e+01   8.528674605544694e+00  -6.482009999999860e-02  4.44399310e-01  -1.52991103e+00  -1.41277657e+00
C     8.618419876699999e+00   6.753739919222297e-01  -8.962170000000214e-02  1.04094745e+00  -1.24064950e-01  -9.44917070e-01
C     1.276278449300000e+00   2.084785831665337e+00  -1.320824999999992e-01 -1.16139676e+00  -6.75793710e-01   8.60171900e-02
C     2.477167782300000e+00   2.850781011597719e+00  -1.317050999999978e-01  5.14365290e-01  -3.41682753e+00  -1.25955500e-02
C     3.707554537800000e+00   2.122220938999761e+00  -1.395039000000011e-01 -3.77600030e-01  -2.14627415e+00   6.22657130e-01
C     4.936172951600000e+00   2.784158029420768e+00  -1.428338999999994e-01 -2.15270970e-01   1.49455308e+00  -1.50204800e-02
C     6.168745126799999e+00   2.056700257685673e+00  -1.772039999999997e-01  9.85791900e-02   2.83557780e+00   1.07381190e-01
C     7.399557587800000e+00   2.802126839954041e+00  -1.311885000000004e-01  5.34672050e-01   7.04303770e-01  -5.16641130e-01
C     8.647271617099999e+00   2.109505925444518e+00  -1.838012999999989e-01 -3.97648220e-01  -1.04255409e+00   1.21268250e+00
C     9.894487026199998e+00   2.782807328743042e+00  -1.015389000000013e-01 -2.62920610e-01   9.86569710e-01  -8.99807510e-01
C     2.467250495700000e+00   4.206458053851653e+00  -1.392863999999996e-01  1.27416420e-01   2.87007953e+00   2.45974530e-01
C     3.693514292200000e+00   4.962051096607405e+00  -1.218633000000011e-01 -6.59398740e-01  -4.10591610e-01  -5.67416280e-01
C     4.893648250600000e+00   4.254969453240106e+00  -1.152486000000010e-01  2.02285352e+00  -1.89843687e+00  -5.66556300e-01
C     6.151456750700000e+00   4.925563819436260e+00  -1.893764999999981e-01  4.44917580e-01   1.26146706e+00   1.39944006e+00
C     7.416693873400000e+00   4.258187977070227e+00  -1.371050999999994e-01 -7.29618800e-01  -1.13802449e+00  -2.82789570e-01
C     8.656587443699999e+00   4.989189694324836e+00  -1.499540999999986e-01 -4.02038980e-01  -3.35668848e+00  -3.08928160e-01
C     9.877660837600001e+00   4.225500303392368e+00  -1.569369000000016e-01 -4.04040600e-01  -3.06674550e-01   5.31668790e-01
C     1.109799108330000e+01   4.911880567482688e+00  -1.305897000000016e-01  6.09965740e-01   9.31268910e-01  -9.54319100e-02
C     3.702232602800000e+00   6.374806642074270e+00  -2.302169999999997e-01  8.30174470e-01   2.21666710e-01   1.17043888e+00
C     4.971694834100000e+00   7.086589779221753e+00  -1.600175999999998e-01 -1.54867746e+00  -1.67298309e+00  -6.90624200e-02
C     6.182418629700000e+00   6.370040764155068e+00  -6.287730000000025e-02  6.36811740e-01  -1.20540581e+00  -1.60514889e+00
C     7.445540190800000e+00   7.029390961351159e+00  -1.543652999999985e-01 -1.68087279e+00   2.28588546e+00  -9.94687300e-02
C     8.654505455399999e+00   6.358119195453625e+00  -2.274107999999977e-01  1.26332194e+00   8.41536430e-01   9.22841840e-01
C     9.906196910100000e+00   7.056883757223300e+00  -1.652859000000007e-01 -6.90279210e-01   6.87921790e-01  -1.68412210e-01
C     1.113293733900000e+01   6.348613056646661e+00  -1.036751999999979e-01 -1.00076549e+00  -4.13341190e-01  -7.52386410e-01
C     1.233359969480000e+01   7.068858780130348e+00  -1.607687999999996e-01  5.41313650e-01   1.30060426e+00   4.89567910e-01
