32
Lattice="9.86 0 0 4.93 8.53901048131456 0 0 0 30 " PBC="1 1 1" Properties=species:S:1:pos:R:3:force:R:3 Energy="-257.18100085"
C     9.915188983600000e+00   2.878411627099008e-01  -1.652073000000023e-01 -2.59049880e+00  -1.22936180e-01   6.12427100e-02
C     1.235983291500000e+00   1.007705790155865e+00  -1.047806999999992e-01  1.84095286e+00  -8.83726500e-02  -3.69424960e-01
C     2.487533945400000e+00   2.591393283438960e-01  -1.200755999999998e-01 -9.95869910e-01   8.54472760e-01  -1.68613100e-02
C     3.708599106200000e+00   9.594203329847135e-01  -1.220895000000013e-01  1.17426580e-01   1.02861217e+00   5.92168460e-01
C     4.927727910900000e+00   2.426621975513736e-01  -5.927430000000200e-02  2.23765640e-01   7.15804350e-01  -9.74818990e-01
C     6.162563005399999e+00   9.590249767994896e-01  -1.815671999999999e-01  1.46022560e-01  -6.77647340e-01   1.19506267e+00
C     7.402382280599999e+00   2.400541275804672e-01  -1.304219999999994e-01  5.94065870e-01   4.30391640e-01  -2.77522540e-01
C     8.643636037899999e+00   9.893011485276920e-01  -1.532739000000021e-01  1.36850260e-01  -4.68424990e-01   1.21106500e-02
C     1.110297925730000e+01   2.446790520536763e+00  -9.299220000000119e-02  2.83564510e-01  -1.43555994e+00   9.49739410e-01
C     2.476464419200000e+00   3.116322633829205e+00   3.778320000000000e-02  1.76080290e-01   1.59249820e-01  -1.01791605e+00
C     3.704075929800000e+00   2.406902155491434e+00  -5.812140000000099e-02 -3.38280400e-02  -3.50064680e-01   2.04349570e-01
C     4.919775574400000e+00   3.143760182303541e+00  -6.058739999999929e-02  9.91709150e-01  -2.29583950e+00  -3.00528380e-01
C     6.162389173599999e+00   2.372939778329120e+00  -1.336253999999997e-01 -1.04016181e+00   8.66682600e-01  -6.91402000e-03
C     7.369333335400000e+00   3.070907052690277e+00  -1.331811000000016e-01  2.09913298e+00   2.57151728e+00  -2.45578950e-01
C     8.639913197699999e+00   2.418121817531420e+00  -1.315770000000001e-01 -2.49542040e-01  -7.69741140e-01   3.13080200e-02
C     9.889815161000000e+00   3.143627486080681e+00  -6.713309999999950e-02 -1.71941160e+00   3.71113000e-03  -2.43744580e-01
C     1.234597276230000e+01   4.537917335994442e+00   6.005700000000000e-03 -1.75471880e-01  -3.33643350e-01  -1.70180400e-02
C     3.710877998700000e+00   5.211714258071121e+00  -1.078122000000015e-01  6.38736220e-01   1.82071219e+00   7.88732260e-01
C     4.945426758800000e+00   4.536480647481183e+00  -7.090439999999987e-02  4.13601180e-01   9.13953500e-02  -4.41612530e-01
C     6.188994855299999e+00   5.243479889397349e+00  -1.448666999999979e-01 -3.99645710e-01   8.34931590e-01   2.97372060e-01
C     7.433042837999999e+00   4.568385635458445e+00  -1.755597000000009e-01 -2.17235102e+00  -2.55041209e+00   1.07599210e-01
C     8.625155144099999e+00   5.276134773274966e+00  -2.071658999999997e-01  1.34073677e+00  -1.12665597e+00   7.84984200e-01
C     9.854245063099999e+00   4.556583442123513e+00  -3.431039999999896e-02  1.33857644e+00   3.19568570e-01  -6.20675810e-01
C     1.113008459450000e+01   5.252246208336327e+00   1.137300000000000e-03 -2.19366613e+00   4.44058070e-01  -2.60505980e-01
C     1.358531210200000e+01   6.649334121204174e+00  -1.127660999999982e-01 -7.47994640e-01   1.73378170e-01  -3.31126910e-01
C     4.937876069400000e+00   7.406746058582271e+00  -1.936431000000027e-01  5.79923920e-01  -9.99416090e-01   8.74205030e-01
C     6.165298021500000e+00   6.678425932178801e+00  -1.146438000000032e-01  3.22643510e-01  -1.50715860e-01  -9.10929980e-01
C     7.411240110200000e+00   7.382710110322747e+00  -1.518297000000004e-01 -7.92725320e-01  -6.05152000e-03  -8.44885200e-02
C     8.629132815999998e+00   6.668895115631549e+00  -2.033415000000005e-01 -2.18648460e-01   7.38915780e-01   7.29557240e-01
C     9.841742977500001e+00   7.372713746924125e+00  -6.790589999999952e-02  3.77287450e-01   3.15907060e-01  -4.69327190e-01
C     1.106628413340000e+01   6.689604777748693e+00  -5.529930000000149e-02  1.80605306e+00  -1.73444732e+00   2.86718590e-01
C     1.233423093200000e+01   7.334781669179764e+00  -7.272060000000025e-02 -9.73139100e-02   1.74062007e+00  -3.26155320e-01
