32
Lattice="9.86 0 0 4.93 8.53901048131456 0 0 0 30 " PBC="1 1 1" Properties=species:S:1:pos:R:3:force:R:3 Energy="-256.58750744"
C     9.847535579599999e+00   5.074262574885504e-01  -1.992942000000006e-01 -6.88834790e-01   6.81905190e-01   4.64940910e-01
C     1.208945298100000e+00   1.266930679384770e+00  -5.404859999999800e-02 -7.09152620e-01  -9.31386840e-01   8.83409600e-02
C     2.441321259300000e+00   5.614651291409161e-01  -6.747990000000215e-02 -6.55978350e-01  -2.18457356e+00  -4.15355050e-01
C     3.648964692299999e+00   1.230305838754793e+00   3.025170000000000e-02  1.41960934e+00   6.88568920e-01  -1.29168810e-01
C     4.906619080600000e+00   5.330981093758320e-01  -1.162799999999464e-03  1.57622220e-01   5.48316720e-01  -3.90611700e-02
C     6.156928705599999e+00   1.276858730699552e+00  -9.726240000000175e-02 -2.48937520e-01  -1.63570591e+00   6.08461190e-01
C     7.382815357099999e+00   5.134127015657640e-01  -1.124003999999985e-01 -1.36079395e+00  -9.48564240e-01   1.50218270e-01
C     8.565583538400000e+00   1.235265039871262e+00  -1.787604000000016e-01  2.65121759e+00  -5.82606100e-02   8.63723400e-02
C     1.105796337800000e+01   2.667602414951074e+00   1.895799000000000e-01  3.54458000e-02   2.91631800e-01  -1.34617442e+00
C     2.450594885100000e+00   3.358020947877596e+00   2.231802000000000e-01 -1.04778579e+00   1.27092096e+00   1.16275336e+00
C     3.651808907900000e+00   2.654285059596571e+00   1.221420000000000e-01  1.05248914e+00  -5.80771180e-01  -6.05525700e-02
C     4.889410422600000e+00   3.344151289325247e+00   6.819690000000000e-02  1.15105539e+00   1.17940000e+00  -1.08728840e-01
C     6.173987590199999e+00   2.700777836907550e+00  -6.708029999999710e-02 -1.92017859e+00  -1.38731963e+00  -1.87775570e-01
C     7.374683617900001e+00   3.415382604678044e+00  -1.418180999999983e-01  1.16548610e-01  -1.47651309e+00   8.28020400e-02
C     8.593865370800000e+00   2.663965479607432e+00  -1.334856000000002e-01  8.73262680e-01   1.23276017e+00   2.70668910e-01
C     9.848228786899998e+00   3.417908102417609e+00   5.404290000000000e-02 -8.58452160e-01  -2.24784703e+00   5.92154250e-01
C     1.230735444540000e+01   4.792050157103810e+00   4.090986000000000e-01 -1.05803050e-01   1.35846020e-01  -1.49432594e+00
C     3.701556404000000e+00   5.509024244112188e+00   2.285133000000000e-01 -1.32236012e+00  -2.03186447e+00   3.79998000e-03
C     4.913179382299999e+00   4.773456547173714e+00   7.828620000000000e-02 -2.24474310e-01   4.57050100e-01  -4.37446400e-02
C     6.130102307800000e+00   5.515786798851930e+00  -1.002608999999985e-01 -5.16990350e-01  -7.10814740e-01  -5.39425600e-02
C     7.328678583399999e+00   4.804598916125007e+00  -1.550538000000010e-01  2.56430956e+00   4.82082140e-01   5.88916160e-01
C     8.609549524900000e+00   5.474632269332626e+00  -2.728319999999940e-02 -1.36641923e+00   1.33636054e+00  -2.02659800e-02
C     9.840775267800000e+00   4.817580773757752e+00   2.048622000000000e-01 -1.35222469e+00  -9.06426870e-01  -9.49573330e-01
C     1.103579504140000e+01   5.520101902407893e+00   3.188514000000000e-01  2.25824712e+00  -1.01836790e+00   2.83026070e-01
C     1.351359672310000e+01   6.876630710957206e+00   2.069970000000000e-02  2.91426362e+00   1.65454524e+00  -1.62124490e-01
C     4.931798316100000e+00   7.611286697746732e+00  -1.823067000000016e-01 -1.72502972e+00   7.92927320e-01   4.57807820e-01
C     6.154517787700000e+00   6.926486748325945e+00  -1.781217000000019e-01 -3.70011590e-01  -9.84793000e-03  -1.47154620e-01
C     7.380990616200000e+00   7.632588540240664e+00  -2.080800000000025e-01 -6.29017110e-01   1.18007445e+00   8.89313600e-01
C     8.564967337699999e+00   6.898509705169483e+00  -5.261460000000184e-02  2.29691676e+00   1.10642979e+00   1.94737870e-01
C     9.824805568099999e+00   7.658426475881782e+00   7.458900000000000e-02  1.32316400e-02  -1.37694164e+00  -4.31524290e-01
C     1.106274947130000e+01   6.899657006617575e+00   1.728237000000000e-01 -9.02455800e-02   2.13373518e+00  -2.58716800e-02
C     1.233195218740000e+01   7.577661696888483e+00   5.113800000000000e-02 -2.31152994e+00   2.33265112e+00  -3.08969740e-01
