32
Lattice="9.86 0 0 4.93 8.53901048131456 0 0 0 30 " PBC="1 1 1" Properties=species:S:1:pos:R:3:force:R:3 Energy="-256.99712589"
C     1.251455504900000e+00   7.681011560870648e-01   3.470555100000000e+00  3.33423920e-01   1.11066118e+00  -8.57174900e-02
C     2.483155563100000e+00   1.503885146160998e+00   3.544395900000000e+00  5.84456710e-01  -2.41753210e-01  -6.76568300e-02
C     3.732338239400000e+00   7.599244558217312e-01   3.516846900000000e+00 -1.16820780e-01   2.06208022e+00  -5.91944300e-02
C     4.995277439800000e+00   1.481723596091939e+00   3.550226700000000e+00 -2.47297194e+00   1.23036413e+00  -1.00566110e-01
C     6.211549556000000e+00   8.045081665596976e-01   3.520775700000000e+00 -4.12930280e-01  -2.79914430e-01  -4.54513560e-01
C     7.429222926100000e+00   1.516524418693284e+00   3.427133100000000e+00 -9.24638660e-01   5.68942150e-01   2.81954420e-01
C     8.619436984999998e+00   8.217605541136992e-01   3.454100400000000e+00  1.85874229e+00  -1.84549305e+00  -4.95400250e-01
C     9.871524762399998e+00   1.478977279541362e+00   3.471196200000000e+00  6.98214060e-01   1.15076622e+00   8.60637100e-02
C     2.494648970700000e+00   2.936276146226623e+00   3.636647700000000e+00 -1.17937593e+00  -8.56912150e-01  -3.01102890e-01
C     3.712999328400000e+00   3.626511944328874e+00   3.640751700000000e+00  3.84721460e-01   5.17278200e-02   2.11314590e-01
C     4.916648574000000e+00   2.926380713931875e+00   3.558118800000000e+00  2.53053646e+00  -8.22824220e-01  -5.76063400e-01
C     6.187312887200000e+00   3.651033420724290e+00   3.396899100000000e+00 -1.20473857e+00  -9.81392530e-01   5.74943510e-01
C     7.424092127200000e+00   2.943107610780938e+00   3.386940600000000e+00 -9.67559590e-01  -1.19864277e+00   3.48071640e-01
C     8.634899584899999e+00   3.595125701238271e+00   3.491331600000000e+00  2.02597453e+00   1.90124935e+00  -4.77991630e-01
C     9.910679808399999e+00   2.919959890391544e+00   3.521715000000000e+00 -1.52393618e+00  -9.05567140e-01   1.05244100e-02
C     1.110934408450000e+01   3.650711073078670e+00   3.601711200000000e+00  4.62675630e-01  -3.77435570e-01   2.53361310e-01
C     3.733502902600000e+00   5.035891848172786e+00   3.689878200000000e+00 -8.92519700e-01   1.18791817e+00  -6.74632200e-01
C     4.922240032099999e+00   5.781678008172466e+00   3.542937000000000e+00  1.92649286e+00  -5.55901950e-01  -3.53771720e-01
C     6.177657827299999e+00   5.037834729227300e+00   3.392001900000000e+00  8.73045030e-01   2.67149095e+00   1.02332178e+00
C     7.486169306799999e+00   5.794988190758167e+00   3.467211900000000e+00 -2.92306085e+00  -2.20142624e+00  -8.47634930e-01
C     8.675023326600000e+00   5.036992868184076e+00   3.485831700000000e+00 -3.69108380e-01   1.04385370e-01   6.07146620e-01
C     9.890878019700001e+00   5.759208968336023e+00   3.617392800000000e+00 -1.00127530e+00   8.22091830e-01  -6.31568410e-01
C     1.108589227170000e+01   5.073516350759657e+00   3.648731700000000e+00  2.26888772e+00  -8.33212790e-01   2.90284450e-01
C     1.235418934680000e+01   5.748694628561685e+00   3.685276200000000e+00 -4.64876030e-01   1.19444495e+00  -1.93158230e-01
C     4.956304261500000e+00   7.218793130396047e+00   3.479572200000000e+00  2.42484350e-01  -1.06610107e+00  -3.36999100e-01
C     6.206445181899999e+00   7.909660900663923e+00   3.411550800000000e+00 -6.79405830e-01  -9.16124050e-01   3.80350330e-01
C     7.432997087600000e+00   7.192418432556157e+00   3.437135100000000e+00 -5.22201630e-01   2.92083220e-01  -1.65059430e-01
C     8.629100277999999e+00   7.910574489395178e+00   3.428332200000000e+00  1.45608072e+00  -8.62828710e-01   9.85728020e-01
C     9.861010452799999e+00   7.184132006006155e+00   3.565094400000000e+00  4.74215430e-01   9.27385300e-01  -3.94739920e-01
C     1.108240326140000e+01   7.938319783807213e+00   3.545044800000000e+00  1.74848559e+00  -2.14113703e+00   4.07244270e-01
C     1.236123342940000e+01   7.193937522520549e+00   3.588031200000000e+00 -8.98250800e-01  -1.41197940e-01  -4.44330470e-01
C     1.359404273760000e+01   7.904415130355744e+00   3.430593000000000e+00 -1.31476629e+00   9.52274020e-01   1.19979193e+00
