32
Lattice="9.86 0 0 4.93 8.53901048131456 0 0 0 30 " PBC="1 1 1" Properties=species:S:1:pos:R:3:force:R:3 Energy="-257.12330882"
C     4.951869332100000e+00   8.486375080110127e+00  -4.661009999999877e-02 -4.00612690e-01   6.22650000e-04  -3.47288670e-01
C     1.248087427500000e+00   6.755789281737496e-01  -2.581560000000138e-02 -3.08484790e-01  -1.12736486e+00  -3.76027720e-01
C     7.389820788500000e+00   8.480539008007467e+00  -6.464910000000046e-02  1.89450293e+00   1.52807217e+00  -3.24622730e-01
C     3.745179755500000e+00   6.805605868877816e-01  -1.697489999999995e-01 -1.37483068e+00  -1.20623591e+00   5.85049010e-01
C     9.906616403799999e+00   8.481454304540817e+00  -1.733744999999978e-01 -9.96801520e-01   9.63376980e-01   1.55569230e-01
C     6.221128545999999e+00   6.709307178189616e-01  -1.081788000000010e-01 -1.80575464e+00  -1.44855137e+00  -8.38911600e-01
C     1.235041774890000e+01   8.532607161431152e+00  -2.221905000000000e-01  1.10162465e+00  -2.78836559e+00   6.03352260e-01
C     8.660316890099999e+00   6.641009610667432e-01  -1.141103999999977e-01 -5.45075330e-01   2.06998330e-01   1.83614200e-01
C     1.215755846600000e+00   2.078370387701608e+00  -1.358688000000008e-01  1.53277845e+00   5.86685160e-01  -8.66851700e-02
C     2.467509024900000e+00   2.801100194724031e+00  -2.388116999999994e-01  4.15103060e-01  -1.24144050e+00   5.40892600e-02
C     3.710440017500000e+00   2.094547116105444e+00  -2.057697000000012e-01  8.65299730e-01  -2.76175940e-01   2.42038150e-01
C     4.990616321999999e+00   2.774246799956632e+00  -1.536287999999999e-01 -2.05218742e+00   3.03317650e-01  -3.64551560e-01
C     6.193106968300000e+00   2.051318033990025e+00  -8.111159999999984e-02 -6.25084560e-01   1.15082973e+00   3.40892600e-02
C     7.394073061399999e+00   2.755252795825130e+00  -6.196769999999674e-02  6.39651250e-01   1.60125767e+00  -1.12903120e-01
C     8.598673846299999e+00   2.081879835618783e+00  -6.761849999999825e-02  2.90724210e+00  -6.22418960e-01  -2.30678660e-01
C     9.872479900600000e+00   2.781067078407218e+00  -1.434354000000013e-01 -1.81663940e+00   8.34067500e-01   6.98832700e-02
C     2.512775644000000e+00   4.191508039693375e+00  -3.381350999999988e-01 -1.57579923e+00   9.54778020e-01   1.33729380e-01
C     3.733365602100000e+00   4.912232374714465e+00  -2.985356999999986e-01  3.26786060e-01  -1.30927150e-01   1.84818170e-01
C     4.967008376099999e+00   4.191515810192911e+00  -2.167086000000005e-01  4.77019840e-01   6.67126620e-01   5.09931760e-01
C     6.199671706999999e+00   4.922976413870715e+00  -1.033179000000004e-01  2.13412900e-02  -5.54227660e-01  -5.36476010e-01
C     7.445939619399999e+00   4.180087113176374e+00  -8.558610000000044e-02 -2.08829857e+00   9.18463080e-01   1.00522730e-01
C     8.628810098199999e+00   4.928654855839915e+00  -1.366745999999992e-01  9.96783190e-01  -6.64616310e-01  -7.53347200e-02
C     9.865694100699999e+00   4.219096301702682e+00  -2.350965000000009e-01  3.21040400e-01  -9.99397550e-01   2.30020530e-01
C     1.110101494810000e+01   4.878297151605477e+00  -3.462335999999979e-01  7.39546560e-01   2.62158424e+00   3.16031200e-02
C     3.728201821500000e+00   6.337691064512008e+00  -2.224148999999969e-01 -1.77065341e+00   8.00992100e-02  -5.54451670e-01
C     4.910766098000000e+00   7.059693177061325e+00  -1.216161000000007e-01  2.29774169e+00   1.07107860e-01   3.80195600e-02
C     6.176677447499999e+00   6.346916440654390e+00  -1.293849000000016e-01 -5.28979200e-01   2.08044430e-01   6.43368600e-01
C     7.398239995999999e+00   7.079391649557428e+00  -7.061759999999850e-02 -1.03958850e-01  -1.15546846e+00  -4.78535000e-02
C     8.625969826600000e+00   6.334937148242102e+00  -1.053144000000010e-01 -4.94837210e-01   1.23476664e+00  -5.12346790e-01
C     9.828706775699999e+00   7.071389145105885e+00  -2.189918999999989e-01  2.11814201e+00  -7.53446320e-01  -1.47829190e-01
C     1.109210372660000e+01   6.367958184889101e+00  -3.628511999999979e-01 -1.54467500e-02  -1.39996009e+00   7.74586770e-01
C     1.233871772500000e+01   7.067437547226056e+00  -2.924942999999978e-01 -1.51158940e-01   4.01398730e-01  -1.83241400e-02
