32
Lattice="9.86 0 0 4.93 8.53901048131456 0 0 0 30 " PBC="1 1 1" Properties=species:S:1:pos:R:3:force:R:3 Energy="-256.73853555"
C     1.245316323800000e+00   9.016457296374527e-01   3.421250100000000e+00 -3.21162200e-02  -1.32433784e+00  -2.88209100e-02
C     2.469177435500000e+00   1.599059590729401e+00   3.263003100000000e+00 -3.72533440e-01  -4.43185880e-01  -2.54538060e-01
C     3.681822550700000e+00   8.989406565074936e-01   3.369046800000000e+00  9.62754730e-01  -6.32674220e-01   6.35776480e-01
C     4.922851401400000e+00   1.611392227395350e+00   3.427385100000000e+00  3.72333180e-01  -1.23389382e+00  -5.13528270e-01
C     6.146481936999999e+00   8.704841479125792e-01   3.516274800000000e+00  1.11902740e+00   2.66433780e-01   6.75043700e-02
C     7.403230240600000e+00   1.578384340824491e+00   3.549733500000000e+00  1.06800100e-02   9.34222310e-01  -8.32719190e-01
C     8.664824931399998e+00   8.980195534470160e-01   3.459064200000000e+00 -1.43515880e+00  -1.30269825e+00   2.25729470e-01
C     9.888036071900000e+00   1.607482812227292e+00   3.355740300000000e+00 -4.81402790e-01  -3.13447690e-01   2.14541640e-01
C     2.474136818300000e+00   2.978809811328551e+00   2.976224700000000e+00 -4.68612940e-01   1.45313831e+00   6.40817930e-01
C     3.701840914300000e+00   3.712918447546308e+00   3.022416000000000e+00  9.51099300e-01   4.76773270e-01   7.25362150e-01
C     4.955424256500000e+00   3.000604952457913e+00   3.281674200000000e+00 -9.09892020e-01   1.57967911e+00  -5.76932200e-02
C     6.179470736200000e+00   3.742547703840545e+00   3.445244400000000e+00 -6.47732270e-01  -1.59879654e+00   1.13710550e-01
C     7.409173749999999e+00   3.035789688970438e+00   3.501422700000000e+00 -1.08995200e-02  -1.24258580e+00   2.02654590e-01
C     8.641118385500000e+00   3.737393300944503e+00   3.422375100000000e+00  2.83353370e-01  -1.00170880e-01   2.34579610e-01
C     9.877575400699998e+00   3.018070302933286e+00   3.240259500000000e+00 -6.96909200e-01   5.14152610e-01  -7.66550000e-03
C     1.107832363710000e+01   3.708041477100761e+00   2.989051800000000e+00  1.15890893e+00   1.06949692e+00   3.55891600e-01
C     3.714522649100000e+00   5.171393562925189e+00   3.090818700000000e+00  3.07268980e-01  -9.87076040e-01   1.57854890e-01
C     4.971455729100001e+00   5.851027923346206e+00   3.341190000000000e+00 -2.22423415e+00   4.59941690e-01  -1.28263970e-01
C     6.147584235699999e+00   5.129712774190004e+00   3.536666100000000e+00  9.54543160e-01   7.11430500e-01  -6.73474850e-01
C     7.378280693800001e+00   5.839774276044509e+00   3.602710500000000e+00  8.33191400e-01   1.11315800e-01   2.99026930e-01
C     8.630070058299999e+00   5.156162871492433e+00   3.542741700000000e+00  8.09066260e-01  -1.02757340e-01  -1.57966337e+00
C     9.867386273899999e+00   5.873359485113920e+00   3.286005000000000e+00 -1.06961330e-01  -2.24542850e-01   6.95540160e-01
C     1.110110856880000e+01   5.171872345242803e+00   3.009129600000000e+00 -7.48080970e-01  -8.38203080e-01   9.22917640e-01
C     1.233457622920000e+01   5.885728668744724e+00   3.092832300000000e+00  1.96370590e-01  -2.80193610e-01  -6.41700990e-01
C     4.937123850000000e+00   7.283476390952361e+00   3.410662500000000e+00 -4.10574680e-01  -5.99620720e-01   6.29315310e-01
C     6.141376823400000e+00   7.988995566182030e+00   3.595487400000000e+00  1.48711462e+00   7.30416140e-01  -1.11361682e+00
C     7.390414360499999e+00   7.243084736629341e+00   3.594577500000000e+00  2.63497100e-01   2.37787614e+00  -3.73413000e-02
C     8.643211022599999e+00   8.021134693826655e+00   3.513396300000000e+00 -6.49504850e-01  -1.38639708e+00   5.40041800e-02
C     9.899661554200000e+00   7.297902707597903e+00   3.447048300000000e+00 -1.80208741e+00  -6.70108670e-01  -3.40830100e-01
C     1.111413727700000e+01   7.974246474940346e+00   3.434276700000000e+00 -3.81789720e-01   1.89830989e+00  -4.55371120e-01
C     1.232972939830000e+01   7.310881747357188e+00   3.231626100000000e+00  1.43422540e-01  -1.32166214e+00   9.36231970e-01
C     1.354629879350000e+01   7.971794498081013e+00   3.398332500000000e+00  1.52585873e+00   2.01916600e+00  -4.46231840e-01
