32
Lattice="9.86 0 0 4.93 8.53901048131456 0 0 0 30 " PBC="1 1 1" Properties=species:S:1:pos:R:3:force:R:3 Energy="-256.88973116"
C     1.231690691200000e+00   9.005329257916993e-01   3.469820700000000e+00 -2.08925057e+00  -1.32970023e+00  -3.00891600e-01
C     2.438791084700000e+00   1.563758979844662e+00   3.542175600000000e+00  1.73943849e+00   1.37825473e+00  -1.55136330e-01
C     3.673635940600000e+00   8.622615931609681e-01   3.398933400000000e+00  8.07198210e-01   1.00528804e+00   3.71574930e-01
C     4.916439394099999e+00   1.600616593900324e+00   3.404212500000000e+00 -5.58383150e-01  -2.19133730e-01  -5.41538600e-02
C     6.143651722600000e+00   8.951688901883728e-01   3.348184200000000e+00  1.70353600e-02  -4.34265470e-01   3.73228030e-01
C     7.380171447400000e+00   1.578612161624098e+00   3.366842700000000e+00 -2.49790580e-01   1.24463893e+00  -3.83253460e-01
C     8.611790259199999e+00   8.324087001822592e-01   3.365629200000000e+00 -1.54347050e-01   4.20531910e-01   2.31080730e-01
C     9.821705830600001e+00   1.542521009149120e+00   3.422013300000000e+00  1.05514823e+00   2.75535849e+00   8.66369450e-01
C     2.464616347400000e+00   2.992670760090211e+00   3.671957100000000e+00  1.51829170e-01  -1.83028990e-01  -1.88612050e-01
C     3.689038394500000e+00   3.743515600678454e+00   3.620070600000000e+00 -4.32873540e-01  -8.20137300e-01   8.54612000e-03
C     4.927343568100000e+00   3.011570920496538e+00   3.476638200000000e+00 -1.07803202e+00   9.29879630e-01   1.98558240e-01
C     6.128533926899999e+00   3.758387653671051e+00   3.419994300000000e+00  4.10921730e-01  -1.14386413e+00  -2.28857170e-01
C     7.338101045900000e+00   3.049014310671129e+00   3.337155600000000e+00  2.49693471e+00  -1.88808486e+00   4.84300100e-01
C     8.634257649599999e+00   3.723810040803653e+00   3.392495100000000e+00 -1.73026902e+00  -5.00802620e-01   3.87203870e-01
C     9.850208034000000e+00   3.034070615380605e+00   3.555680100000000e+00 -7.04935660e-01  -2.92260980e+00  -8.26432700e-01
C     1.108750586070000e+01   3.684117389878526e+00   3.687443100000000e+00  5.00817230e-01   1.46158293e+00  -4.05032070e-01
C     3.660063256200000e+00   5.166722468022315e+00   3.628857300000000e+00  8.66202480e-01   3.59048450e-01  -5.31205390e-01
C     4.930814189500000e+00   5.847318406413484e+00   3.420381000000000e+00 -1.69018584e+00  -3.40880940e-01   7.41480610e-01
C     6.131900821100000e+00   5.161825430902140e+00   3.399977100000000e+00  1.24755459e+00   2.78497200e-02  -6.84947540e-01
C     7.371161182200000e+00   5.871025346599213e+00   3.257936100000000e+00  1.30128010e-01  -5.61071840e-01   8.45045060e-01
C     8.609949890199999e+00   5.118517875280410e+00   3.383071500000000e+00 -7.25314780e-01   1.63725732e+00  -6.58168840e-01
C     9.815323748399999e+00   5.829320819414892e+00   3.429847800000000e+00  2.50944955e+00   2.86942960e-01   6.53118910e-01
C     1.110973320940000e+01   5.121029539822997e+00   3.618743700000000e+00 -2.21821837e+00   9.51883350e-01  -4.29412600e-02
C     1.228615574120000e+01   5.910459692457320e+00   3.656869800000000e+00  6.07649660e-01  -1.44796927e+00  -5.34796760e-01
C     4.934983342600001e+00   7.232067107577312e+00   3.367625100000000e+00 -4.29791570e-01   2.57675871e+00   3.96647890e-01
C     6.140751502200000e+00   8.031834244738304e+00   3.368610900000000e+00  6.94797740e-01  -2.20331276e+00  -5.57699990e-01
C     7.377565301499999e+00   7.293748222829068e+00   3.259570800000000e+00  4.40761880e-01   4.24164830e-01   5.63145660e-01
C     8.648136585600000e+00   8.002510258068726e+00   3.320909400000000e+00 -1.40333865e+00  -1.11821797e+00  -1.11737080e-01
C     9.858818229699999e+00   7.264133397462542e+00   3.389038200000000e+00 -6.98434200e-02   1.78760040e-01  -1.66292710e-01
C     1.108497741160000e+01   8.010926648358234e+00   3.419042700000000e+00 -1.33086901e+00   2.30163430e-01  -1.34046620e-01
C     1.228698910840000e+01   7.336785945719630e+00   3.504981300000000e+00  1.03954307e+00  -2.41129578e+00   2.22221890e-01
C     1.355034021030000e+01   7.936914177292100e+00   3.430089900000000e+00  1.50033090e-01   1.65601218e+00  -3.78316060e-01
