32
Lattice="9.86 0 0 4.93 8.53901048131456 0 0 0 30 " PBC="1 1 1" Properties=species:S:1:pos:R:3:force:R:3 Energy="-254.27289686"
C     5.070120706500000e+00   8.202403455389343e+00  -9.186420000000020e-01 -5.81777550e-01  -1.51679934e+00  -2.97375150e-01
C     1.398361764800000e+00   3.587788214922912e-01  -1.037002800000000e+00 -3.01138455e+00  -6.67157570e-01   1.19749882e+00
C     7.494269198200000e+00   8.190058351768092e+00  -9.293300999999978e-01  1.60858632e+00  -2.36979227e+00  -7.44405400e-02
C     3.788730241600000e+00   3.403844266766944e-01  -8.566800000000008e-01  1.25170112e+00   2.79593790e-01  -2.06410796e+00
C     9.968911982400000e+00   8.117911398321525e+00  -1.060714800000000e+00 -1.27659851e+00   3.89076659e+00   1.82732668e+00
C     6.219221720599999e+00   3.245717162896208e-01  -9.010655999999990e-01  2.09504161e+00   1.18287665e+00  -1.09511963e+00
C     1.246853009730000e+01   8.165083539306293e+00  -1.022677200000000e+00 -2.20108754e+00   4.78252900e-01   7.28425390e-01
C     8.739786025099999e+00   3.508963755280984e-01  -8.075411999999993e-01  4.96424610e-01  -1.58935875e+00  -1.42885547e+00
C     1.349761282500000e+00   1.747115785640025e+00  -1.137646799999999e+00 -2.48551574e+00  -2.36483360e-01   2.63242330e-01
C     2.530953342800000e+00   2.386693733289465e+00  -1.374838799999999e+00  1.64896328e+00   3.34541955e+00   1.16570550e+00
C     3.793897571800000e+00   1.794618044769950e+00  -1.077870300000001e+00 -1.53746639e+00  -1.95352964e+00  -5.54672800e-01
C     4.954279707700000e+00   2.561025915078831e+00  -1.110813900000000e+00  2.48905588e+00  -2.77825815e+00   7.81963040e-01
C     6.169117292499999e+00   1.796852276862043e+00  -8.986334999999990e-01  2.18143788e+00  -2.04367080e-01  -5.87503730e-01
C     7.482547630199999e+00   2.518463473511586e+00  -9.520598999999983e-01 -1.39908823e+00  -3.88011729e+00   6.53065380e-01
C     8.719026288100000e+00   1.731804485948337e+00  -8.710382999999986e-01 -4.84149640e-01   3.14079782e+00   1.79298500e-02
C     9.942843374899999e+00   2.457896699127470e+00  -9.898322999999998e-01  1.59789806e+00  -1.03692600e-01  -1.74669741e+00
C     2.539561714400000e+00   3.823756425988699e+00  -1.453703399999998e+00  1.24154838e+00   2.81117138e+00   8.25214270e-01
C     3.835140817900000e+00   4.564766034306078e+00  -1.376300999999998e+00 -4.51335597e+00   1.76907714e+00  -8.69059990e-01
C     5.022294382100000e+00   3.942047594338454e+00  -1.251659400000001e+00  2.81263291e+00  -5.31396120e-01   8.05964620e-01
C     6.302280930900000e+00   4.619443538552242e+00  -1.073035200000000e+00 -1.87615567e+00   1.39142100e-01  -9.83134800e-01
C     7.487307002900000e+00   3.884335838108326e+00  -1.038475199999997e+00  2.74485867e+00   1.62137304e+00   6.28424300e-02
C     8.825682549000000e+00   4.577869060497532e+00  -1.097136299999999e+00 -4.95287594e+00   1.85692163e+00  -2.71640770e-01
C     9.991615026800000e+00   3.877150175399301e+00  -1.266167700000000e+00  4.20863940e-01   1.02741300e-01   1.86621737e+00
C     1.120370403800000e+01   4.689008380619764e+00  -1.286662500000002e+00  2.94709100e-01  -6.39550057e+00  -1.22986517e+00
C     3.750464469000000e+00   6.000392380052471e+00  -1.363249499999998e+00  2.95806888e+00   1.54330225e+00   1.83409948e+00
C     5.045558854899999e+00   6.760027278028825e+00  -1.044495600000001e+00 -1.14969248e+00  -5.31771130e-01  -1.20154923e+00
C     6.304743761699999e+00   6.044034835665227e+00  -1.063464900000000e+00 -4.00980379e+00  -1.76208386e+00   3.22081380e-01
C     7.470188416000000e+00   6.678342164485992e+00  -9.551460000000027e-01  2.07777785e+00   4.98809966e+00  -8.44950500e-02
C     8.674950411899999e+00   6.046834264860990e+00  -1.079245800000002e+00  4.13709584e+00  -2.21634019e+00  -1.22105430e-01
C     9.955662114399999e+00   6.774013237903912e+00  -1.157498099999998e+00 -2.42013885e+00  -3.04837194e+00   4.39744010e-01
C     1.113184583700000e+01   6.027159786984336e+00  -1.213607100000001e+00  2.98054114e+00   3.27617667e+00  -9.02147310e-01
C     1.242843726670000e+01   6.761957435957724e+00  -1.280421899999997e+00 -1.13811462e+00  -6.40692600e-01   7.21449890e-01
