32
Lattice="9.86 0 0 4.93 8.53901048131456 0 0 0 30 " PBC="1 1 1" Properties=species:S:1:pos:R:3:force:R:3 Energy="-256.74300558"
C     9.812744273800000e+00   2.364040421606864e-01  -2.630400000001032e-03  3.07981156e+00  -8.54000540e-01  -2.17102020e-01
C     1.231442367100000e+00   9.557947545250104e-01  -5.020049999999898e-02 -1.15226164e+00  -3.09716420e-01   1.10041605e+00
C     2.468878924000000e+00   2.642483890942896e-01  -3.325020000000123e-02 -2.64295660e-01  -5.75472820e-01  -5.71274770e-01
C     3.715752092500000e+00   9.709827509053671e-01   1.539870000000000e-02 -4.35508380e-01  -1.85713524e+00  -4.06830120e-01
C     4.950925779399999e+00   2.235038174681312e-01  -9.355019999999925e-02 -6.77751800e-02   1.05996155e+00   2.62001580e-01
C     6.187773990099999e+00   9.171430943675000e-01  -1.446411000000012e-01 -1.77100440e-01   1.53220039e+00   8.49283080e-01
C     7.444944252399999e+00   2.647434809219200e-01  -1.191599999999937e-02 -2.75340250e+00  -8.98666200e-01  -2.23011300e-01
C     8.634265586900000e+00   9.529821752531080e-01   2.847480000000000e-02  3.11543330e-01   6.76217200e-02  -3.25308680e-01
C     1.105716757740000e+01   2.361183610260675e+00   1.074378000000000e-01  3.49555740e-01   8.05253840e-01  -5.23265710e-01
C     2.445288676800000e+00   3.074364668813839e+00   1.714212000000000e-01 -4.98390220e-01   5.94939520e-01   4.84068290e-01
C     3.678197768200000e+00   2.356550172394018e+00   1.317585000000000e-01  5.88036730e-01   9.16178550e-01  -2.27907260e-01
C     4.931094706500000e+00   3.037110759281799e+00   8.756730000000000e-02  4.26989340e-01   1.16387256e+00  -7.82603720e-01
C     6.171100582199999e+00   2.359370607555562e+00  -1.083515999999989e-01 -2.42635900e-01  -6.27519460e-01   8.99373670e-01
C     7.408256720699999e+00   3.084327388511169e+00  -3.536010000000189e-02 -1.09426834e+00  -7.63746140e-01  -6.83725130e-01
C     8.633524706499999e+00   2.341633460376610e+00   3.372000000000000e-03 -1.24510783e+00   2.08260327e+00  -1.63901300e-02
C     9.800276353099999e+00   3.081264445451993e+00   6.287190000000001e-02  2.87330659e+00   4.13319570e-01   6.63746270e-01
C     1.231135701380000e+01   4.522284542558182e+00   2.547258000000000e-01  1.27829069e+00  -1.03750069e+00  -8.30197280e-01
C     3.720870812899999e+00   5.207533216979694e+00   1.561548000000000e-01 -1.63847053e+00  -1.62122500e-02  -3.87936300e-01
C     4.952731589099999e+00   4.473299740428719e+00   5.491890000000000e-02 -1.51987406e+00   5.29067480e-01   3.88757300e-01
C     6.129217717900000e+00   5.224793118862918e+00  -7.647509999999968e-02  1.70850217e+00  -5.25789110e-01  -3.84677230e-01
C     7.359505873400000e+00   4.490305435969954e+00  -1.164857999999995e-01  2.16764519e+00   1.21107031e+00   5.60187050e-01
C     8.658775574900000e+00   5.219956623327046e+00  -8.072459999999992e-02 -2.31908581e+00   9.77059260e-01  -7.21038600e-02
C     9.869292064000000e+00   4.525180121011950e+00   1.235340000000000e-01 -1.20467092e+00  -1.00132750e+00  -1.05285433e+00
C     1.109225078850000e+01   5.233882212398039e+00   1.464999000000000e-01  5.89915000e-02  -8.31030710e-01   3.99611850e-01
C     1.350822736150000e+01   6.638658052571345e+00   1.016580000000000e-02  1.85413565e+00   7.42316000e-03   1.25029031e+00
C     4.913495937600000e+00   7.337347641829004e+00  -1.072830000000025e-02 -6.78055660e-01   8.26121110e-01  -5.82718600e-01
C     6.164122561599999e+00   6.655631982993594e+00  -1.240515000000002e-01 -1.71965355e+00  -6.20719130e-01   3.95242660e-01
C     7.358843182799999e+00   7.372794099012742e+00  -1.573995000000004e-01  1.78506941e+00   4.70012040e-01   7.51713700e-02
C     8.612286759500000e+00   6.682341239264090e+00  -1.825209000000001e-01  3.03217260e-01  -1.81128994e+00   1.07601203e+00
C     9.865896723699999e+00   7.354922377028626e+00  -5.180520000000044e-02 -1.41353736e+00  -2.58558100e-01  -5.67757930e-01
C     1.105327820180000e+01   6.620058636114123e+00   5.708100000000000e-02  2.04744529e+00   2.54701775e+00   1.30713710e-01
C     1.231272252520000e+01   7.414208299840742e+00   8.469600000000001e-02 -4.08446490e-01  -3.21503784e+00  -6.79210810e-01
