32
Lattice="9.908 0 0 4.954 8.58057970069622 0 0 0 30 " PBC="1 1 1" Properties=species:S:1:pos:R:3:force:R:3 Energy="-258.02703033"
C     1.290304708592186e-04  -2.218148027281697e-03   2.999872823695315e+00 -1.24184150e-01   9.03865300e-02   1.97683800e-02
C     1.236147859786474e+00   7.152982576001419e-01   3.002135892350049e+00  1.45911830e-01  -8.37769000e-02  -2.13013800e-02
C     2.477904176199860e+00   1.113610002937782e-03   2.999304493776559e+00 -7.53548000e-02  -1.39317760e-01   3.65681000e-02
C     3.715351325329263e+00   7.164234764932109e-01   3.001151138136922e+00 -1.06400640e-01   4.16418500e-02   1.34885100e-02
C     4.950190874372065e+00   2.508211724413525e-03   3.003394578363768e+00  2.50297890e-01  -1.43405370e-01  -4.62599500e-02
C     6.194059925733626e+00   7.144896286038878e-01   2.997781809329422e+00 -1.88742930e-01   1.84455900e-02   7.11283300e-02
C     7.431860187440883e+00   1.754610460734659e-03   3.002270063124131e+00 -1.20049330e-01  -1.79273510e-01  -2.41320000e-02
C     8.666593445040386e+00   7.142249935991025e-01   3.000361808285176e+00  1.93938130e-01  -2.47390000e-04   2.90159200e-02
C     1.239823398846275e+00   2.143765227321344e+00   3.002316386283201e+00 -1.26606500e-01   1.23030310e-01  -3.37645900e-02
C     2.479075252506076e+00   2.860734105493790e+00   2.999037603134011e+00 -1.40290060e-01  -8.54394600e-02   3.35072800e-02
C     3.712818230642760e+00   2.146910274907734e+00   3.002023657882372e+00  2.94105360e-01   6.89346000e-03  -1.74512300e-02
C     4.956617341720146e+00   2.862906074505513e+00   3.002404705814917e+00 -1.91462140e-01  -1.07251490e-01  -2.62810700e-02
C     6.192031336190208e+00   2.142534850281331e+00   3.001140183597178e+00  1.07595290e-01   1.61798310e-01  -2.12465800e-02
C     7.434353101318859e+00   2.859095905721756e+00   3.000344826077429e+00 -3.34057340e-01   1.01540800e-01   4.75088500e-02
C     8.664937106391417e+00   2.144506312966890e+00   3.003484215240479e+00  3.12797410e-01  -8.38768000e-03  -5.81570700e-02
C     9.907107397460512e+00   2.860533961789179e+00   2.999208343976314e+00 -4.27298000e-03  -1.98989680e-01   2.71973400e-02
C     2.480903646689324e+00   4.287484544355663e+00   2.999892469830002e+00 -3.45459110e-01   2.06497180e-01   1.48236200e-02
C     3.714499903536432e+00   5.001392926561843e+00   3.001717449586284e+00  6.17743000e-02   3.37295550e-01  -5.50015700e-02
C     4.952434602655425e+00   4.294209785531431e+00   2.998185035820413e+00  7.48257800e-02  -2.71651080e-01   6.54786200e-02
C     6.191024571340766e+00   5.003552706120115e+00   3.002813716356233e+00 -8.03600000e-04   1.74799540e-01  -4.89406400e-02
C     7.427225983784968e+00   4.291897554044007e+00   3.004454168109626e+00  2.86604690e-01  -1.06885460e-01  -3.74096400e-02
C     8.671530383483550e+00   5.006693912434737e+00   3.000958928248411e+00 -2.80654970e-01  -9.80654800e-02  -2.06105100e-02
C     9.905163161194826e+00   4.286547061941094e+00   2.996641418027907e+00  1.35766540e-01   2.27409090e-01   5.07751900e-02
C     1.114354068844536e+01   5.007370919482395e+00   3.001407719298018e+00  1.78282100e-01  -3.07683700e-01  -6.69248200e-02
C     3.718281855815109e+00   6.438185670184159e+00   2.998341632788265e+00 -3.13239340e-01  -2.53794180e-01   6.55583800e-02
C     4.953063473038829e+00   7.147968958301365e+00   3.000565126934523e+00  1.43386760e-01   1.32676000e-01  -4.77714100e-02
C     6.192012693697119e+00   6.433846780205493e+00   2.996724540546743e+00  7.67556200e-02  -1.02538400e-02   7.43321100e-02
C     7.433856369547009e+00   7.146443128870298e+00   3.001330202226210e+00 -2.89195050e-01   2.88376960e-01  -5.17497000e-02
C     8.666856076854165e+00   6.436837665992226e+00   2.998565104041274e+00  2.63026280e-01  -1.38202410e-01   4.59927100e-02
C     9.906468051264840e+00   7.150886781083460e+00   3.001633707589125e+00 -4.87080400e-02   7.74582900e-02  -3.23149800e-02
C     1.114387130894791e+01   6.432968187612373e+00   2.997388950624259e+00  5.88213700e-02   1.78209870e-01   8.12502100e-02
C     1.238343624339194e+01   7.150885069856592e+00   3.003955301034428e+00  1.05591620e-01  -3.38339300e-02  -6.70764400e-02
