32
Lattice="9.86 0 0 4.93 8.53901048131456 0 0 0 30 " PBC="1 1 1" Properties=species:S:1:pos:R:3:force:R:3 Energy="-247.76894056"
C     9.885131463799999e+00   1.093605246930997e+00   3.548288400000000e+00  1.71869510e-01   8.18733910e-01  -9.56934790e-01
C     1.295198408900000e+00   1.781823789197452e+00   3.447377400000000e+00 -3.55224842e+00   4.19671111e+00   3.06556220e+00
C     2.502223225500000e+00   1.162387915638550e+00   3.509299800000000e+00  5.82817810e-01  -2.80281686e+00  -2.85459890e-01
C     3.594492333500000e+00   1.922309809757137e+00   3.924890100000000e+00  2.18445758e+00  -7.53195820e-01   2.13587443e+00
C     4.762061522000000e+00   1.137910073586686e+00   4.294321800000000e+00  2.27013449e+00  -5.02780080e-01  -3.74312182e+00
C     6.080536186400000e+00   1.654166863373024e+00   4.040845200000001e+00  3.08128093e+00   4.91685209e+00  -2.47132750e-01
C     7.451300846500000e+00   9.885632072420104e-01   3.636259800000000e+00 -5.82854777e+00   5.06087355e+00   1.28226102e+00
C     8.553232310799999e+00   1.818759876759426e+00   3.598462200000000e+00  5.34219316e+00   2.85918320e-01   4.71636820e-01
C     1.109154875650000e+01   3.244771296705338e+00   4.005381600000000e+00  5.40830817e+00  -1.05855994e+00  -2.24016787e+00
C     2.561113603800000e+00   4.090390785391310e+00   4.023447600000000e+00 -5.00290485e+00  -6.20646830e-01  -3.53692630e-01
C     3.701727425700000e+00   3.368306186000756e+00   4.150665300000000e+00 -1.31362285e+00  -3.41156021e+00  -1.91662049e+00
C     4.911912963900001e+00   3.948147009524318e+00   3.923295900000000e+00  4.55608274e+00  -4.35781460e-01   1.45282173e+00
C     6.190150496600000e+00   3.239598791107078e+00   4.002489900000000e+00 -2.41790100e-01  -2.58836408e+00  -5.74648960e-01
C     7.417877172000000e+00   3.993021985909757e+00   3.888844200000000e+00  8.14856650e-01  -1.58987810e+00  -2.15739195e+00
C     8.739984704099999e+00   3.229342500229446e+00   3.770772600000000e+00 -4.44001855e+00   4.44580070e-01   1.36781622e+00
C     9.953354430699999e+00   3.941274301549385e+00   4.088830800000000e+00 -3.65839796e+00  -1.71107571e+00  -9.80619920e-01
C     1.234037316970000e+01   5.525206437482732e+00   3.864095100000000e+00 -2.83459330e-01  -2.56006611e+00   3.43055270e+00
C     3.765389304500000e+00   6.145247214544038e+00   4.067177999999999e+00 -2.07271740e-01   6.04206010e-01  -2.44828542e+00
C     5.052164019600000e+00   5.301481032692645e+00   3.842878499999999e+00 -3.53805268e+00   4.62099620e+00   1.07889130e-01
C     6.215417091700000e+00   6.024457958678360e+00   3.469012800000000e+00 -1.48079326e+00   2.86874930e+00  -3.61482420e-01
C     7.404504694900000e+00   5.403591117743218e+00   3.440580600000000e+00  4.05964253e+00  -4.00555924e+00   1.70513801e+00
C     8.769401175999999e+00   5.982980825343121e+00   3.439903500000000e+00 -3.98347560e+00   2.57797855e+00   1.83248926e+00
C     9.829517563499998e+00   5.337515059187511e+00   4.156328700000000e+00 -1.23312198e+00   8.01135600e-02  -2.63362083e+00
C     1.095487885280000e+01   6.073627032653981e+00   4.070924700000000e+00  5.76275622e+00   4.03121984e+00  -1.14268355e+00
C     1.356077514690000e+01   7.610660617498338e+00   3.927876600000000e+00  4.62313701e+00  -4.21286038e+00  -1.80940714e+00
C     5.039017040699999e+00   8.234841960741395e+00   3.629411700000000e+00 -2.65464586e+00  -1.63702990e-01  -5.38773130e-01
C     6.235003833800000e+00   7.498948415163005e+00   3.278453100000000e+00 -2.64785753e+00  -1.27619031e+00   2.11054691e+00
C     7.440544720399999e+00   8.161071997572895e+00   3.304951200000000e+00  7.49961050e-01   2.83610374e+00  -4.30986500e-02
C     8.646493318000001e+00   7.463447137531985e+00   3.406804500000000e+00  2.74573469e+00   1.64892640e-01   1.89206423e+00
C     9.783345303399999e+00   8.305111100393306e+00   3.926687100000001e+00 -1.41661574e+00  -3.41106242e+00  -9.47835530e-01
C     1.097520154530000e+01   7.514226498103925e+00   3.918278100000000e+00  2.49643610e+00   4.98581950e-01  -7.35118000e-01
C     1.237115781520000e+01   8.191464897574358e+00   3.578496900000000e+00 -3.36684442e+00  -2.90241031e+00   3.26144310e+00
