26
Lattice="8.88768389401873 1.33226762955019e-15 0 4.44384194700937 7.69696003302603 0 0 0 30 " PBC="1 1 1" Properties=species:S:1:pos:R:3:force:R:3 Energy="-204.43373139"
C     1.263890396782983e+01   6.791132590095008e+00   6.936240000000000e-02 -2.41903934e+00  -2.20150703e+00   1.38870770e-01
C     8.798859981408960e+00   6.390623276143566e+00  -3.314190000000039e-02 -2.45095430e+00   3.45692361e+00   1.36194994e+00
C     1.009149339167204e+01   6.097650268950462e+00  -2.697551999999988e-01  5.01781603e+00  -2.48789406e+00  -2.27509450e-01
C     1.050683974441468e+01   4.632238056096408e+00  -2.353920000000009e-01 -2.74393272e+00   3.68411205e+00   5.13379680e-01
C     6.379702061247697e+00   5.918737511837123e+00   2.904195000000000e-01  3.55149851e+00  -4.36733030e-01  -1.36036700e-01
C     7.782950385252696e+00   5.447668779837866e+00   1.643190000000000e-01 -2.11398815e+00  -2.36992860e+00  -1.31147508e+00
C     8.008328893956365e+00   3.947419202252829e+00  -3.610980000000197e-02  1.89872157e+00   5.16058047e+00   6.11361860e-01
C     9.424016064921524e+00   3.622705240379210e+00  -4.127879999999706e-02  1.35535528e+00   2.09586940e+00  -8.33140150e-01
C     9.838027843156906e+00   2.319934872952677e+00   1.658307000000000e-01  2.15310466e+00   5.54917980e-01   3.21771440e-01
C     4.047043835555531e+00   5.355619449386291e+00   1.828725000000000e-01 -1.15684527e+00   1.94763117e+00  -2.47231331e+00
C     5.391312511634377e+00   4.904739689606522e+00   1.303017000000000e-01 -1.15022301e+00   4.39030045e+00   1.54588142e+00
C     5.665471828952737e+00   3.606604970297257e+00   4.529340000000000e-02 -1.43744680e-01  -4.98807344e+00  -2.01734377e+00
C     6.927080512068689e+00   3.052418614204437e+00  -7.452629999999871e-02  4.06972242e+00   3.12613950e+00   1.12935572e+00
C     7.430742624354814e+00   1.783202528271886e+00   4.385700000000000e-03 -1.82659313e+00  -3.06491239e+00  -1.33798900e-01
C     8.787966655108404e+00   1.425286266886457e+00   2.463312000000000e-01  1.17064740e-01  -1.57985549e+00  -2.21127790e-01
C     3.000758935511007e+00   4.454743386898998e+00  -1.345689000000014e-01 -1.27539530e-01  -3.58633005e+00   1.73497498e+00
C     3.350122500946302e+00   3.035324974461012e+00   7.072919999999999e-02 -1.40340893e+00  -2.33289400e-01  -1.35096360e+00
C     4.651610977214784e+00   2.611940064391609e+00  -1.320605999999991e-01  2.35286620e-01  -6.80033590e-01   3.20050639e+00
C     4.932010959468722e+00   1.219188308764760e+00   1.040481000000000e-01  3.78453063e+00  -1.96793867e+00  -2.67974988e+00
C     6.414150542919968e+00   7.899599436101815e-01  -1.177382999999992e-01 -2.07173246e+00  -7.25276680e-01   6.69408720e-01
C     1.119266205060291e+01   7.102872017354857e+00  -2.805399000000008e-01  2.17761960e-01   3.26843740e-01   2.10634873e+00
C     2.408526606998084e+00   1.997086346311929e+00   2.379675000000000e-01 -3.34030015e+00   2.09147500e-02   3.27132330e-01
C     2.712800819023670e+00   5.905905140075107e-01   4.087107000000000e-01  3.57072900e-02   1.46234937e+00  -8.56925340e-01
C     3.980749842574258e+00   1.330275608032939e-01   1.770414000000000e-01  3.39030593e+00   5.93074040e-01  -4.09438250e-01
C     2.570297739774657e-01   7.075107235256239e-02   4.019109000000000e-01  1.89620078e+00  -1.34796562e+00  -1.25302703e+00
C     6.202848617861562e+00   7.323658238241002e+00   4.289544000000000e-01 -6.77477475e+00  -1.14991848e+00   2.41907270e-01
