26
Lattice="8.88768389401873 1.33226762955019e-15 0 4.44384194700937 7.69696003302603 0 0 0 30 " PBC="1 1 1" Properties=species:S:1:pos:R:3:force:R:3 Energy="-206.71279628"
C     1.305730688530064e+01   7.421693725416709e+00  -4.652106000000025e-01  1.07918596e+00  -3.99658006e+00   9.30551680e-01
C     9.251431644052918e+00   7.051377661422950e+00  -4.169537999999982e-01  3.35254763e+00   3.80940361e+00  -5.59538080e-01
C     1.071620762617018e+01   6.701269735079155e+00  -4.699458000000014e-01 -4.15560495e+00   1.60209921e+00   3.34232470e-01
C     1.095061415540013e+01   5.366743711778449e+00  -4.228574999999992e-01  3.27363349e+00  -2.97241318e+00  -2.00073200e-01
C     6.941348179913141e+00   6.539631188391545e+00  -2.975789999999989e-01 -2.89018401e+00   7.54402250e-01  -1.35561258e+00
C     8.255756815563437e+00   6.109569550344118e+00  -4.744047000000009e-01  3.06587390e-01  -2.80426570e-01   1.37418298e+00
C     8.536729964558443e+00   4.727595232090477e+00  -4.191287999999993e-01  4.99699082e+00   1.29440395e+00  -9.27537020e-01
C     9.998569633614041e+00   4.288061868969333e+00  -4.322777999999978e-01 -2.26230726e+00   4.64407684e+00   2.75931180e-01
C     1.037217791201749e+01   2.998906192322265e+00  -3.660831000000009e-01 -1.23679681e+00  -3.56826439e+00  -8.85313500e-02
C     4.499639805949985e+00   5.916402869920824e+00  -4.057797000000001e-01  1.19138550e-01   5.17937670e+00   1.57110190e-01
C     5.855459049420793e+00   5.609085192259010e+00  -3.462378000000008e-01  7.68968650e-01  -2.17602818e+00  -5.84751980e-01
C     6.171049060586352e+00   4.219870112796346e+00  -4.660794000000017e-01  5.93254580e-01  -9.47682340e-01   1.07167318e+00
C     7.543567684352430e+00   3.859312023819820e+00  -5.083895999999974e-01 -2.13450819e+00  -4.97772923e+00   1.06396458e+00
C     7.884501770411416e+00   2.394854003100685e+00  -3.978086999999988e-01 -2.88977340e-01   1.74663525e+00  -6.97282570e-01
C     9.229780309623528e+00   2.022894330262119e+00  -3.646370999999995e-01  3.63048701e+00   4.65470310e-01   2.34601630e-01
C     3.502608894654841e+00   4.978089178695613e+00  -3.998754000000027e-01 -2.22792748e+00  -9.26687560e-01  -1.17050899e+00
C     3.865987715487265e+00   3.620972577706857e+00  -5.477097000000022e-01 -1.71232878e+00  -2.72982101e+00   2.79901395e+00
C     5.179832116497002e+00   3.146571908680213e+00  -3.398745000000005e-01  5.30913970e-01   4.62615595e+00  -2.01145499e+00
C     5.504512139722770e+00   1.828866283041867e+00  -3.816440999999990e-01  1.13230422e+00  -3.02557508e+00  -1.07810200e-02
C     6.870167693957073e+00   1.419174033957033e+00  -4.258476000000009e-01  6.37362200e-02  -6.84502580e-01   1.15690890e-01
C     7.256842689580489e+00   1.683109643680160e-02  -4.665390000000009e-01 -6.42350480e-01   1.93969249e+00   3.66887900e-02
C     2.864561933297424e+00   2.547299531637263e+00  -3.668160000000000e-01 -1.27245625e+00   4.17759104e+00  -6.96203430e-01
C     3.208544939410112e+00   1.229449203150354e+00  -2.744078999999999e-01 -3.77687387e+00  -2.20566063e+00  -1.00867749e+00
C     4.489044927992652e+00   8.251375909440914e-01  -3.806648999999993e-01  2.87881929e+00  -2.78697132e+00   2.60287430e-01
C     7.887798126259400e-01   6.659003418466416e-01  -3.422625000000004e-01 -2.18496782e+00  -6.69438010e-01  -7.45846170e-01
C     2.120167212930466e+00   2.070359096709520e-01  -3.634067999999999e-01  2.05871546e+00   1.70847256e+00   1.40286992e+00
