32
Lattice="9.86 0 0 4.93 8.53901048131456 0 0 0 30 " PBC="1 1 1" Properties=species:S:1:pos:R:3:force:R:3 Energy="-256.0222595"
C     9.834744891800000e+00   1.599580043418157e+00   3.518933400000000e+00 -2.05581200e+00  -5.26388540e-01  -3.62784810e-01
C     1.103366197830000e+01   2.270835670585882e+00   3.437229000000000e+00  8.97953660e-01   1.89369643e+00  -1.22000690e+00
C     2.386368077600000e+00   1.605619002409822e+00   3.247296900000000e+00  1.84035038e+00  -2.05272596e+00   1.01467858e+00
C     3.626296503000000e+00   2.299782659942768e+00   3.222916800000000e+00  7.26043000e-02   1.02678504e+00  -4.65112040e-01
C     4.839161644100000e+00   1.578016053302489e+00   3.287379900000000e+00  1.04595462e+00   8.60979720e-01   3.80629160e-01
C     6.085229004099999e+00   2.302645875546817e+00   3.406257300000000e+00 -1.02308810e+00   4.29539530e-01  -9.18060810e-01
C     7.288453382300000e+00   1.599344622899223e+00   3.380880900000000e+00  2.64456681e+00  -5.06417960e-01   2.71609370e-01
C     8.609403202500001e+00   2.279879848925879e+00   3.472200300000000e+00 -3.06361027e+00   1.32564172e+00   1.16113660e-01
C     1.100750389130000e+01   3.704740807989821e+00   3.269571000000000e+00  6.82254700e-01  -4.48583680e-01   4.52673160e-01
C     1.223873269080000e+01   4.417341470000659e+00   3.180216000000000e+00  1.66337112e+00   1.46931708e+00  -1.32026470e-01
C     3.671060656500000e+00   3.747741215404587e+00   3.142941000000000e+00 -1.73055606e+00  -1.33879771e+00   9.98882820e-01
C     4.887435908300000e+00   4.443724194510401e+00   3.301245600000000e+00 -1.11065980e+00   6.98753830e-01  -2.04256010e-01
C     6.112262757700000e+00   3.738130729889556e+00   3.388137600000000e+00 -2.36342606e+00  -1.83613507e+00   4.32053220e-01
C     7.290600791700000e+00   4.396529766708279e+00   3.506410800000000e+00  2.52085475e+00   1.40949570e+00   1.48654810e-01
C     8.529869780300000e+00   3.717436779551695e+00   3.479249400000000e+00  1.46640654e+00  -1.47865212e+00  -4.39915120e-01
C     9.779151598900000e+00   4.396003934442922e+00   3.306612600000000e+00 -5.64884620e-01   1.64114279e+00   9.77360200e-01
C     1.229599784530000e+01   5.875825892900965e+00   3.196740000000000e+00 -1.03177097e+00   3.13725910e-01  -3.08131410e-01
C     1.353701634300000e+01   6.643640309016111e+00   3.130896000000000e+00 -1.71099683e+00  -2.82247693e+00   9.33302250e-01
C     4.837308112000000e+00   5.877043641185517e+00   3.335472900000000e+00  1.88142671e+00  -2.14888630e-01  -9.68043780e-01
C     6.098057209200000e+00   6.535345333284768e+00   3.373134300000000e+00 -3.03675970e-01   1.88836471e+00   8.51300050e-01
C     7.310195076699999e+00   5.810372328209249e+00   3.556972200000000e+00 -2.78173000e-01   1.59416376e+00  -1.38092420e+00
C     8.516644759500000e+00   6.562803802334781e+00   3.454339200000000e+00  2.68939616e+00  -1.49240973e+00  -8.01158400e-02
C     9.773696307400000e+00   5.836038117399090e+00   3.340765800000000e+00  7.50455720e-01   6.02845140e-01   2.95341720e-01
C     1.105351316560000e+01   6.604350101654905e+00   3.309373200000000e+00 -1.50698573e+00  -3.04959174e+00  -9.53966920e-01
C     1.351263941570000e+01   8.029431623359546e+00   3.200210700000000e+00 -1.82650066e+00   1.43523550e+00   7.17809050e-01
C     9.757152312000001e+00   2.108720592650672e-01   3.430102500000000e+00  3.50566281e+00  -1.90791842e+00  -1.03330728e+00
C     6.122170480099999e+00   8.009779773860664e+00   3.343979700000000e+00 -9.50650000e-03  -9.87616380e-01   5.73212160e-01
C     2.492848337500000e+00   1.324462860224504e-01   3.329745300000000e+00 -3.33241534e+00   1.80036414e+00   5.48688800e-02
C     8.646283990200001e+00   7.974836179004095e+00   3.378906300000000e+00 -3.67777074e+00  -5.29760130e-01   9.69322900e-02
C     4.871723209500000e+00   1.685294118275768e-01   3.341490300000000e+00  6.84241540e-01   9.50421000e-02  -6.47408140e-01
C     1.098522053780000e+01   7.982850211119784e+00   3.226317000000000e+00  2.79917169e+00   1.75176384e+00   8.82918850e-01
C     7.298239037900000e+00   1.926387955772280e-01   3.242724000000000e+00  4.45161110e-01  -1.04449394e+00  -8.42805300e-02
