32
Lattice="9.86 0 0 4.93 8.53901048131456 0 0 0 30 " PBC="1 1 1" Properties=species:S:1:pos:R:3:force:R:3 Energy="-256.9147007"
C     5.072958611700000e+00   6.732362421095511e+00  -2.767091999999991e-01 -2.01236724e+00  -1.90146670e-01   7.80956670e-01
C     6.268868447499999e+00   7.464459778784809e+00  -1.193555999999987e-01  4.10699800e-01  -6.04253320e-01  -1.65405772e+00
C     7.503514082099999e+00   6.750239864216649e+00  -1.444440000000000e-01 -1.22632210e-01   8.60147720e-01   7.01888450e-01
C     8.737402468700001e+00   7.485027180987356e+00  -1.366538999999989e-01 -5.24147980e-01  -6.38043600e-01  -5.13622920e-01
C     9.938465534899999e+00   6.722787628644287e+00  -2.406378000000018e-01  2.62498940e-01   2.55847462e+00  -1.75103440e-01
C     1.115458881440000e+01   7.444046847281845e+00  -2.936027999999986e-01  1.44796677e+00   8.61240400e-01   6.80429700e-02
C     1.241477584230000e+01   6.773657588117420e+00  -3.349437000000002e-01  4.64483540e-01  -1.32203941e+00   4.56048470e-01
C     1.368055102520000e+01   7.450252658538290e+00  -2.803629000000001e-01 -5.79272390e-01   2.90713300e-01  -5.52385790e-01
C     1.328666009700000e+00   3.277744429503544e-01  -3.209403000000002e-01  6.21004130e-01   3.98656780e-01   9.49244970e-01
C     2.550198731700000e+00   1.062950626258321e+00  -2.285067000000005e-01  4.90373280e-01  -1.82197997e+00  -7.15203400e-01
C     3.821806893400000e+00   3.838606277554048e-01  -1.872657000000011e-01 -2.12965537e+00  -1.76774898e+00   6.69389900e-02
C     5.016238912400000e+00   1.058096967311384e+00  -2.566625999999985e-01  1.74348187e+00   1.10888972e+00   7.07320530e-01
C     6.248488813500000e+00   3.333569064417592e-01  -2.344682999999996e-01  2.31040020e-01   5.67825370e-01  -2.51673470e-01
C     7.497618590899999e+00   1.066991627577876e+00  -2.183865000000011e-01  2.26202240e-01  -7.59565950e-01  -8.79008200e-02
C     8.731920801699999e+00   3.386720989051400e-01  -3.060350999999990e-01  3.27403790e-01   1.13042220e-01   3.73851200e-02
C     9.981474608400001e+00   1.040376812763288e+00  -4.068599999999982e-01 -1.50922850e+00   1.08134748e+00   2.57840930e-01
C     2.544395185000000e+00   2.431619858347680e+00  -3.378165000000024e-01  9.58315820e-01   1.95117244e+00   4.70085980e-01
C     3.779475349800000e+00   3.153350686534048e+00  -1.714853999999981e-01 -2.44914170e-01   6.77224160e-01  -4.42693170e-01
C     5.030426219900000e+00   2.495024316694510e+00  -1.796475000000015e-01  1.71976460e-01  -8.89480450e-01   3.18267910e-01
C     6.272315848600000e+00   3.187271564105429e+00  -7.126560000000026e-02  3.68544250e-01   1.40425130e-01  -2.42039230e-01
C     7.537733606500000e+00   2.490132317590518e+00  -1.247946000000013e-01 -1.01059276e+00   3.14791370e-01  -3.04837800e-01
C     8.753700950099999e+00   3.249391755276066e+00  -2.302116000000005e-01 -5.03192590e-01  -1.45346162e+00  -6.70809860e-01
C     9.963580976199999e+00   2.497616504105923e+00  -4.585307999999984e-01 -9.96822000e-03  -7.27770670e-01   8.83610410e-01
C     1.120911742450000e+01   3.162227585658742e+00  -4.541370000000029e-01 -1.20625843e+00   1.91473353e+00  -4.59197400e-02
C     3.746288118099999e+00   4.574537907119179e+00  -1.397826000000002e-01  1.24709528e+00   1.14518942e+00  -1.36875817e+00
C     5.007798160800000e+00   5.301994568782912e+00  -2.261433000000004e-01  5.32720900e-01  -2.29135730e-01   1.27930435e+00
C     6.266097442400000e+00   4.611229095860587e+00  -6.707579999999780e-02 -1.22703315e+00  -2.96994480e-01  -7.29075080e-01
C     7.480623007500000e+00   5.325762648283678e+00  -1.261223999999999e-01 -1.56099950e-01   1.25851373e+00   1.06307280e-01
C     8.699294012399999e+00   4.674795368456012e+00  -2.315651999999986e-01  1.37680488e+00  -1.96093891e+00  -7.68863700e-02
C     9.939665595499999e+00   5.355974521262965e+00  -3.494609999999980e-01 -1.74693660e-01  -1.72494019e+00   1.02445900e-01
C     1.116134463990000e+01   4.630694709540901e+00  -4.411677000000012e-01  1.08431911e+00  -1.02590312e+00   5.80319910e-01
C     1.240747939300000e+01   5.326725421715297e+00  -3.192912000000021e-01 -5.54874470e-01   1.70015680e-01   6.49581500e-02
