26
Lattice="8.88768389401873 1.33226762955019e-15 0 4.44384194700937 7.69696003302603 0 0 0 30 " PBC="1 1 1" Properties=species:S:1:pos:R:3:force:R:3 Energy="-207.05477956"
C     5.188076157457394e-01   7.976730672562445e-01   3.747417300000000e+00  2.32476629e+00  -4.24503561e+00  -5.76285890e-01
C     2.954960164338385e+00   1.037779581452894e-01   3.652509300000000e+00 -2.36949591e+00   9.44993960e-01   4.06305300e-01
C     4.287601217394450e+00   4.152792414618101e-01   3.651099600000000e+00  1.16461755e+00   4.40423112e+00  -1.82248500e-01
C     9.744932690461811e+00   7.201649953295058e+00   3.580611000000000e+00  2.14346261e+00  -1.03356323e+00   1.09489070e+00
C     1.113973731538817e+01   7.596706971670049e+00   3.645167700000000e+00 -2.49966840e-01   5.54069540e-01  -2.57546380e-01
C     1.220298582541530e+01   6.666772345072697e+00   3.661867500000000e+00 -2.83048680e-01  -1.50933925e+00  -4.69319100e-02
C     4.709597829259081e+00   6.974515818563370e+00   3.716198400000000e+00 -2.03829290e+00   4.68760082e+00  -2.12920900e-02
C     5.744385486929869e+00   6.061413058098823e+00   3.720443100000000e+00 -1.10752009e+00  -1.68046122e+00   8.92652090e-01
C     7.062136336638726e+00   6.449886019894550e+00   3.685267500000000e+00  1.52102635e+00  -9.04372820e-01  -3.89009880e-01
C     8.095610661203050e+00   5.447437871036966e+00   3.659153700000000e+00 -3.00752591e+00  -1.20305072e+00   4.17857400e-01
C     9.410999964427550e+00   5.839074129465824e+00   3.689837400000000e+00  1.73429346e+00  -3.72387980e-01  -1.06272202e+00
C     1.046109012512698e+01   4.888687063707155e+00   3.645033300000000e+00 -1.58295950e-01  -1.43507568e+00  -2.85659090e-01
C     1.182151212278806e+01   5.285357057026033e+00   3.630090300000000e+00  4.30005700e-02   1.18061221e+00   5.99063650e-01
C     3.995801360204212e+00   4.397362088057745e+00   3.735601500000000e+00  8.04582900e-01  -4.38453388e+00   8.39919000e-02
C     5.384042341627477e+00   4.679281798830168e+00   3.877938600000000e+00 -5.78580690e-01   4.95162820e-01  -2.62168703e+00
C     6.319408767703544e+00   3.628853956899176e+00   3.630374400000000e+00  7.05114690e-01   3.07142370e-01   3.03427297e+00
C     7.697398561281471e+00   4.016447464041876e+00   3.681258300000000e+00 -2.81214020e-01   3.38805870e+00  -4.79424650e-01
C     8.739339560232963e+00   3.141827502517721e+00   3.716097600000000e+00  2.11947330e-01  -4.05301121e+00  -6.41914930e-01
C     1.010923796192402e+01   3.475555759130474e+00   3.621884700000000e+00  7.44497530e-01   2.24097601e+00   1.44524833e+00
C     2.282627099136711e+00   2.560611039161147e+00   3.774942600000000e+00  1.32932090e+00  -2.02250738e+00  -1.82812180e+00
C     3.714185318764585e+00   2.961575012541561e+00   3.663480900000000e+00 -2.19812591e+00  -1.79182664e+00   1.16755110e+00
C     4.696344645009837e+00   1.821041553475369e+00   3.709264200000000e+00 -3.74906538e+00   1.89051719e+00   3.60106190e-01
C     5.985334016458117e+00   2.231484487071929e+00   3.864165000000000e+00  1.94013047e+00   9.52707110e-01  -2.64909020e+00
C     7.012335440871341e+00   1.269041287970269e+00   3.688781700000000e+00  8.22827440e-01   6.66280550e-01   8.84123150e-01
C     8.372508405655227e+00   1.704823845499194e+00   3.700454100000000e+00  3.19611900e-02   1.59482860e+00   3.55004490e-01
C     1.918856063002376e+00   1.128587931038832e+00   3.724305900000000e+00  4.99583000e-01   1.32798463e+00   3.00867100e-01
