32
Lattice="9.86 0 0 4.93 8.53901048131456 0 0 0 30 " PBC="1 1 1" Properties=species:S:1:pos:R:3:force:R:3 Energy="-253.54505098"
C     5.058625671999999e+00   8.251585850221312e+00  -1.213377299999998e+00 -3.26357327e+00  -3.32219635e+00   5.97783560e-01
C     1.311120780600000e+00   3.684625717172400e-01  -1.059572700000000e+00  1.44464404e+00  -2.84880120e+00  -2.49194966e+00
C     7.437346235000000e+00   8.097131716318446e+00  -1.215002699999999e+00  2.75104928e+00   1.95336111e+00   6.49103360e-01
C     3.811373780900000e+00   2.624575024263192e-01  -1.175276700000001e+00 -9.94895040e-01   2.20231946e+00   1.79439640e-01
C     9.976839619600000e+00   8.115158421342773e+00  -1.076280899999997e+00 -1.73814732e+00   3.16526559e+00  -6.90314620e-01
C     6.265910496799999e+00   2.706929510837552e-01  -1.144166100000000e+00 -1.30070742e+00   3.75896446e+00   8.68100720e-01
C     1.237633002610000e+01   8.138427993411716e+00  -1.049709300000000e+00  3.06540654e+00  -1.94480302e+00  -1.13924246e+00
C     8.658226816599999e+00   3.309508694588096e-01  -1.302759000000002e+00  1.50016434e+00  -1.30829251e+00   1.65232982e+00
C     1.306858450500000e+00   1.726176253360759e+00  -1.182520199999999e+00  4.40467091e+00   5.24713260e-01   1.83277419e+00
C     2.580730123100000e+00   2.377092726076068e+00  -9.732051000000013e-01  9.70838500e-02   2.14511801e+00  -1.79096291e+00
C     3.845720104900000e+00   1.762345281611315e+00  -1.155667200000000e+00 -1.39254271e+00  -2.34116627e+00   1.28411677e+00
C     5.035291341100000e+00   2.548649131728700e+00  -1.100954100000003e+00  2.17016590e-01  -4.40137446e+00   1.90887920e-01
C     6.259241291400000e+00   1.803703381140461e+00  -1.106376900000001e+00  2.08162430e-01  -2.88100114e+00  -9.62978310e-01
C     7.519583515699999e+00   2.429569556541327e+00  -1.163889299999997e+00 -2.50747331e+00   2.47737463e+00   3.36332770e-01
C     8.670760010500000e+00   1.708742668004372e+00  -1.261467900000000e+00  4.06646697e+00   7.93684980e-01   5.42467810e-01
C     1.002945632640000e+01   2.390847278767148e+00  -1.126578000000002e+00 -6.92442321e+00   3.83519823e+00  -3.39843520e-01
C     2.554403479399999e+00   3.802009786438864e+00  -9.621893999999998e-01 -3.09731120e-01   3.24640406e+00  -3.90007350e-01
C     3.797306223100000e+00   4.633226867708639e+00  -9.545445000000008e-01  6.29676080e-01  -3.11955038e+00   5.74731450e-01
C     5.030813422100000e+00   3.899167074630828e+00  -1.022556299999998e+00 -4.28063200e-01   2.08991955e+00  -1.55289337e+00
C     6.255391355800000e+00   4.553673774302453e+00  -1.336270499999998e+00 -8.54042700e-02   1.51792959e+00   2.91970145e+00
C     7.481936951100000e+00   3.886052179214806e+00  -1.133540099999998e+00  2.39040860e-01  -1.16389215e+00  -1.25688277e+00
C     8.709515184199999e+00   4.570786122084582e+00  -1.094500799999999e+00 -5.44488100e-02   9.66471620e-01   3.49674960e-01
C     9.894314624100000e+00   3.880227037045559e+00  -9.955130999999966e-01  3.82390688e+00  -2.29090842e+00  -1.42641496e+00
C     1.115527314770000e+01   4.595450456125328e+00  -1.102907699999999e+00  1.02476085e+00  -9.27151400e-01   1.83054724e+00
C     3.913947163700000e+00   6.014204314893975e+00  -8.441595000000000e-01 -2.75613505e+00   1.71034794e+00  -2.03882463e+00
C     5.090021095200000e+00   6.801235090973523e+00  -1.118256299999999e+00 -6.69860900e-02  -1.72160921e+00   3.32688900e-01
C     6.280390843499999e+00   5.989228392360814e+00  -1.247812200000002e+00 -2.50386950e-01   8.81337460e-01  -7.05650270e-01
C     7.508354060299999e+00   6.689184914603390e+00  -1.320828600000002e+00  8.20887780e-01  -2.16100450e-01   1.52484834e+00
C     8.809775065900000e+00   5.990745091402271e+00  -1.104925200000000e+00 -4.12905996e+00   9.37232220e-01  -1.22022674e+00
C     9.931617123999999e+00   6.785957264202916e+00  -1.033758299999999e+00  3.96550322e+00  -4.96538480e+00  -2.85222480e-01
C     1.125193531260000e+01   6.050533278810821e+00  -1.053047700000000e+00 -2.87790696e+00  -2.61287606e+00   5.35303060e-01
C     1.247352808200000e+01   6.647325745939279e+00  -9.458099999999980e-01  8.21444080e-01   3.85946566e+00   9.05821200e-02
