32
Lattice="9.86 0 0 4.93 8.53901048131456 0 0 0 30 " PBC="1 1 1" Properties=species:S:1:pos:R:3:force:R:3 Energy="-253.08024262"
C     9.787737982700000e+00   1.219263958913000e-01   4.123266900000000e+00  1.72364207e+00   2.48648214e+00  -7.78866210e-01
C     1.224951479800000e+00   8.541452636997280e-01   4.147508100000000e+00 -2.63662860e+00   9.98367640e-01   3.43691480e-01
C     2.387704206200000e+00   7.714756876386560e-02   4.026054300000000e+00  1.58619471e+00   6.18322086e+00   6.34139440e-01
C     3.633891365200000e+00   8.988975345045697e-01   4.107118799999999e+00  3.43839660e-01  -3.55669643e+00  -6.95695530e-01
C     4.910385797800000e+00   2.255133881944944e-01   3.994447500000000e+00 -2.06477707e+00  -1.87308515e+00  -1.36186830e+00
C     6.144392800199999e+00   8.704339385309567e-01   4.007889599999999e+00  1.13910203e+00  -1.56228138e+00   8.52673000e-02
C     7.368011553100000e+00   1.094555126456792e-01   4.169562900000000e+00  6.87004950e-01   4.72345097e+00  -1.94306155e+00
C     8.587867138400000e+00   9.008539925857473e-01   4.096457700000000e+00  7.85654200e-02  -5.12455790e-01   2.02459950e+00
C     1.109595346500000e+01   2.383950149222242e+00   4.316355000000000e+00 -1.94613551e+00  -3.56897218e+00  -1.34907170e-01
C     2.414814818500000e+00   3.064557359107244e+00   4.375308900000000e+00  2.12662888e+00  -2.44608689e+00  -2.86954490e-01
C     3.674917099700000e+00   2.266621327353583e+00   4.144927500000000e+00 -3.22018501e+00   1.45817228e+00   7.12572400e-01
C     4.856934639199999e+00   2.868328763524224e+00   3.896235600000000e+00  3.42433803e+00   4.93190678e+00  -6.74705230e-01
C     6.148441858499999e+00   2.210710277653478e+00   3.773229300000000e+00  5.23994860e-01   4.55269381e+00   3.11831834e+00
C     7.397044717499999e+00   3.090076191926724e+00   4.167874500000000e+00 -1.85734887e+00  -2.42795606e+00  -1.98684779e+00
C     8.607587582099999e+00   2.359450105743131e+00   4.286146200000000e+00  3.79156450e-01  -1.16795980e-01  -8.95724510e-01
C     9.861522482600000e+00   3.122208402972859e+00   4.308394499999999e+00 -9.21742750e-01  -2.80691409e+00  -5.16463820e-01
C     1.223634883860000e+01   4.431442791907331e+00   4.455167700000000e+00  3.46394027e+00   1.10770874e+00  -2.57921865e+00
C     3.641898868400000e+00   5.060440478621528e+00   4.051316400000000e+00 -6.64701520e-01   3.17581391e+00   1.11585561e+00
C     4.852160082099999e+00   4.435806994773555e+00   3.840712500000000e+00  1.52789949e+00  -2.99096214e+00   8.92750710e-01
C     6.095036844700000e+00   5.208810652947502e+00   3.843327300000000e+00  2.38654920e-01  -2.30572864e+00  -2.73060070e-01
C     7.369080179900000e+00   4.505759593306973e+00   4.075944000000000e+00 -1.74809059e+00  -5.18965240e-01  -6.12244830e-01
C     8.575708525900000e+00   5.208000983973788e+00   4.065558300000000e+00  1.22937542e+00   6.84438830e-01  -1.20469318e+00
C     9.860426247800000e+00   4.498668201273646e+00   4.071440400000000e+00 -1.86470207e+00   2.44912940e-01   1.93938344e+00
C     1.108653770730000e+01   5.137943697171885e+00   4.201567200000000e+00 -1.21173959e+00   4.33895272e+00  -8.76115270e-01
C     1.355960067300000e+01   6.537835821081365e+00   4.044281100000000e+00 -2.30581497e+00  -1.39871056e+00  -4.55194960e-01
C     4.883543771899999e+00   7.234254033551345e+00   3.980374200000000e+00 -5.06503570e-01   2.25005738e+00  -4.32820650e-01
C     6.088992418199999e+00   6.610706370276008e+00   3.740907000000000e+00  7.13414320e-01  -1.86290791e+00   1.37631471e+00
C     7.311877094100000e+00   7.294890913211502e+00   3.822323700000000e+00  1.24756880e-01  -1.93020671e+00  -1.72765220e-01
C     8.524407192399998e+00   6.619083310337097e+00   3.848000700000000e+00  3.57737578e+00  -7.57068250e-01  -2.94956520e-01
C     9.832582150099999e+00   7.342258341365948e+00   3.724226100000000e+00 -3.07748300e-01  -9.92345370e-01   2.96474153e+00
C     1.110148379110000e+01   6.638128633921585e+00   3.973326000000000e+00 -2.08409600e+00  -2.47405814e+00  -6.83767150e-01
C     1.232987936890000e+01   7.313568461614615e+00   3.973963800000000e+00  4.52330250e-01  -3.03398209e+00   1.65229665e+00
