26
Lattice="8.88768389401873 1.33226762955019e-15 0 4.44384194700937 7.69696003302603 0 0 0 30 " PBC="1 1 1" Properties=species:S:1:pos:R:3:force:R:3 Energy="-208.09235245"
C     1.205605632361682e+01   6.068034906751832e+00  -3.703526999999980e-01 -2.29935225e+00  -8.12900730e-01   8.87200850e-01
C     8.254369003575055e+00   5.880262486826362e+00  -2.233698000000004e-01  6.17548860e-01  -6.68154510e-01  -7.70095200e-01
C     9.618094419501897e+00   5.475083581163918e+00  -3.617126999999982e-01 -1.61942554e+00  -4.63882360e-01   8.88433730e-01
C     9.912162148699062e+00   4.123384331553079e+00  -3.078597000000016e-01  2.44403455e+00  -2.09263331e+00  -1.43576191e+00
C     5.903490759265376e+00   5.297908951564557e+00  -2.440860000000029e-01 -2.26145209e+00  -3.32866540e-01  -1.18032919e+00
C     7.263510188759827e+00   4.886665611094476e+00  -3.396618000000018e-01 -1.04497766e+00   1.22975890e-01   1.25300809e+00
C     7.575385059185690e+00   3.502316087945176e+00  -3.202028999999982e-01  8.92373100e-01  -1.04789174e+00  -1.23348189e+00
C     8.959049905036714e+00   3.087602650015171e+00  -3.750962999999992e-01 -1.13068494e+00   2.30001825e+00   9.05563680e-01
C     9.326747073731665e+00   1.752118970947534e+00  -3.320721000000013e-01 -1.19913297e+00  -9.97856060e-01   4.40774670e-01
C     3.444992706083008e+00   4.642301446487632e+00  -3.266957999999995e-01  2.11628946e+00   3.78654411e+00  -8.75782430e-01
C     4.817946604188039e+00   4.313208607083346e+00  -3.704600999999990e-01  1.91859462e+00  -1.52350902e+00   1.08928000e-02
C     5.176403558963724e+00   2.904189018554691e+00  -5.114796000000013e-01  1.28583157e+00   1.34058700e-02   1.50444513e+00
C     6.589288620895037e+00   2.491718166899027e+00  -4.421576999999992e-01 -2.04151061e+00   6.23378150e-01   4.98965210e-01
C     6.903277071417296e+00   1.092771512992033e+00  -3.345461999999984e-01  3.23083190e-01   1.74283497e+00  -6.61788200e-01
C     8.297097251581443e+00   7.856460284221675e-01  -2.706425999999986e-01 -1.17088063e+00  -2.00062480e+00  -2.57721620e-01
C     2.434686350256281e+00   3.731809340926059e+00  -4.271256000000001e-01 -1.51503833e+00  -1.29571388e+00   1.04330560e+00
C     2.827660358550559e+00   2.374234616876318e+00  -3.636066000000007e-01 -1.60130779e+00  -2.32145148e+00   5.44076990e-01
C     4.174610937666515e+00   1.900086254199457e+00  -3.397593000000008e-01 -1.79895910e-01   6.72003990e-01  -9.32666900e-01
C     4.504267308350189e+00   4.786814103169291e-01  -2.892660000000014e-01  5.61687120e-01   3.24512202e+00  -1.22304400e-02
C     5.852041153711605e+00   1.380420532932386e-01  -3.805997999999988e-01  1.41268542e+00  -2.45205842e+00   4.97455670e-01
C     1.063295113616416e+01   6.384209707228968e+00  -3.834584999999997e-01  2.62500430e+00   4.16439780e+00  -2.72889100e-02
C     1.766531115481271e+00   1.355707826394465e+00  -2.483345999999997e-01  2.79988268e+00   5.54706900e-01  -8.11461710e-01
C     6.597746455328130e+00   7.686293736729626e+00  -2.288534999999996e-01 -2.32385179e+00  -1.03623884e+00   5.39728820e-01
C     7.943053657275218e+00   7.244185124721644e+00  -1.609224000000005e-01 -1.37799482e+00  -2.70223840e-01  -7.59001400e-01
C     4.158579336829150e+00   7.077703188965558e+00  -2.387157000000002e-01  2.50758640e-01   4.35765800e-02  -7.08424640e-01
C     5.511116136391236e+00   6.684108977844268e+00  -2.538432000000022e-01  2.51773182e+00   4.70410000e-02   6.52183200e-01
