32
Lattice="9.86 0 0 4.93 8.53901048131456 0 0 0 30 " PBC="1 1 1" Properties=species:S:1:pos:R:3:force:R:3 Energy="-253.8420489"
C     9.700240737100000e+00   5.875842543971400e-01   4.476498000000000e+00  3.03672056e+00  -4.97447158e+00  -5.78738170e-01
C     1.132147927300000e+00   1.198531156077455e+00   4.688788199999999e+00 -2.96209517e+00   2.35533600e+00  -4.15002720e-01
C     2.326148620600000e+00   5.336206968172080e-01   4.554090900000000e+00  1.35973541e+00  -3.57251423e+00  -9.06654880e-01
C     3.559305296600000e+00   1.195387007028614e+00   4.491588000000000e+00  8.07038520e-01  -6.09646100e-01   1.95565330e-01
C     4.806176443800000e+00   4.784045517899648e-01   4.348769399999999e+00 -3.66892870e-01  -2.18213929e+00   1.05368437e+00
C     6.049982511400000e+00   1.122401693533120e+00   4.564791300000000e+00 -2.30443800e-01   7.24794060e-01  -5.13917280e-01
C     7.301673867499999e+00   4.149848940044809e-01   4.690620600000000e+00 -1.96973148e+00   1.59568204e+00  -1.81066443e+00
C     8.466335637800000e+00   1.192987203523315e+00   4.535555400000000e+00  6.52679680e-01  -1.46085129e+00   1.35558421e+00
C     1.099376965080000e+01   2.646280505782514e+00   4.866828600000000e+00 -1.41673691e+00  -1.33745595e+00  -1.53017630e-01
C     2.373058951000000e+00   3.350304158716715e+00   4.906278600000000e+00 -1.86043410e+00  -1.88837217e+00  -3.08400150e-01
C     3.561825611200000e+00   2.570577054471026e+00   4.664438700000000e+00  2.97928650e-01   2.24607153e+00   5.75015440e-01
C     4.788704967500000e+00   3.243435283125637e+00   4.598787600000000e+00  1.35500324e+00   3.04466249e+00  -1.28758667e+00
C     6.020732032600000e+00   2.553306051874177e+00   4.493269500000000e+00  8.51905350e-01   1.46804131e+00   1.29545336e+00
C     7.241347577399999e+00   3.378030496525485e+00   4.605497100000000e+00 -1.43650700e-01  -2.21686591e+00  -7.73586430e-01
C     8.471937301000001e+00   2.538815692650036e+00   4.706299800000000e+00 -1.08641454e+00   5.66126168e+00  -2.45606990e-01
C     9.678103015800000e+00   3.305329873639394e+00   4.809570300000001e+00  2.13379574e+00  -1.65664703e+00  -1.84364460e-01
C     1.209062139100000e+01   4.725738592639064e+00   4.931320500000000e+00  6.05571912e+00   1.58128899e+00  -2.23299627e+00
C     3.579846536000000e+00   5.460340442102146e+00   4.522735200000001e+00 -9.82504200e-01  -1.81485313e+00   1.56857073e+00
C     4.830708912600000e+00   4.776913053225914e+00   4.444270200000000e+00 -1.01256002e+00  -1.60844678e+00  -1.35293400e-01
C     6.027875602599999e+00   5.573556108012692e+00   4.207496700000000e+00  8.57113300e-01  -5.77188393e+00   1.32875009e+00
C     7.267338882500001e+00   4.812111110594788e+00   4.420436400000000e+00 -2.52383290e-01  -1.71499942e+00   3.42164810e-01
C     8.553208055199999e+00   5.424381985850028e+00   4.507539899999999e+00 -3.29848359e+00   7.00400580e-01  -7.87452950e-01
C     9.715535914200000e+00   4.696455593219791e+00   4.688416800000001e+00 -1.93281450e-01   6.21054090e-01   2.94538560e-01
C     1.092609016710000e+01   5.414351978750114e+00   4.735533900000000e+00 -2.26690820e-01   1.14303264e+00   5.64393050e-01
C     1.351903614000000e+01   6.842342570545081e+00   4.435525800000000e+00 -3.06660371e+00   1.41457885e+00  -1.56945600e-02
C     4.853154167300000e+00   7.535184645426038e+00   4.224785400000000e+00 -3.21561584e+00   5.82286539e+00   1.35582148e+00
C     6.044555813900000e+00   6.925600399038121e+00   4.151206800000001e+00  2.32812586e+00   1.21084402e+00   7.18492820e-01
C     7.278260853799999e+00   7.629730362652798e+00   4.362888000000000e+00  2.17197100e-02  -3.60816240e-01  -6.84026870e-01
C     8.483954077400000e+00   6.826611493098197e+00   4.360943100000000e+00  7.26025730e-01   1.91663622e+00   1.94506910e-01
C     9.712719996799999e+00   7.520392944522058e+00   4.348007100000000e+00  1.50794449e+00   2.25493306e+00   1.24788118e+00
C     1.096707779270000e+01   6.844567751286064e+00   4.624069800000000e+00 -3.39927530e-01   7.18070270e-01  -1.13095665e+00
C     1.222453453730000e+01   7.596338306000444e+00   4.599162900000000e+00  6.32994670e-01  -3.30959017e+00   7.35381500e-02
