32
Lattice="9.86 0 0 4.93 8.53901048131456 0 0 0 30 " PBC="1 1 1" Properties=species:S:1:pos:R:3:force:R:3 Energy="-252.96927741"
C     5.120433969400000e+00   7.769758009129917e+00  -9.698867999999976e-01  1.06244162e+00  -4.31332010e-01   4.93474200e-02
C     6.388925582300000e+00   8.522003076656670e+00  -9.992979000000020e-01 -1.87965344e+00  -3.41927003e+00  -4.85404150e-01
C     7.625053421400000e+00   7.745946978406437e+00  -9.989735999999994e-01 -1.78710291e+00   2.54786171e+00  -1.36307710e-01
C     8.828089572200000e+00   8.520183669693695e+00  -1.015344299999999e+00  4.30008270e-01  -8.75450210e-01   6.38833040e-01
C     1.005407433070000e+01   7.783961372211825e+00  -1.044191099999999e+00  5.80252900e-02   4.22256650e-01   1.34021814e+00
C     1.133488206960000e+01   8.434375324160385e+00  -9.747599999999998e-01 -2.06820237e+00   1.57763824e+00  -1.04104170e+00
C     1.252855274870000e+01   7.742911957911530e+00  -9.434445000000018e-01  2.24826994e+00  -4.79402590e-01   1.24687901e+00
C     1.378331431160000e+01   8.525350624935145e+00  -9.305568000000015e-01 -2.16359670e-01  -1.93995248e+00  -4.98244960e-01
C     1.387862048000000e+00   1.359505251432328e+00  -1.027216500000002e+00  4.94776758e+00   5.70503610e-01   2.70424461e+00
C     2.691660299600000e+00   1.936644332040018e+00  -6.065103000000001e-01 -4.37812644e+00   7.22935478e+00  -1.62588265e+00
C     3.892684024400000e+00   1.453666798577594e+00  -7.532069999999997e-01  5.06593600e-02  -8.52425061e+00  -1.39756946e+00
C     5.078178742200000e+00   2.028655414786000e+00  -8.555510999999996e-01  6.12897674e+00   1.19999942e+00  -2.71507590e-01
C     6.333690996200001e+00   1.315740602579603e+00  -1.052850899999999e+00  2.75113529e+00   2.35296030e-01   7.57685200e-01
C     7.697025603999999e+00   2.057369545327096e+00  -1.061928299999998e+00 -4.40313314e+00  -2.34486369e+00   4.94254150e-01
C     8.930816376600001e+00   1.397601875908639e+00  -9.935690999999984e-01 -1.06403198e+00   6.34495100e-02  -4.66286240e-01
C     1.014796021540000e+01   2.161987964706169e+00  -9.768789000000027e-01 -2.77760450e+00  -1.76988403e+00  -7.33689890e-01
C     2.777708223800000e+00   3.448695077752725e+00  -5.825943000000002e-01 -4.22224157e+00  -8.53005060e-01   8.69320800e-02
C     4.002603205800000e+00   4.133216313871445e+00  -6.024159000000004e-01 -1.59595964e+00   2.77633170e-01   1.08154210e-01
C     5.219365018900000e+00   3.393370572682490e+00  -7.540902000000003e-01 -9.99033040e-01   3.18098307e+00   6.47510980e-01
C     6.429109174199999e+00   4.172914344373174e+00  -8.141315999999996e-01 -1.53126256e+00  -3.48225228e+00  -1.28788748e+00
C     7.602738811699999e+00   3.407687760774097e+00  -9.838707000000007e-01  2.57967032e+00   3.64498240e+00  -2.12728530e-01
C     8.840042159999999e+00   4.185878099303701e+00  -1.035583500000001e+00 -1.53742376e+00   1.07939919e+00   9.91170290e-01
C     1.010968985790000e+01   3.566883436416300e+00  -9.662865000000025e-01 -2.12962241e+00  -1.75175190e+00   2.79584670e-01
C     1.124089827510000e+01   4.226780557233634e+00  -6.859727999999983e-01  5.84633355e+00   2.45039460e-01   6.00122690e-01
C     3.882450774100000e+00   5.568966646050008e+00  -6.352787999999983e-01  1.60129915e+00   8.49924570e-01  -1.17717727e+00
C     5.062355907200000e+00   6.319462411889827e+00  -9.179937000000002e-01  1.73205987e+00  -1.16041460e+00   3.00069270e-01
C     6.328089530200000e+00   5.514405016176056e+00  -1.029707699999999e+00 -1.47451506e+00   5.16779477e+00   1.19610723e+00
C     7.486709684099999e+00   6.343019236271318e+00  -1.003826400000001e+00  2.35110530e+00  -1.78610542e+00  -1.69835960e-01
C     8.707497926799999e+00   5.610322183876010e+00  -9.099003000000003e-01  3.50617862e+00   1.31860604e+00  -2.87921450e-01
C     1.002651198250000e+01   6.420194983769767e+00  -8.064273000000028e-01 -9.89303820e-01  -4.12792684e+00  -6.18091690e-01
C     1.127729823990000e+01   5.623496254634658e+00  -6.279174000000012e-01 -1.20859669e+00   1.85453531e+00  -9.54611270e-01
C     1.253922181100000e+01   6.287744769802496e+00  -6.951740999999991e-01 -1.03175790e+00   1.48060382e+00  -7.69250100e-02
