32
Lattice="9.86 0 0 4.93 8.53901048131456 0 0 0 30 " PBC="1 1 1" Properties=species:S:1:pos:R:3:force:R:3 Energy="-255.25728693"
C     1.145064625900000e+00   9.141484633921639e-01   3.432378300000000e+00 -1.11732433e+00   3.26603999e+00  -1.80867620e-01
C     2.352899342900000e+00   1.638442873304838e+00   3.396625800000000e+00  1.65813160e+00   1.58551569e+00  -5.49125330e-01
C     3.608054862099999e+00   9.072460396607608e-01   3.539335800000000e+00 -1.10248831e+00   4.12080327e+00  -5.64754860e-01
C     4.821799071500000e+00   1.694475518514178e+00   3.432653100000000e+00 -1.01173436e+00   3.59199880e-01   5.68082060e-01
C     6.007854527500000e+00   9.906147898999351e-01   3.576003300000000e+00  4.03096150e+00  -8.47267180e-01   4.01231410e-01
C     7.336669768299999e+00   1.613563441590100e+00   3.587572500000000e+00 -1.05265054e+00   2.15335850e+00  -7.90779860e-01
C     8.581790617599999e+00   9.363621014251504e-01   3.413128800000000e+00 -1.65983900e+00  -7.02906800e-01   1.40631124e+00
C     9.757140677199999e+00   1.677935369824314e+00   3.353108400000000e+00  1.01829400e+00   1.51132393e+00  -6.02097630e-01
C     2.402453287200000e+00   3.138815412114782e+00   3.150714300000000e+00 -1.84245201e+00  -3.39428492e+00   8.54538930e-01
C     3.596615585900000e+00   3.830194754500515e+00   3.230406300000000e+00  1.83454158e+00  -1.54869392e+00  -2.73538010e-01
C     4.828891961100000e+00   3.145575661321693e+00   3.357887700000000e+00  1.00095502e+00  -2.51795547e+00   6.57668190e-01
C     6.115322118500000e+00   3.775419563974459e+00   3.572569200000000e+00 -1.97587857e+00  -1.16435726e+00   3.71168500e-02
C     7.335413653599999e+00   3.058579624820720e+00   3.620062200000000e+00  4.76800770e-01  -3.61938660e-01  -1.19648559e+00
C     8.518598814299999e+00   3.858484496220755e+00   3.388721100000000e+00 -1.37187010e-01  -5.38468730e-01   1.56117763e+00
C     9.738335783799998e+00   3.192256809203863e+00   3.234093600000000e+00  1.67021718e+00  -3.45473015e+00   1.56134280e-01
C     1.103259522490000e+01   3.857382109967787e+00   3.127011300000000e+00 -1.89867825e+00  -2.41437831e+00   6.53935920e-01
C     3.633260867500000e+00   5.195710786189924e+00   3.224260200000000e+00 -3.13119150e-01   2.56568839e+00   1.27322841e+00
C     4.851207901900000e+00   5.918936453550920e+00   3.491977200000000e+00  1.16371100e-01  -1.91781589e+00  -6.12119900e-01
C     6.071139852900000e+00   5.138764125298804e+00   3.700743300000000e+00  7.28753600e-02   4.61480337e+00  -1.37021215e+00
C     7.278917086100000e+00   5.967835097064641e+00   3.677815200000000e+00 -3.52833170e-01  -2.38755069e+00   9.76571400e-01
C     8.504739006699999e+00   5.278679910738634e+00   3.600404100000000e+00  8.53081360e-01  -3.39711070e-01  -1.49652987e+00
C     9.739991277800000e+00   5.979109579551909e+00   3.453926400000000e+00  1.19361540e+00  -9.25516860e-01   5.93501070e-01
C     1.099205933520000e+01   5.206282337334478e+00   3.309776400000000e+00  4.29341900e-02   3.23714426e+00  -4.47987460e-01
C     1.225341684370000e+01   5.878081557909360e+00   3.311666400000000e+00 -3.62101320e-01   2.50267585e+00   1.85937070e-01
C     4.820820811600000e+00   7.327053693915156e+00   3.420203700000000e+00  2.62568905e+00  -1.47316300e-02   1.46400936e+00
C     6.041863787400000e+00   8.091201715100505e+00   3.568063200000000e+00  9.68372880e-01  -3.11311879e+00  -4.22797100e-02
C     7.288763725799999e+00   7.343034793588894e+00   3.723130800000000e+00 -6.12836420e-01   2.80952485e+00  -4.78532530e-01
C     8.533318808299999e+00   8.097793404240541e+00   3.723810300000000e+00  2.72728340e-01  -2.93299561e+00  -7.43075570e-01
C     9.790099797800000e+00   7.390418616643463e+00   3.586123800000000e+00  1.87797580e-01   8.54617400e-02   8.54219920e-01
C     1.104600669830000e+01   8.117783740114849e+00   3.652403400000000e+00 -1.08402617e+00  -2.26274802e+00  -1.47309296e+00
C     1.230328231470000e+01   7.329050883076322e+00   3.479570100000000e+00 -3.07470002e+00   8.09924300e-02   6.66484610e-01
C     1.350013101970000e+01   8.016236973585640e+00   3.516943800000000e+00 -4.25518260e-01   1.94663780e+00  -1.48866927e+00
