26
Lattice="8.88768389401873 1.33226762955019e-15 0 4.44384194700937 7.69696003302603 0 0 0 30 " PBC="1 1 1" Properties=species:S:1:pos:R:3:force:R:3 Energy="-209.24757769"
C     9.994047229025045e-01   1.118698722853088e+00   3.513244500000000e+00 -1.99902740e-01  -1.24871394e+00   3.32586930e-01
C     3.378849360066152e+00   5.318933428795302e-01   3.489167400000000e+00  1.29498999e+00  -9.72958380e-01   5.29783890e-01
C     4.753443880651875e+00   9.309605543997516e-01   3.579682200000000e+00  2.79339270e-01  -7.00214810e-01   1.45791390e-01
C     1.024362889935815e+01   7.636411201197602e+00   3.659598000000000e+00 -8.16718040e-01   3.03832700e-02  -2.55212290e-01
C     7.154432085810152e+00   3.425341946438759e-01   3.705215400000000e+00  3.68312540e-01  -2.52265140e-01  -4.08014490e-01
C     1.260211793323126e+01   7.014812252195632e+00   3.675618900000000e+00  9.04850800e-02   4.49708710e-01  -4.07637400e-02
C     5.081054178309788e+00   7.392742379959868e+00   3.574214400000000e+00  8.68497900e-02   1.90562158e+00  -1.05817990e-01
C     6.106172791336444e+00   6.441242487720062e+00   3.533863200000000e+00  7.69363820e-01  -7.35490940e-01  -5.39561700e-02
C     7.488809154937773e+00   6.842489786199180e+00   3.525767700000000e+00 -6.48416790e-01   1.28481270e-01  -1.64415050e-01
C     8.513204932625749e+00   5.878820076516741e+00   3.562660200000000e+00  8.63942450e-01  -1.58281399e+00   1.03402650e-01
C     9.900288693222164e+00   6.243939999763846e+00   3.611000700000000e+00 -3.67260600e-01   2.70063050e-01   7.93375000e-03
C     1.091329432627421e+01   5.231860644820723e+00   3.616726200000000e+00 -6.35310230e-01   3.57762030e-01   3.98156660e-01
C     3.376082671818816e+00   5.626052063070740e+00   3.689146500000000e+00  3.29960510e-01   7.58408110e-01  -6.53809520e-01
C     4.404196478746395e+00   4.661580253183573e+00   3.610118100000000e+00 -6.63119700e-02  -5.14642120e-01   4.89003560e-01
C     5.770336190076092e+00   5.045423878369260e+00   3.545138100000000e+00 -3.22723800e-02   8.92829530e-01   7.76335440e-01
C     6.790628746308084e+00   4.087804518057601e+00   3.647998500000000e+00  1.63930829e+00  -7.26878360e-01  -7.24962310e-01
C     8.206051375812384e+00   4.456013000455946e+00   3.591468000000000e+00 -1.77810172e+00   1.35857150e+00  -8.92413200e-02
C     9.214788565381664e+00   3.475750954036835e+00   3.532598700000000e+00 -1.37131790e-01   1.51740310e-01   4.38729140e-01
C     1.057199304370836e+01   3.853144064899779e+00   3.573635700000000e+00  4.16959010e-01   2.33742270e-01  -3.76074530e-01
C     2.717636520432706e+00   2.870930839113063e+00   3.547798800000000e+00 -9.22686680e-01   2.52131770e-01   5.33288150e-01
C     4.048305663125481e+00   3.276927854657094e+00   3.667913400000000e+00  1.39795680e+00   3.04510870e-01  -9.36600980e-01
C     5.093121516683518e+00   2.305427873596934e+00   3.636163200000000e+00  4.16752000e-03  -1.54642550e-01   1.59849700e-01
C     6.465030001440033e+00   2.698377541285311e+00   3.660601200000000e+00 -1.75858820e-01   4.41940410e-01  -2.77623500e-02
C     7.502496895826045e+00   1.736269852671359e+00   3.637631700000000e+00 -2.26811790e-01  -1.07998435e+00   1.97418240e-01
C     8.869478404125669e+00   2.105156822096349e+00   3.558095700000000e+00 -2.80144100e-02  -3.06340560e-01  -4.95412200e-02
C     2.382289763880829e+00   1.491858736608332e+00   3.506930700000000e+00 -1.50683711e+00   7.39050470e-01  -2.26107520e-01
