32
Lattice="9.844 0 0 4.922 8.52515407485401 0 0 0 30 " PBC="1 1 1" Properties=species:S:1:pos:R:3:force:R:3 Energy="-258.07083487"
C     7.628839142457313e-04   1.241997645009690e-03   2.997188256074133e+00 -7.66039200e-02  -3.41879550e-01   6.01342300e-02
C     1.226304974054894e+00   7.068669466523667e-01   3.004311531241812e+00  3.29148810e-01   2.31137140e-01  -7.64375000e-02
C     2.463297186712836e+00   1.340247057920698e-03   2.997972266141181e+00 -1.76631840e-01  -4.81878200e-02   5.71653200e-02
C     3.693411114085588e+00   7.111606465550393e-01   2.997360387868676e+00 -1.09209520e-01   5.83828300e-02   2.51798800e-02
C     4.919743899786562e+00  -9.718192893463692e-04   2.998504676988098e+00  2.10252110e-01   3.17655000e-03   2.27184300e-02
C     6.153235554409087e+00   7.117741599911040e-01   3.000192974349150e+00 -3.26826000e-02  -1.45608230e-01  -4.02891700e-02
C     7.384373347241266e+00   2.440009905241126e-03   2.998761610445194e+00  2.58896500e-02  -1.90844290e-01   1.53846700e-02
C     8.617580772941453e+00   7.079615075421611e-01   2.999629718219287e+00 -1.77077040e-01   3.14668740e-01  -3.43485400e-02
C     1.227610849471380e+00   2.130011513770499e+00   3.001612789960248e+00  2.03465340e-01   4.85926500e-02  -2.17746300e-02
C     2.459261787863905e+00   2.845686470877046e+00   2.998003447939381e+00  3.27007800e-02  -2.61716320e-01   6.82188000e-02
C     3.692502533865894e+00   2.133931908452753e+00   3.002060122550973e+00 -6.52048200e-02  -1.08168600e-02  -3.42090700e-02
C     4.922700676887906e+00   2.842997243392427e+00   3.002934770415929e+00  2.73485600e-02  -3.04965000e-03  -5.62358200e-02
C     6.155461801443187e+00   2.129722486287891e+00   2.996306836277949e+00 -1.91057420e-01   1.52510170e-01   7.59193200e-02
C     7.380981805789493e+00   2.843055847057131e+00   3.000498980538945e+00  2.86509590e-01  -6.52129600e-02  -3.45799700e-02
C     8.617829496851167e+00   2.133431460561209e+00   2.997597074286079e+00 -2.38879570e-01  -9.35086600e-02   3.29463300e-02
C     9.846371672130774e+00   2.845079739430424e+00   2.998254384929028e+00 -1.22307630e-01  -2.21398900e-01   2.04225900e-02
C     2.460526412310401e+00   4.264581749312226e+00   3.001486546563087e+00  9.05417000e-02  -8.62897800e-02  -6.53134300e-02
C     3.692285472403070e+00   4.972650206141632e+00   2.998132645574126e+00 -9.62000000e-02   3.89732500e-02   9.77395000e-03
C     4.919952254450757e+00   4.265287305611944e+00   2.998158795559969e+00  1.97930000e-01  -1.04870780e-01   6.08772000e-03
C     6.153896272203967e+00   4.975048778607331e+00   2.995395572105140e+00 -1.13917500e-01  -6.49659300e-02   8.12717400e-02
C     7.383028474292379e+00   4.264909403228203e+00   3.001813182967664e+00 -9.68180100e-02  -1.36162550e-01  -5.11660700e-02
C     8.611250487613239e+00   4.971629246612501e+00   2.999002494791342e+00  1.37258260e-01   6.16248700e-02   3.20889900e-02
C     9.842397383102343e+00   4.259611657356276e+00   2.999420180601867e+00  1.60767930e-01   3.01535830e-01  -3.41100000e-02
C     1.107773526555239e+01   4.971192324700136e+00   2.995870666078583e+00 -3.09703300e-01   1.15781840e-01   4.90260500e-02
C     3.689415948326236e+00   6.392758247545775e+00   2.996343042145007e+00  1.41336650e-01  -1.63907700e-02   1.22856300e-02
C     4.918978335346915e+00   7.101741862172795e+00   2.998269130458677e+00  1.50304910e-01   1.20753210e-01  -3.50960000e-04
C     6.152829736505933e+00   6.393322369769855e+00   3.002650651882585e+00 -1.29758500e-01   8.60626500e-02  -5.52887100e-02
C     7.381202658699020e+00   7.104975915475298e+00   3.002885268897207e+00  1.27518470e-01   3.10870100e-02  -2.79788000e-02
C     8.611488651390960e+00   6.392993994433801e+00   3.000978875402463e+00  5.98183800e-02  -1.30898000e-03   5.35533000e-03
C     9.844557854386665e+00   7.101749849139760e+00   3.001727802475102e+00 -1.05475900e-01   9.38540100e-02  -4.65981000e-02
C     1.107446048710492e+01   6.393569684193500e+00   2.996772866415282e+00  1.01170540e-01  -6.40981300e-02   2.39957800e-02
C     1.230784107034518e+01   7.102379609781841e+00   2.998155343698449e+00 -2.40434100e-01   1.98169400e-01  -1.92940000e-02
