32
Lattice="10.024 0 0 5.012 8.68103864753521 0 0 0 30 " PBC="1 1 1" Properties=species:S:1:pos:R:3:force:R:3 Energy="-257.39624054"
C    -5.498161972376498e-03  -2.417077600477450e-03   3.003980051167845e+00  4.39441280e-01  -2.64421930e-01  -3.58348500e-02
C     1.261176284351749e+00   7.160879533717814e-01   3.005430297597500e+00 -9.77613960e-01   5.21499800e-01   8.30740000e-03
C     2.492463888770374e+00   2.805715619447135e-03   3.002903294759601e+00  9.12266970e-01  -1.70673430e-01  -6.32281400e-02
C     3.749131527878668e+00   7.241903625156416e-01   2.984758673041293e+00  5.80614910e-01  -2.15994660e-01   2.68573790e-01
C     5.023025315434816e+00   2.389839304426061e-04   2.999688166207295e+00 -8.02393510e-01  -8.40358400e-02  -1.44232050e-01
C     6.265580182857168e+00   7.180006056842094e-01   2.998078445350310e+00  4.07062460e-01   4.70065510e-01  -4.00774000e-03
C     7.533994051279015e+00   7.533674336425522e-03   2.999022563354180e+00 -9.95668280e-01  -6.49560410e-01   2.43180300e-02
C     8.772536213873924e+00   7.134081463938345e-01   3.001379288065612e+00  2.74540070e-01   8.27666910e-01   5.32077800e-02
C     1.255465216442530e+00   2.171862165641300e+00   3.007278340867101e+00 -1.98372610e-01  -1.73896500e-01  -9.77064000e-03
C     2.511038171337749e+00   2.885018330253905e+00   3.001758484918660e+00 -1.00140690e-01   2.95827720e-01   1.35564970e-01
C     3.767166814970293e+00   2.159945619880657e+00   3.006449095238088e+00 -1.88714380e-01   2.29938150e-01  -2.07684640e-01
C     5.024192885042671e+00   2.883884845920728e+00   2.997217397936382e+00 -7.39434290e-01   7.00861480e-01   7.97380800e-02
C     6.262064447675924e+00   2.177775596607196e+00   2.993233295096388e+00  3.51641330e-01  -7.34110160e-01   5.24836100e-02
C     7.516797051161476e+00   2.888330702059381e+00   2.998115322693155e+00  3.76330600e-02   5.49509570e-01  -5.01473100e-02
C     8.766555024907641e+00   2.180025034729152e+00   3.009602785499824e+00  3.26190300e-02  -6.53041700e-01  -6.89502400e-02
C     1.001090194235181e+01   2.900460597910559e+00   3.012149914737637e+00  6.80628510e-01  -1.60861000e-01  -1.77607700e-02
C     2.510582299679350e+00   4.338515102535436e+00   3.010881282122138e+00 -2.20993730e-01  -1.66865170e-01  -2.01254030e-01
C     3.751558812660599e+00   5.057781350390573e+00   2.995832907940106e+00  2.43770990e-01   5.81202530e-01   2.08906300e-01
C     5.003581162368239e+00   4.348220099351428e+00   3.007696300737525e+00  3.97710060e-01  -7.94888840e-01  -1.50117620e-01
C     6.266431767248444e+00   5.049380625909346e+00   3.002110666387864e+00 -3.23593800e-01   1.01928717e+00  -6.14355000e-03
C     7.516852469884779e+00   4.345272634159130e+00   2.985899731179385e+00  1.85995220e-01  -4.32634680e-01   2.29272270e-01
C     8.769446218461747e+00   5.072931155301402e+00   3.001335706146573e+00  4.52151800e-02  -3.07735250e-01  -1.42159940e-01
C     1.002581507452700e+01   4.342578337577127e+00   3.009099909601036e+00 -1.37628120e-01   3.33190830e-01  -9.22724200e-02
C     1.128542454371489e+01   5.072423321507090e+00   2.995165104721202e+00 -3.09346960e-01  -7.37052570e-01   1.38427580e-01
C     3.752427149603311e+00   6.520520045024078e+00   3.004418079500976e+00 -8.11881500e-02  -8.74093460e-01  -1.10052640e-01
C     5.007790746195597e+00   7.220900178097843e+00   2.996707995585013e+00  2.25932800e-02   7.82707370e-01   1.80278540e-01
C     6.259818573837537e+00   6.515952126351002e+00   3.012997712761547e+00  5.35009500e-01  -5.86970250e-01  -1.27888180e-01
C     7.527664945996252e+00   7.241861019196159e+00   3.009571147095019e+00 -1.03811855e+00  -2.65309060e-01  -1.31516740e-01
C     8.764358226546472e+00   6.516370689706122e+00   2.986112335828897e+00  2.53049630e-01   3.17351000e-03   2.05500140e-01
C     1.001172677765773e+01   7.236681085636700e+00   2.991024757248678e+00  6.98528010e-01  -1.82249020e-01  -3.65291000e-03
C     1.127508434728475e+01   6.502094278441547e+00   2.991393585486935e+00 -2.36539790e-01   6.76557840e-01   4.98691400e-02
C     1.252374533387978e+01   7.229782938083495e+00   3.002435916712712e+00  2.51427330e-01   4.62905530e-01  -6.77732200e-02
