32
Lattice="9.86 0 0 4.93 8.53901048131456 0 0 0 30 " PBC="1 1 1" Properties=species:S:1:pos:R:3:force:R:3 Energy="-254.89185937"
C     5.030804449500000e+00   8.030891111030789e+00  -1.505766000000008e-01 -1.56072131e+00  -2.33782062e+00   3.77358880e-01
C     1.296165379100000e+00   1.470363808889976e-01  -1.351047000000030e-01  1.87084568e+00   3.58422852e+00  -9.06166130e-01
C     7.512748711599999e+00   8.060122961777287e+00  -2.283870000000014e-01 -2.22308686e+00  -3.24830662e+00   1.21371586e+00
C     3.804143689400000e+00   1.628254382170416e-01  -2.704349999999778e-02  4.61105380e-01   1.71916260e+00  -3.89361090e-01
C     9.946187492500002e+00   8.048442534731800e+00   1.236960000000000e-02  2.73422869e+00  -3.43261102e+00  -2.10413040e-01
C     6.347842314699999e+00   1.535876805094632e-01  -1.023461999999995e-01 -3.88851755e+00   7.70952010e-01   4.28746420e-01
C     1.246049483820000e+01   7.937828278363984e+00  -9.640140000000130e-02 -3.43236370e-01   3.41895736e+00   5.10674130e-01
C     8.712572918099999e+00   2.177349473779480e-01  -9.801000000000215e-02  1.85136877e+00  -2.52417229e+00  -7.00643930e-01
C     1.272804524800000e+00   1.634496569611505e+00  -9.541589999999900e-02  2.84860453e+00  -1.61097993e+00   2.04415560e+00
C     2.564117304900000e+00   2.275224380412183e+00   2.353107000000000e-01 -1.08436174e+00   6.00901730e-01  -1.68379320e+00
C     3.846831967800000e+00   1.580654692930914e+00   1.266606000000000e-01 -3.76016104e+00   6.80883700e-01   3.03638420e-01
C     4.966119842199999e+00   2.362428085648030e+00   1.495926000000000e-01  5.10883483e+00  -3.95830240e+00  -1.40659946e+00
C     6.299532998199999e+00   1.583912154648824e+00  -1.345937999999975e-01 -1.68551433e+00   1.81084680e-01   8.42875560e-01
C     7.517093569900000e+00   2.263143900725708e+00  -2.221416000000005e-01 -6.35748010e-01   2.07941131e+00   6.16115720e-01
C     8.750096232699999e+00   1.612351243662359e+00  -1.443641999999983e-01 -9.71361390e-01  -2.53303100e-01  -3.24129730e-01
C     9.944117434799999e+00   2.359914884083557e+00  -3.724260000000257e-02  7.69067000e-01  -1.09481230e+00  -4.33611900e-01
C     2.556097180900000e+00   3.716384602680350e+00   3.220842000000000e-01  1.15726937e+00   8.35384570e-01   7.89230100e-01
C     3.847185498100000e+00   4.435981361367556e+00   2.861928000000000e-01 -2.22438747e+00   8.32495690e-01   5.57714900e-01
C     5.072752488399999e+00   3.720269254718016e+00   1.859256000000000e-01 -6.90065780e-01   1.76698747e+00  -2.36219100e-01
C     6.312358689000000e+00   4.401252778794872e+00  -7.465800000002076e-03 -1.45712976e+00   1.02850171e+00   1.06208830e-01
C     7.527193907399999e+00   3.700388901298689e+00  -1.724528999999997e-01 -5.18540580e-01   6.18219100e-02   3.52928060e-01
C     8.743307425499999e+00   4.424346276467718e+00  -7.804559999999938e-02 -6.36539610e-01   6.07874480e-01   1.38122830e-01
C     9.964634615800000e+00   3.750874092959594e+00   7.479600000000000e-02  1.03146879e+00   1.61831604e+00   1.04197019e+00
C     1.119022497430000e+01   4.509162218203042e+00   4.134129000000000e-01 -3.22119120e-01  -3.12267937e+00  -2.00880003e+00
C     3.769497917200000e+00   5.889113532498997e+00   2.459892000000000e-01  1.11682267e+00  -1.34100105e+00  -1.37899505e+00
C     5.015023223700000e+00   6.549357764092343e+00  -8.848589999999845e-02 -3.39111280e+00   2.45523820e+00   1.50834182e+00
C     6.169576719200000e+00   5.857300082714080e+00  -3.282779999999974e-02  4.74011598e+00  -1.29515721e+00  -1.29491211e+00
C     7.416304206200000e+00   6.586830784633299e+00  -1.906703999999984e-01  2.23123364e+00   1.49766830e-01   6.03352120e-01
C     8.692191016300001e+00   5.838113865456673e+00  -5.557649999999725e-02  5.20429900e-02   1.65598374e+00   1.59598090e-01
C     9.958097435799999e+00   6.556467771168514e+00   1.108350000000000e-01 -2.37882473e+00   2.40311219e+00  -5.84524270e-01
C     1.117226207560000e+01   5.912191574562874e+00   3.222549000000000e-01  1.71384760e-01  -7.96716040e-01  -3.40970420e-01
C     1.239387348040000e+01   6.595296871963800e+00   1.847694000000000e-01  1.62703536e+00  -1.43520278e+00   3.04391910e-01
