32
Lattice="9.86 0 0 4.93 8.53901048131456 0 0 0 30 " PBC="1 1 1" Properties=species:S:1:pos:R:3:force:R:3 Energy="-256.97394458"
C     9.694602690500000e+00   1.835755496268294e+00   3.810989400000000e+00 -2.62271770e-01   5.98322080e-01  -2.31061130e-01
C     1.090779449340000e+01   2.569835014460314e+00   3.885157800000000e+00 -9.09440990e-01  -1.31246810e-01   2.10239850e-01
C     2.241941706300000e+00   1.853080806971795e+00   3.994497300000000e+00  1.97282673e+00   1.25635364e+00  -6.71138460e-01
C     3.504755783299999e+00   2.581927021810936e+00   3.916353900000000e+00  4.88409540e-01  -2.10134651e+00   1.28224150e-01
C     4.736458306499999e+00   1.847522935830572e+00   3.811553700000000e+00  3.01230610e-01   6.98167070e-01  -4.54636380e-01
C     5.960170187099999e+00   2.588882045846897e+00   3.658612200000000e+00  3.92165580e-01   6.27924170e-01   4.67175000e-03
C     7.224717652099999e+00   1.898410656445503e+00   3.623040900000000e+00 -7.23952670e-01  -6.69589570e-01   2.78681820e-01
C     8.495241312399999e+00   2.564503939437440e+00   3.638509800000000e+00 -1.80318056e+00  -1.00342910e-01  -8.19416200e-02
C     1.088041667510000e+01   3.986783299462964e+00   3.820903500000000e+00  5.91007600e-01   5.08903160e-01   1.88522720e-01
C     1.213707199890000e+01   4.686641964645441e+00   3.897667200000000e+00  1.66172310e-01   6.87887180e-01  -4.34145140e-01
C     3.567638426300000e+00   3.961244826919380e+00   3.894374400000000e+00 -2.92956426e+00   2.30012856e+00  -4.55918000e-03
C     4.737485176200000e+00   4.739606287219003e+00   3.776449800000000e+00  5.00827050e-01  -9.88691080e-01  -3.07975020e-01
C     5.955349534500000e+00   4.037384621666396e+00   3.601877700000000e+00  1.02899247e+00  -6.25475250e-01   5.08188100e-01
C     7.229739202200000e+00   4.733471862090171e+00   3.525662400000000e+00 -1.15572980e+00  -1.35775213e+00  -2.43141350e-01
C     8.443909215700000e+00   3.980764321755822e+00   3.537320100000000e+00 -2.60724260e-01   4.30263390e-01   5.66400240e-01
C     9.628542859700000e+00   4.699604865674919e+00   3.673118100000000e+00  2.67984135e+00   7.35373770e-01  -5.09568280e-01
C     1.213187508870000e+01   6.144060462867527e+00   3.824392500000000e+00  1.14825331e+00  -1.51159089e+00  -1.82335400e-02
C     1.339434091050000e+01   6.837692652388197e+00   3.818575200000000e+00 -2.73046113e+00   1.74472280e+00   3.87264100e-02
C     4.715416820000000e+00   6.152573600145772e+00   3.786951900000000e+00  2.36834339e+00  -9.73512470e-01   1.92172410e-01
C     5.991743040999999e+00   6.815107567399331e+00   3.782824500000000e+00 -4.08942790e-01   5.61599040e-01  -1.08451197e+00
C     7.229296981199999e+00   6.139916737251898e+00   3.551412300000000e+00  2.74634030e-01   2.51366350e-01   1.05673112e+00
C     8.470804534899999e+00   6.860536725564923e+00   3.605421300000000e+00 -3.79621110e-01   1.92511480e-01  -1.00632110e-01
C     9.710003911899999e+00   6.137892906378033e+00   3.593949900000000e+00 -1.36696745e+00  -1.92220380e-01   6.82645770e-01
C     1.092583898360000e+01   6.857033938075921e+00   3.719618700000000e+00 -2.38769690e-01  -2.14562360e-01   7.21510800e-02
C     1.334627858700000e+01   8.280809588907855e+00   3.779312400000000e+00 -5.67728800e-02  -3.36804300e-01   7.56691100e-02
C     9.658821835099999e+00   4.207702443848904e-01   3.848090400000000e+00  5.72579480e-01  -4.26932750e-01  -3.80008880e-01
C     5.975541088999999e+00   8.221917570649182e+00   3.820036500000000e+00  3.72772120e-01   1.75517373e+00   7.84158780e-01
C     2.282153300600000e+00   4.658387147478064e-01   3.899933400000000e+00 -3.82464700e-01  -2.39747229e+00  -5.59426590e-01
C     8.465264003700000e+00   8.290502134313599e+00   3.756089700000000e+00 -1.53922288e+00  -9.76567150e-01   5.09187000e-03
C     4.751005109599999e+00   4.199621978231680e-01   3.737914500000000e+00 -7.59953700e-02   1.62698330e+00   5.88228000e-01
C     1.090458540850000e+01   8.285230320023457e+00   3.744256800000000e+00 -2.28305920e-01  -8.66497180e-01  -6.16419800e-01
C     7.159354726100000e+00   4.720087475503400e-01   3.702182700000000e+00  2.59433266e+00  -1.05075670e-01   3.16896270e-01
