32
Lattice="9.86 0 0 4.93 8.53901048131456 0 0 0 30 " PBC="1 1 1" Properties=species:S:1:pos:R:3:force:R:3 Energy="-255.41929417"
C     1.137713404300000e+00   7.405293743679833e-01   3.669063900000000e+00 -2.34652721e+00  -2.70161184e+00   1.18117519e+00
C     2.296768187000000e+00   1.442267219586794e+00   3.487413000000000e+00  2.37159049e+00  -1.14507769e+00   1.68628940e-01
C     3.520689247500000e+00   7.326811698358152e-01   3.601700400000000e+00  1.46309820e+00  -1.70698926e+00   5.87301760e-01
C     4.759675106200000e+00   1.423227617139328e+00   3.643649700000000e+00  7.75969480e-01   2.35939210e-01  -8.60550130e-01
C     6.030435653000000e+00   7.037311064351568e-01   3.725304900000000e+00 -2.04926645e+00  -1.14682627e+00   3.07653080e-01
C     7.209469950900000e+00   1.382797366488938e+00   3.856099200000000e+00  3.10582573e+00   1.42384242e+00  -3.91200250e-01
C     8.507365661400000e+00   7.322848743594383e-01   3.902356500000000e+00 -4.64980500e-01  -1.40089954e+00  -6.06409110e-01
C     9.788117740600001e+00   1.412272579034117e+00   3.722391300000000e+00 -3.32927838e+00   1.20025736e+00   7.94314560e-01
C     2.325101735100000e+00   2.796788677552470e+00   3.283414200000000e+00 -1.61155175e+00   3.67229398e+00  -6.75925670e-01
C     3.565292978800000e+00   3.552710813772120e+00   3.191400900000000e+00  1.60443400e-02  -7.76992670e-01   1.29938122e+00
C     4.776871537800000e+00   2.849122650372399e+00   3.467103000000000e+00  1.49894605e+00  -1.70378610e-01   9.75777780e-01
C     6.060661680199999e+00   3.545121512037706e+00   3.737112300000000e+00 -2.63012707e+00   2.63119480e-01  -1.19422131e+00
C     7.250686476399999e+00   2.797011289555683e+00   3.786814800000000e+00 -3.01226420e-01   1.02893060e+00   2.34838390e-01
C     8.470238620200000e+00   3.518442740034622e+00   3.682871700000000e+00 -2.65707200e-02   1.21796830e+00   8.93705160e-01
C     9.698043436099999e+00   2.857995109211642e+00   3.649162800000000e+00  1.48303706e+00  -1.78253528e+00  -1.32448275e+00
C     1.088459253300000e+01   3.530383009169016e+00   3.300945600000000e+00  1.81827371e+00   2.09959692e+00   4.29853580e-01
C     3.583110886200000e+00   4.958269681206442e+00   3.277404600000000e+00 -6.17127400e-01   2.66538411e+00   3.16360180e-01
C     4.821857344100000e+00   5.746655598249165e+00   3.599827200000000e+00 -1.94172057e+00  -3.87037254e+00  -7.83849700e-02
C     6.029021285299999e+00   4.983662905181760e+00   3.770831100000000e+00  2.27628220e-01   3.39917340e-01  -7.19933580e-01
C     7.245286302299998e+00   5.720778810110364e+00   3.796017300000000e+00  1.08665736e+00  -2.35673088e+00   7.43270140e-01
C     8.507007595499999e+00   4.949809144232753e+00   3.723226500000000e+00 -2.04085032e+00   1.82753804e+00  -8.17253570e-01
C     9.675173313999998e+00   5.751723586359151e+00   3.491817600000000e+00  8.45371150e-01  -2.95293872e+00   2.62082570e-01
C     1.086779745270000e+01   5.040542791010927e+00   3.237609900000000e+00  2.50449563e+00  -2.30544966e+00   2.75487780e-01
C     1.217584620240000e+01   5.717742935714409e+00   3.231948900000000e+00 -7.72022900e-02  -1.36778217e+00   5.15713980e-01
C     4.739952148200000e+00   7.104068194383160e+00   3.838846800000000e+00  1.40082850e+00   2.16208386e+00  -1.00331600e-02
C     6.002931725300000e+00   7.835637926614898e+00   3.923141700000000e+00  5.05754260e-01   4.58927550e-01  -1.14833369e+00
C     7.238878189699999e+00   7.117451641678779e+00   3.871926900000000e+00  9.28297700e-01   8.50865220e-01  -3.46157130e-01
C     8.514521950799999e+00   7.817379558236247e+00   3.768991500000000e+00 -1.25151299e+00   1.52597395e+00  -5.70809310e-01
C     9.762986326099998e+00   7.125854198771308e+00   3.616615200000000e+00 -2.17336933e+00   1.22221444e+00   2.28934580e-01
C     1.099640577110000e+01   7.802479241118962e+00   3.616616400000000e+00 -2.29951146e+00   1.87818111e+00  -1.26771960e-01
C     1.217084062550000e+01   7.115704730914780e+00   3.497771700000000e+00  2.15774334e+00  -3.14785110e-01   8.10345050e-01
C     1.337266823610000e+01   7.832955140302293e+00   3.839598600000000e+00  9.71261650e-01  -7.36636400e-02  -1.15435731e+00
