32
Lattice="9.86 0 0 4.93 8.53901048131456 0 0 0 30 " PBC="1 1 1" Properties=species:S:1:pos:R:3:force:R:3 Energy="-257.61368132"
C     9.847274437499999e+00   1.329435979928056e-01   3.866670600000000e+00 -1.53497382e+00   9.46846700e-01   1.86463220e-01
C     1.183588336100000e+00   8.605465329060600e-01   3.891566700000000e+00  1.17641223e+00  -1.47303848e+00  -9.40756500e-02
C     2.416969524300000e+00   1.270361397625320e-01   3.851498100000000e+00  1.32922262e+00   1.21518661e+00   6.45942000e-02
C     3.669637020399999e+00   8.684822622956480e-01   3.837328200000000e+00 -4.05478950e-01  -1.07818849e+00  -1.13004010e-01
C     4.909794197799999e+00   1.249506572330016e-01   3.789754200000000e+00 -1.04930886e+00   1.31359254e+00   3.10946440e-01
C     6.125934337900000e+00   8.539542460352904e-01   3.814423800000000e+00  5.69415360e-01  -2.77675910e-01   5.38155000e-03
C     7.361865913699999e+00   1.501953024259688e-01   3.818960100000000e+00  3.90676530e-01  -9.11219770e-01   4.53306910e-01
C     8.601041084399998e+00   8.422186569821024e-01   3.901066200000000e+00 -2.85000730e-01   9.14244350e-01  -5.14279930e-01
C     1.104136806130000e+01   2.249040187896101e+00   3.914197200000000e+00  1.21747543e+00   1.42496568e+00   9.96419000e-03
C     2.429616108200000e+00   2.988117759702275e+00   3.901473900000000e+00 -3.43930530e-01   4.52382900e-02  -3.00327430e-01
C     3.662916296500000e+00   2.289751798941807e+00   3.845964600000000e+00  5.15583570e-01  -4.31805190e-01   6.47387300e-02
C     4.922424069000000e+00   2.986379729509176e+00   3.808176899999999e+00 -1.16547269e+00  -1.92816980e-01   2.98261140e-01
C     6.143288283000000e+00   2.270699644148936e+00   3.846798600000001e+00 -2.57923590e-01   3.08453630e-01  -3.37678870e-01
C     7.367287089600000e+00   2.999203273887621e+00   3.855504900000000e+00 -5.93355300e-02  -1.15111978e+00   2.06041100e-01
C     8.588411262499999e+00   2.300401482032254e+00   3.891678000000000e+00  2.63125160e-01  -2.14196300e+00   8.69914000e-02
C     9.826874196100000e+00   2.955727499759434e+00   3.903463200000000e+00 -2.15675660e-01   1.66094357e+00   3.89723100e-02
C     1.230170367940000e+01   4.422240983433873e+00   3.853086300000000e+00 -1.05273350e+00  -8.30504420e-01   1.27686330e-01
C     3.665931238000000e+00   5.114284746225055e+00   3.820915800000000e+00  3.08510390e-01   3.86333470e-01  -1.68878560e-01
C     4.889627145400000e+00   4.398366422472423e+00   3.803335200000000e+00  1.11021407e+00   2.36351930e-01  -1.88415000e-03
C     6.144940720399999e+00   5.096218590972309e+00   3.795477900000000e+00 -1.07546796e+00   1.14326971e+00   2.76909460e-01
C     7.375215564900000e+00   4.390009549085961e+00   3.849365100000000e+00 -7.81734300e-01   1.30156339e+00  -4.80534390e-01
C     8.577099476099999e+00   5.122051915547767e+00   3.808061700000000e+00  1.62989486e+00  -7.46916950e-01   4.06417440e-01
C     9.826478218500000e+00   4.396145169676260e+00   3.872396700000000e+00 -2.68365540e-01   8.39275900e-02  -3.28020790e-01
C     1.104933642030000e+01   5.115830734072459e+00   3.834912300000000e+00  3.00040270e-01   6.34060560e-01  -1.55240740e-01
C     1.352445573830000e+01   6.536061500093726e+00   3.801564000000000e+00  2.36825170e-01   4.93781410e-01   2.81162100e-01
C     4.899628094100000e+00   7.279216705574413e+00   3.818817600000000e+00  6.32524000e-03  -1.92187786e+00  -4.42246000e-03
C     6.118465190700000e+00   6.540813971766474e+00   3.813163800000000e+00  1.54833917e+00  -2.04372080e-01  -6.63343000e-02
C     7.403158657000001e+00   7.256132430032887e+00   3.825549300000000e+00 -2.29121424e+00  -5.14410410e-01  -1.38283870e-01
C     8.614992146300001e+00   6.534116484286591e+00   3.788109899999999e+00 -5.89441330e-01   2.37386620e-01   2.23897080e-01
C     9.828238573599998e+00   7.255122435873312e+00   3.801342000000000e+00  1.72919180e-01   2.34877700e-02  -4.79562680e-01
C     1.104729431570000e+01   6.563825067988188e+00   3.761721600000000e+00  7.02729730e-01  -1.59659503e+00   7.58940930e-01
C     1.229220795710000e+01   7.238943487326751e+00   3.826689300000000e+00 -1.01651710e-01   1.10287052e+00  -6.18146690e-01
