32
Lattice="9.86 0 0 4.93 8.53901048131456 0 0 0 30 " PBC="1 1 1" Properties=species:S:1:pos:R:3:force:R:3 Energy="-252.30194169"
C     5.363614698999999e+00   8.128874463096587e+00  -2.593265999999979e-01  3.20683785e+00  -2.71929476e+00  -1.63899900e-02
C     1.657497847800000e+00   3.077302259199168e-01  -1.187532000000004e-01  1.98740310e+00   2.18373462e+00  -2.76758942e+00
C     7.932082038699999e+00   8.173433666874477e+00  -1.940255999999998e-01 -3.22087942e+00  -1.84119776e+00   2.10309975e+00
C     4.225705524400000e+00   3.215127011752656e-01  -2.066849999999931e-02  2.35181540e-01  -3.06395970e-01  -3.08184977e+00
C     1.038673835640000e+01   8.127325828155934e+00  -2.189757000000014e-01  7.92007580e-01  -2.14870652e+00   2.58460250e-01
C     6.716275068000000e+00   2.226828770005840e-01  -4.039637999999997e-01 -2.14879133e+00   3.05033588e+00   1.62232626e+00
C     1.284261524350000e+01   8.071923447310121e+00  -3.579548999999993e-01 -7.50515140e-01  -1.29009375e+00  -3.48446390e-01
C     9.098798780899999e+00   2.319780168585880e-01  -3.045092999999994e-01 -3.72848680e-01   2.29095829e+00  -8.19238910e-01
C     1.630012555500000e+00   1.813682495737913e+00  -5.257466999999991e-01  6.12877049e+00  -6.00364412e+00   1.59320537e+00
C     3.065224246200000e+00   2.375723837306019e+00  -6.682568999999994e-01 -7.69698855e+00   3.01865985e+00  -3.22484860e-01
C     4.189754041700000e+00   1.719523681076001e+00  -4.196202000000007e-01  4.87699962e+00  -1.30873988e+00   1.97435040e+00
C     5.473439125800000e+00   2.463091747713397e+00  -3.799278000000008e-01 -4.97773510e-01  -3.00654030e+00   3.39337900e-02
C     6.732983873300000e+00   1.693298672089825e+00  -2.758389000000001e-01 -9.65880090e-01   6.19074040e-01  -9.22970340e-01
C     7.982497796300001e+00   2.419895882348745e+00  -3.037802999999997e-01 -4.13612578e+00   8.41452230e-01  -4.61965560e-01
C     9.115200348599998e+00   1.651745029220687e+00  -4.867328999999998e-01 -4.52199160e-01  -1.73126650e-01   1.60757658e+00
C     1.028671629790000e+01   2.377499353755126e+00  -6.280971000000015e-01 -1.00836690e-01   1.56130813e+00  -1.22189791e+00
C     2.944066291700000e+00   3.807879246072502e+00  -8.175488999999985e-01  6.94048790e-01   1.14002907e+00  -3.98013800e-02
C     4.217181948800000e+00   4.543423375342051e+00  -6.349232999999970e-01 -3.48914967e+00   4.05618130e-01  -2.32032310e-01
C     5.410974152400000e+00   3.859222522896541e+00  -4.779182999999989e-01 -7.77692040e-01  -1.64652790e+00  -5.81299920e-01
C     6.573336373499999e+00   4.537679609942679e+00  -5.146698000000001e-01  4.72131648e+00   3.36878456e+00   2.52819473e+00
C     7.836987318000000e+00   3.922386095757730e+00  -3.053033999999997e-01 -4.72754690e-01  -4.17200577e+00  -1.37977472e+00
C     9.034210900199998e+00   4.544681513146174e+00  -4.915061999999999e-01  3.70285379e+00   2.26484199e+00  -4.23364850e-01
C     1.022457877510000e+01   3.752961966412058e+00  -8.637836999999990e-01  4.40068830e-01   4.72763667e+00   1.70801786e+00
C     1.146745677020000e+01   4.555624596636713e+00  -9.219471000000006e-01  3.40777651e+00  -2.54027915e+00   1.57407438e+00
C     4.211654531400000e+00   5.968594129706208e+00  -5.109704999999991e-01  2.24790960e-01  -7.84921220e-01  -7.03465080e-01
C     5.425266863300000e+00   6.672134560037347e+00  -4.461873000000018e-01  1.05407301e+00   1.81879251e+00   1.54390937e+00
C     6.705457908500000e+00   6.005538585498452e+00  -3.426839999999984e-01 -3.67962713e+00  -1.95895589e+00  -1.43151820e+00
C     7.887580703499999e+00   6.675023819623359e+00  -1.930076999999990e-01  3.60247727e+00   3.26725770e+00  -3.15579190e-01
C     9.206809066300000e+00   6.031115142028777e+00  -2.858378999999971e-01 -3.37322620e+00  -4.00619844e+00  -6.07073960e-01
C     1.045369672900000e+01   6.600060956690801e+00  -2.865875999999972e-01 -1.01830528e+00   4.71230889e+00  -8.70211200e-02
C     1.167607331910000e+01   5.936483095406063e+00  -5.408594999999998e-01 -3.98326729e+00  -1.46965262e+00  -8.22500510e-01
C     1.283606312560000e+01   6.657332099980162e+00  -4.644464999999975e-01  2.06225482e+00   1.05488130e-01   3.91156700e-02
