32
Lattice="9.86 0 0 4.93 8.53901048131456 0 0 0 30 " PBC="1 1 1" Properties=species:S:1:pos:R:3:force:R:3 Energy="-255.01801442"
C     9.771900702799998e+00   5.221604908520000e-01   3.465481500000000e+00  6.89700900e-02  -2.76253490e-01   1.41963870e-01
C     1.171460092400000e+00   1.173734638154478e+00   3.568203600000000e+00 -1.39421972e+00   1.00045660e+00  -4.90336700e-01
C     2.352615966500000e+00   4.820135645693367e-01   3.229725300000000e+00  8.72040060e-01   2.17701749e+00   1.45969123e+00
C     3.531913082700000e+00   1.317436535451036e+00   3.314434800000000e+00  1.10840748e+00  -2.90614603e+00  -1.28010302e+00
C     4.755247374600000e+00   5.927782783018096e-01   3.142289700000000e+00  1.79867669e+00  -1.60188884e+00   1.35439154e+00
C     6.021611248799999e+00   1.228867783999856e+00   3.274502100000000e+00  1.84888963e+00  -8.75636600e-02   3.84520570e-01
C     7.346796086900000e+00   5.140206791119400e-01   3.399732000000000e+00 -3.53360535e+00   8.14065560e-01   2.83404520e-01
C     8.527378059700000e+00   1.273579152944498e+00   3.588112800000000e+00  3.70243340e-01  -2.56519677e+00  -9.14879260e-01
C     1.101945953570000e+01   2.607046228939953e+00   3.798355500000000e+00  3.60950360e-01   1.59335679e+00  -1.08895228e+00
C     2.391970628200000e+00   3.435995519806450e+00   3.765236700000000e+00 -1.02249290e+00  -1.60838657e+00  -6.94543880e-01
C     3.586040834500000e+00   2.694723422306916e+00   3.437168400000000e+00  5.28197660e-01   2.42615931e+00   7.82483900e-02
C     4.857387854099999e+00   3.404366085697377e+00   3.208988400000000e+00 -1.31031969e+00  -1.01535077e+00   1.67466547e+00
C     6.059229712400001e+00   2.635993730637467e+00   3.326383200000000e+00  6.51356530e-01   2.12661084e+00  -9.22282400e-01
C     7.319098607400000e+00   3.395296375716045e+00   3.388535700000000e+00 -1.84924259e+00   4.36661700e-01   1.09361400e-01
C     8.503535199300000e+00   2.670446844732067e+00   3.606759600000000e+00  1.57676391e+00   1.12827245e+00  -7.37548160e-01
C     9.785079923900000e+00   3.341917398793573e+00   3.621719100000000e+00 -1.30387700e-01   6.70880040e-01   1.52744740e+00
C     1.221183638560000e+01   4.866966994769879e+00   3.748124400000000e+00  1.79361653e+00  -1.88763094e+00  -9.18501410e-01
C     3.648798600600000e+00   5.503747477195969e+00   3.402253200000000e+00 -4.68047163e+00   2.29796767e+00   6.08218470e-01
C     4.829520240300000e+00   4.846546036597065e+00   3.220231500000000e+00 -7.46364140e-01  -3.37064790e+00  -1.25501130e-01
C     5.976979909500000e+00   5.539335767343778e+00   3.061214400000000e+00  5.37682462e+00  -4.54745760e-01   5.31313790e-01
C     7.285405952100000e+00   4.859200167007586e+00   3.235735800000000e+00 -7.68467490e-01  -2.54818286e+00  -6.36396330e-01
C     8.543164757800000e+00   5.486693707025731e+00   3.221943000000000e+00  8.23083780e-01   1.07136278e+00   1.08757933e+00
C     9.782081103499998e+00   4.812173616151501e+00   3.595554300000000e+00 -2.56944362e+00  -2.65986428e+00  -9.81288140e-01
C     1.094619031940000e+01   5.506834500264698e+00   3.702192900000000e+00  2.53786599e+00   2.87191378e+00  -1.00743137e+00
C     1.341773592970000e+01   6.942388435202220e+00   3.292048200000000e+00  2.68604718e+00  -1.15707634e+00   7.34026260e-01
C     4.859214221899999e+00   7.630001988576168e+00   3.216209400000000e+00 -2.36482572e+00   1.47046381e+00   4.57815210e-01
C     6.067097351499999e+00   6.912394306990172e+00   3.080939100000000e+00  6.54659840e-01   2.30349318e+00  -1.14612480e-01
C     7.356052852099999e+00   7.642164784323670e+00   3.072022800000000e+00 -1.24039520e+00  -1.91390827e+00   2.46405000e-03
C     8.606174545500000e+00   6.915060527622447e+00   3.109468800000000e+00 -2.01171868e+00   1.59801490e-01   3.22899750e-01
C     9.776783473399998e+00   7.660854885072188e+00   3.258213900000000e+00 -2.86793910e-01   1.01535781e+00  -8.24739770e-01
C     1.099269875620000e+01   6.950144674591519e+00   3.431626500000000e+00 -1.87489260e+00  -1.02519528e+00   7.82992910e-01
C     1.218728631670000e+01   7.624176846406921e+00   3.443551500000000e+00  2.72704729e+00   1.51419646e+00  -8.03887810e-01
