32
Lattice="9.86 0 0 4.93 8.53901048131456 0 0 0 30 " PBC="1 1 1" Properties=species:S:1:pos:R:3:force:R:3 Energy="-253.89389485"
C     5.087608254600000e+00   8.055261019990184e+00  -2.417526000000016e-01 -2.43438932e+00  -4.44722630e-01  -3.44057400e-02
C     1.339671248700000e+00   1.998752653986088e-01  -2.062805999999995e-01  2.98514412e+00   1.63402524e+00  -1.08537577e+00
C     7.587955812300000e+00   8.048658571696942e+00  -4.172691000000022e-01 -1.44986923e+00   8.43103340e-01   2.33316053e+00
C     3.911912700600000e+00   1.810686925471424e-01  -2.249243999999990e-01 -2.52841074e+00   3.84725546e+00  -2.59968310e-01
C     1.004319810980000e+01   8.076543649710535e+00  -1.507137000000007e-01  1.06874796e+00  -2.22590739e+00  -8.38287750e-01
C     6.435844441600000e+00   2.485511261289056e-01  -2.498646000000022e-01 -6.33712682e+00  -3.14312191e+00   5.23269210e-01
C     1.245689312810000e+01   8.011337460152426e+00  -2.396987999999993e-01  4.00589857e+00  -9.60028680e-01   7.40696720e-01
C     8.753056155399999e+00   2.297521529967664e-01  -3.281184000000010e-01  8.32513070e-01  -1.29101670e+00   5.49663030e-01
C     1.299504714600000e+00   1.636522706018200e+00  -2.433509999999828e-02  2.22138617e+00   4.28151540e-01   1.60804160e-01
C     2.585884043700000e+00   2.353531546799233e+00   1.902921000000000e-01 -1.48277910e-01  -2.88830630e-01  -1.16474449e+00
C     3.827045511400000e+00   1.684726957199686e+00  -5.024039999999985e-02  1.14392003e+00  -1.21582588e+00   4.82216090e-01
C     5.103066713300000e+00   2.395148634516238e+00  -3.364589999999978e-02 -1.81755004e+00  -9.49245900e-01  -2.99799400e-02
C     6.315159619199999e+00   1.595147272297779e+00  -2.389311000000021e-01 -1.51665646e+00   3.79803552e+00   5.60385400e-02
C     7.467886451099999e+00   2.324724341043905e+00  -2.900780999999988e-01  3.75095256e+00   1.16824706e+00   5.30641170e-01
C     8.715250203900000e+00   1.631439518469561e+00  -3.112415999999989e-01  1.59595198e+00   1.32072387e+00   4.73187890e-01
C     9.979663523599999e+00   2.397594292507815e+00  -7.058070000000072e-02 -1.36521009e+00  -9.20042060e-01   1.78673720e-01
C     2.605492428500000e+00   3.793780144308554e+00   3.603552000000000e-01 -1.51205548e+00  -8.77964630e-01   3.01318750e-01
C     3.783611767700000e+00   4.533910661497017e+00   3.831267000000000e-01  4.09824104e+00  -7.35193770e-01  -3.88902920e-01
C     5.084954583500000e+00   3.830450241694076e+00   1.322385000000000e-01  2.92889770e-01  -4.56127580e-01  -5.46744630e-01
C     6.359069058599999e+00   4.550280542317910e+00  -1.017851999999984e-01 -1.83683741e+00  -2.78987818e+00   1.66810146e+00
C     7.612808139499999e+00   3.723071331007028e+00  -1.257966000000010e-01 -3.48551253e+00   3.10833139e+00  -4.89243570e-01
C     8.768276643000000e+00   4.531942163411062e+00  -1.585259999999877e-02  5.69425330e-01  -3.23158736e+00   2.20452320e-01
C     1.001209759920000e+01   3.832185966354345e+00   1.579407000000000e-01 -1.29325552e+00  -1.35955752e+00  -7.26647370e-01
C     1.121060155170000e+01   4.497100865900042e+00   3.641262000000000e-01  1.30741842e+00   1.73265088e+00  -5.34933380e-01
C     3.863121525900000e+00   5.970684394081608e+00   3.929292000000000e-01 -4.73100720e-01  -1.34690905e+00  -2.49284580e+00
C     5.036898373200000e+00   6.640401974681676e+00  -8.428230000000170e-02 -4.61360190e-01   5.62231600e-02   1.77280475e+00
C     6.223646592800000e+00   5.939403180819909e+00  -6.090389999999957e-02  4.50436544e+00   8.14481060e-01  -1.68592662e+00
C     7.532198399699999e+00   6.665573013604305e+00  -2.720862000000004e-01 -1.93110622e+00  -1.58270696e+00   4.01001880e-01
C     8.711626851100000e+00   5.902907535418493e+00  -9.610290000000177e-02  7.98408340e-01   2.12660804e+00  -6.20395370e-01
C     9.935056834299999e+00   6.611118377531668e+00  -1.138079999999988e-01  3.79838610e+00   1.54180512e+00   1.40959260e+00
C     1.125270197690000e+01   5.966364508679775e+00   2.108547000000000e-01 -2.75906842e+00  -2.66902884e+00  -4.75312930e-01
C     1.249850149000000e+01   6.572463899500700e+00   1.432965000000000e-01 -1.62386180e+00   4.06805396e+00  -4.27908230e-01
