32
Lattice="9.86 0 0 4.93 8.53901048131456 0 0 0 30 " PBC="1 1 1" Properties=species:S:1:pos:R:3:force:R:3 Energy="-253.66961267"
C     1.105250784000000e+00   1.104821066416267e+00   3.691671900000000e+00 -1.48400040e-01   3.96891640e+00  -2.52111630e-01
C     2.330445657900000e+00   1.861185523378782e+00   3.652212300000000e+00  1.23466680e+00  -1.58909420e-01   1.23970250e-01
C     3.585871341100000e+00   1.163373829788570e+00   3.872560200000000e+00 -7.37172650e-01  -3.14822296e+00  -4.39113940e-01
C     4.864745484699999e+00   1.677504747525807e+00   3.818226600000000e+00 -2.35387666e+00   6.80562278e+00  -6.82180920e-01
C     6.072434963899999e+00   1.044184272146215e+00   3.882435900000000e+00  1.30743171e+00   1.50301050e+00  -8.50450470e-01
C     7.311883059399999e+00   1.805561128260490e+00   3.797157300000000e+00 -3.75207540e-01  -2.18499880e-01   8.26518370e-01
C     8.535358152100001e+00   1.066626499489751e+00   3.889075200000000e+00 -7.89228800e-01   4.94494580e-01  -1.20243431e+00
C     9.714380716599999e+00   1.772584494467987e+00   3.745398600000000e+00  1.66468702e+00   3.48915896e+00  -9.80800300e-01
C     2.348021157200000e+00   3.283615511549173e+00   3.488058600000000e+00  1.08236643e+00  -1.76037775e+00   6.29098870e-01
C     3.606459908500000e+00   3.945244941422585e+00   3.612836100000000e+00 -8.97856500e-01  -1.17039960e+00  -7.73377640e-01
C     4.812705735800000e+00   3.233198631972109e+00   3.650667000000000e+00  1.34106537e+00  -2.85712490e+00   9.83187970e-01
C     6.038024895000000e+00   3.922516742618074e+00   3.734417100000000e+00  1.38878022e+00   1.04917084e+00   2.12564200e-01
C     7.317311531700000e+00   3.258697910457589e+00   3.782298900000000e+00 -2.50629433e+00  -2.79163627e+00   8.91093300e-02
C     8.509986498699998e+00   3.939328773401622e+00   3.810135600000000e+00  2.05362771e+00   1.20417142e+00  -1.31707880e+00
C     9.732690391500000e+00   3.258247563044875e+00   3.577562100000000e+00  8.77327850e-01  -1.90099428e+00   1.35972873e+00
C     1.101310811810000e+01   3.991938470869949e+00   3.479286000000000e+00 -2.92581677e+00  -1.91714438e+00   4.31890220e-01
C     3.611079712900000e+00   5.328797412608269e+00   3.651795600000000e+00 -3.55822115e+00   2.48361155e+00  -3.01316310e-01
C     4.753262852400000e+00   6.001794485573287e+00   3.875782200000000e+00  5.18970038e+00   2.71906342e+00   1.99521700e-01
C     6.065069642500000e+00   5.358619394369041e+00   3.849139200000000e+00 -9.42026820e-01   2.77495000e-03   8.39569190e-01
C     7.273147802900000e+00   6.109269289348025e+00   4.067625300000000e+00  8.33155330e-01   3.50978370e-01  -2.09280343e+00
C     8.553536935500000e+00   5.357100816745278e+00   3.825373200000000e+00 -2.62418867e+00   2.39877001e+00   2.34804507e+00
C     9.753250562100000e+00   6.124849226309413e+00   3.908133900000000e+00 -5.43335700e-02  -3.77806566e+00  -1.89227784e+00
C     1.096261229730000e+01   5.347026662961183e+00   3.634653300000000e+00  1.18850712e+00   5.21982905e+00   2.30082000e-03
C     1.220188325790000e+01   6.178974085797313e+00   3.566122200000000e+00  4.85582690e-01  -5.29677176e+00   1.49439148e+00
C     4.857746560899999e+00   7.450102969684576e+00   3.988286700000000e+00 -8.89565060e-01   1.77446128e+00  -2.41148659e+00
C     6.060233509699999e+00   8.324320202198800e+00   3.776345100000000e+00 -1.27507550e-01  -6.30053205e+00   2.62943203e+00
C     7.296905670099999e+00   7.664484903817342e+00   4.023782700000000e+00 -3.26096197e+00  -6.38723088e+00  -3.99246910e-01
C     8.502349731500001e+00   8.194796904853760e+00   4.005867000000000e+00  1.21220524e+00   5.18606370e+00  -6.11521520e-01
C     9.684817182800000e+00   7.499843132681099e+00   3.886884600000000e+00  3.33744641e+00   9.86603350e-01   4.40569350e-01
C     1.095251048080000e+01   8.218905178532049e+00   3.790247700000000e+00  8.93185530e-01  -2.02679295e+00   1.29815010e+00
C     1.222714654990000e+01   7.526455385792543e+00   3.833545500000000e+00 -4.06345780e-01   3.04075180e-01  -1.59065322e+00
C     1.351456172130000e+01   8.187142365079279e+00   3.813145800000000e+00 -1.49273194e+00  -2.28073610e-01   1.88880616e+00
