32
Lattice="9.916 0 0 4.958 8.58750790392649 0 0 0 30 " PBC="1 1 1" Properties=species:S:1:pos:R:3:force:R:3 Energy="-257.87492341"
C     4.477645120881398e-03  -3.239593026659401e-03   2.990349069437271e+00 -2.74852370e-01   1.35130110e-01   2.12811510e-01
C     1.232764560114003e+00   7.073945513842267e-01   3.003051178200687e+00  5.75677680e-01   8.98561190e-01  -1.96010150e-01
C     2.485211774143724e+00   1.493614932475612e-02   2.996783673893126e+00 -3.16814230e-01  -7.85496490e-01   8.70059400e-02
C     3.726809516987240e+00   7.276261046499132e-01   3.008921719633584e+00 -4.33639990e-01  -2.24121680e-01  -1.63668230e-01
C     4.952367057692750e+00  -3.616590921962782e-03   3.002559811577950e+00  4.49572800e-02   4.85541900e-01   1.36181940e-01
C     6.181100324294300e+00   7.203246111539231e-01   3.005535360287666e+00  1.01681204e+00  -6.68805760e-01  -1.22533290e-01
C     7.443869505175485e+00  -6.429715244919794e-03   3.001472210023227e+00 -6.84476310e-01   6.92367370e-01   1.07305110e-01
C     8.675390448737838e+00   7.132842076241747e-01   3.004937071689527e+00  1.43053800e-01   4.12961800e-02  -1.17005840e-01
C     1.247182983549871e+00   2.157223167936465e+00   2.990280587350225e+00 -7.68004670e-01  -8.84356270e-01   3.03766040e-01
C     2.478680147895815e+00   2.852215942951851e+00   3.011581877355627e+00 -1.01535510e-01   8.83672160e-01  -2.15891190e-01
C     3.713625632157659e+00   2.157679437449269e+00   2.998464753833060e+00  4.68941830e-01  -3.97755320e-01   1.50835120e-01
C     4.948882705999941e+00   2.867799441759419e+00   3.000603059568359e+00  7.13093140e-01  -6.65670000e-02  -4.45821400e-02
C     6.200703832058224e+00   2.136011933273231e+00   2.989013985545476e+00 -5.36260030e-01   7.40115870e-01   1.01227420e-01
C     7.442755698145996e+00   2.860017566440383e+00   2.986820078123990e+00 -3.66727310e-01  -2.45762480e-01   6.33521400e-02
C     8.672314122044840e+00   2.146630317197496e+00   3.000755179394719e+00  5.23294100e-01  -4.11697700e-02   5.16250000e-03
C     9.918012305046474e+00   2.868100140130252e+00   3.008507647563968e+00  1.00760000e-03   1.34415650e-01  -2.73757340e-01
C     2.469968773809795e+00   4.287134471015078e+00   3.003680655201602e+00  3.87026670e-01   4.38459870e-01  -6.10305700e-02
C     3.716071156312021e+00   5.017678929951682e+00   2.995379424668254e+00 -6.11580900e-02  -4.47873800e-01   2.12480240e-01
C     4.967510303422204e+00   4.297774309728104e+00   3.007683721213710e+00 -5.27602190e-01   2.00841280e-01  -7.59783600e-02
C     6.202030788606350e+00   5.021279707317228e+00   3.009294341719421e+00 -5.20403200e-02  -9.42694520e-01  -2.26435970e-01
C     7.441545294188513e+00   4.283284369694233e+00   2.989040302421085e+00 -4.25087290e-01   7.84311380e-01   1.85877560e-01
C     8.660863613493765e+00   5.018153493489572e+00   3.005841652599822e+00  1.02080568e+00  -3.83291260e-01  -3.11788180e-01
C     9.918471078145821e+00   4.306570215275628e+00   2.985031727296320e+00 -8.85628180e-01  -4.33423470e-01   2.80653730e-01
C     1.114382459467873e+01   5.017228347729942e+00   2.994528302318255e+00  6.87539850e-01  -5.65952300e-01   4.25166000e-02
C     3.718444818300662e+00   6.449144749055998e+00   3.010145330225904e+00  2.48895480e-01  -1.67406630e-01  -8.86121100e-02
C     4.965489590640467e+00   7.160024247259800e+00   3.003888394861700e+00 -5.75513770e-01  -1.65853860e-01  -1.34706200e-01
C     6.187744155997788e+00   6.438164520624361e+00   2.985885887971607e+00  7.74574840e-01   4.05925300e-01   2.31537230e-01
C     7.432085873926482e+00   7.154203049624417e+00   2.993100726002862e+00  3.74562380e-01   5.52944860e-01  -1.00735150e-01
C     8.686538978287304e+00   6.447447713540915e+00   2.988975816123652e+00 -1.13719398e+00  -1.05449410e-01   2.38755870e-01
C     9.908535111646597e+00   7.162921377494691e+00   3.013130646294082e+00  7.63496300e-01  -5.19654610e-01  -1.78141550e-01
C     1.115539518831228e+01   6.427643575288045e+00   3.009580616665254e+00 -5.62658000e-03   1.34948004e+00  -2.34602100e-02
C     1.240357749223151e+01   7.164679053726332e+00   3.011507960803157e+00 -5.91577840e-01  -6.97428520e-01  -2.51324800e-02
