26
Lattice="8.88768389401873 1.33226762955019e-15 0 4.44384194700937 7.69696003302603 0 0 0 30 " PBC="1 1 1" Properties=species:S:1:pos:R:3:force:R:3 Energy="-207.74662041"
C     1.310565770768400e+01   7.493367586307270e+00  -2.112395999999990e-01 -1.30278031e+00  -2.96527513e+00  -1.34640540e-01
C     9.390495323110624e+00   7.179013809603630e+00  -2.262905999999987e-01 -9.25572630e-01   9.06005000e-01   1.25758806e+00
C     1.074845245446261e+01   6.809901627128163e+00  -6.694740000000010e-02 -8.69091650e-01  -1.28646557e+00  -5.21263800e-01
C     1.105079039565928e+01   5.377786617303091e+00  -5.734410000000167e-02  1.84632170e-01   3.62627394e+00  -2.50872250e-01
C     6.988224624433663e+00   6.638516266015364e+00  -3.107667000000021e-01 -1.95334482e+00   7.87161350e-01   1.02806970e+00
C     8.304757638732406e+00   6.218675190282974e+00  -1.503957000000007e-01  2.65601784e+00  -9.76149200e-02  -1.33477535e+00
C     8.709485831160649e+00   4.857010840460492e+00  -1.817916000000004e-01 -3.29401076e+00  -1.58809384e+00   1.06232683e+00
C     1.003312801492630e+01   4.437375273560903e+00  -7.000710000000154e-02  3.59755930e-01  -2.54387700e-01  -7.79776630e-01
C     1.042979654454552e+01   3.093207268430616e+00  -2.130248999999971e-01 -2.67759169e+00  -3.03251059e+00  -1.83467510e-01
C     4.528882819068284e+00   6.116968638020958e+00  -1.965858000000011e-01  8.17934120e-01  -1.97998601e+00  -2.46538910e-01
C     5.923956340337346e+00   5.690924967048391e+00  -2.254614000000004e-01 -7.50109690e-01  -1.14277559e+00   2.67636000e-01
C     6.236925862330481e+00   4.277266574648857e+00  -1.085795999999988e-01 -3.23677760e-01  -2.80732500e-01  -1.21431853e+00
C     7.607621488750729e+00   3.817060793248739e+00  -1.548857999999989e-01 -1.30564850e-01   5.55168056e+00  -2.40580700e-02
C     7.889955564401054e+00   2.526932220853879e+00  -1.941233999999987e-01  4.81380370e+00  -5.31503266e+00   5.43935860e-01
C     9.371536867962194e+00   2.056819990077549e+00  -2.337665999999992e-01 -1.53167012e+00   3.38961238e+00  -5.51437280e-01
C     3.501152025570248e+00   5.068383294381947e+00  -1.822890000000008e-01  2.13247715e+00  -2.35637640e-01   6.36071540e-01
C     3.857416077677836e+00   3.684768523037111e+00  -2.112945000000011e-01  2.68152410e-01  -8.22245440e-01  -8.53406590e-01
C     5.190764278817029e+00   3.248771605171351e+00  -2.207651999999989e-01  2.34886558e+00   1.88216727e+00   1.08849786e+00
C     5.607194484678713e+00   1.889036652319590e+00  -1.543355999999996e-01 -1.72374100e+00  -8.80697530e-01  -3.48581900e-01
C     6.945891027363954e+00   1.470842341185618e+00  -8.719469999999774e-02 -5.36828220e-01   1.93658595e+00  -7.43334530e-01
C     7.291626062582562e+00   1.232578864068152e-01  -1.158375000000014e-01  4.33608300e-01  -2.29963640e-01   1.76528420e-01
C     2.873980434176723e+00   2.653469781929477e+00  -3.381512999999998e-01  1.36834620e-01   1.75577490e+00   7.33767680e-01
C     3.225544101356652e+00   1.289596866395988e+00  -4.004159999999999e-01  2.36973850e-01  -3.51593130e-01   1.00935547e+00
C     4.609407320309333e+00   8.706217756365726e-01  -2.521784999999994e-01 -9.28421550e-01   3.85065110e-01  -4.84016420e-01
C     7.859460635176507e-01   7.016117733586319e-01  -3.654701999999972e-01  2.04521936e+00   1.98974800e+00   1.12567206e+00
C     2.176876191040937e+00   3.453348105203917e-01  -3.137048999999976e-01  5.13130000e-01  -1.74706257e+00  -1.25896118e+00
