32
Lattice="9.86 0 0 4.93 8.53901048131456 0 0 0 30 " PBC="1 1 1" Properties=species:S:1:pos:R:3:force:R:3 Energy="-256.65922599"
C     9.750670002900000e+00   1.631632329326199e+00   3.468274200000000e+00  1.87323951e+00  -3.79890620e-01  -7.79789610e-01
C     1.103890153300000e+01   2.293441932320739e+00   3.350763600000000e+00 -6.35649920e-01  -2.28521100e-02  -4.06891460e-01
C     2.436161915700000e+00   1.566432031685321e+00   3.202713600000000e+00 -2.10375131e+00   1.77363998e+00   5.56398010e-01
C     3.610992451900000e+00   2.325057020892205e+00   3.177157500000000e+00  7.62225280e-01   4.48019100e-01  -2.09763100e-02
C     4.850622760200000e+00   1.652167881019656e+00   3.245944200000000e+00  3.21155840e-01  -4.51504770e-01   7.41719580e-01
C     6.079361959000000e+00   2.339598187228702e+00   3.421029900000000e+00  5.80717100e-01  -6.59186760e-01  -1.18175362e+00
C     7.332937117399999e+00   1.590550722956395e+00   3.365303400000000e+00 -2.06921159e+00   1.29121170e+00   8.24964470e-01
C     8.496065411200000e+00   2.342921911667938e+00   3.476527800000000e+00  2.89165572e+00  -1.20623405e+00  -3.70754970e-01
C     1.103438185690000e+01   3.700878271989299e+00   3.275482200000000e+00  6.98167490e-01   2.28266406e+00   5.83081700e-01
C     1.228164735480000e+01   4.475211368704876e+00   3.242913600000000e+00 -2.26764911e+00  -2.09370000e-01  -3.10086740e-01
C     3.596399405400000e+00   3.750759670219162e+00   3.183216900000000e+00  1.91748887e+00   6.84339790e-01   4.40593390e-01
C     4.848699024900000e+00   4.494714895591720e+00   3.287483100000000e+00  7.68518950e-01  -2.31503845e+00   4.16435050e-01
C     6.077970269300000e+00   3.751243575943063e+00   3.416180100000000e+00  9.79067810e-01   6.77279780e-01  -8.97110100e-02
C     7.354840811599999e+00   4.463122520788131e+00   3.464788500000000e+00 -1.68406383e+00  -2.71910160e-01   2.74634610e-01
C     8.594595996799999e+00   3.736799925106248e+00   3.458740200000000e+00 -1.34529733e+00   1.92023329e+00  -3.24559200e-02
C     9.821707260299998e+00   4.473029907697551e+00   3.368198100000000e+00 -9.02357900e-02  -1.98056230e+00   1.98080220e-01
C     1.226308989810000e+01   5.922355473347113e+00   3.264393900000000e+00 -6.79725670e-01  -1.20173630e+00   1.44020460e-01
C     1.350240049590000e+01   6.583975424918892e+00   3.214237800000000e+00  5.85875760e-01   1.92984691e+00   2.67157450e-01
C     4.917821667500000e+00   5.881362074955567e+00   3.329669700000000e+00 -3.24988001e+00   1.02270207e+00  -7.68893930e-01
C     6.094906889900000e+00   6.617910477247670e+00   3.369520500000000e+00  6.87452540e-01  -3.75057000e-03   7.54801700e-02
C     7.286952690300000e+00   5.884524412096730e+00   3.495961200000000e+00  2.75654377e+00  -7.43140500e-02  -8.85074820e-01
C     8.580919289400001e+00   6.556552307372267e+00   3.433796100000000e+00 -2.03005920e+00   1.94406502e+00  -8.84009700e-02
C     9.795705010599999e+00   5.889283288027339e+00   3.382959600000000e+00  4.52796120e-01  -8.12407260e-01   3.18159750e-01
C     1.099368465760000e+01   6.618306089603208e+00   3.380466300000000e+00  2.01395638e+00   8.05571980e-01  -8.52546910e-01
C     1.348318345450000e+01   8.055588491042093e+00   3.200831100000000e+00  2.40356962e+00  -2.43587558e+00   1.10091260e+00
C     9.834800798000000e+00   2.155131822411568e-01   3.350942700000000e+00 -2.87842406e+00   4.30676300e-02  -7.18963880e-01
C     6.107391819099999e+00   8.039065505763292e+00   3.270837000000000e+00  1.86821940e-01  -4.62796510e-01   7.00898690e-01
C     2.414019017900000e+00   1.800937937206408e-01   3.257210400000000e+00  7.19030500e-01  -1.13951720e+00   1.66395320e-01
C     8.576194821100000e+00   7.999952909820071e+00   3.335507400000000e+00  6.24357950e-01   2.36093140e-01   1.47039170e-01
C     4.878840995600000e+00   2.416376016838784e-01   3.345868800000000e+00 -9.42640930e-01  -1.39606848e+00  -5.46545240e-01
C     1.103692568760000e+01   8.064987123707114e+00   3.343240200000000e+00 -1.24426218e+00  -1.91302259e+00   2.64058170e-01
C     7.339379148399999e+00   1.690292001109712e-01   3.301172400000000e+00 -1.79019000e-03   1.87730329e+00  -1.67183420e-01
