32
Lattice="9.86 0 0 4.93 8.53901048131456 0 0 0 30 " PBC="1 1 1" Properties=species:S:1:pos:R:3:force:R:3 Energy="-257.02608396"
C     4.944046999699999e+00   7.546330957366000e+00  -1.392206999999992e-01  2.47601239e+00  -1.14745739e+00   3.17528100e-02
C     6.222983014800000e+00   8.252494913277014e+00  -1.641510000000004e-01 -1.08740811e+00  -9.83025510e-01  -3.80270180e-01
C     7.441968159300000e+00   7.520716146068726e+00  -9.454769999999968e-02 -4.39636500e-01  -1.09900121e+00   8.63125200e-02
C     8.667623938899998e+00   8.216570356896503e+00  -1.705821000000007e-01  7.29707590e-01   1.55194220e-01  -2.38602370e-01
C     9.914565880900000e+00   7.504505347013074e+00  -1.711331999999999e-01 -2.45968970e-01   1.83775090e-01  -1.91627000e-03
C     1.113607227670000e+01   8.205128424413720e+00  -2.049069000000010e-01  8.14211210e-01   1.13903681e+00   6.39142710e-01
C     1.240446100050000e+01   7.491210107695714e+00  -1.916861999999995e-01 -2.17961716e+00   3.02507620e-01  -8.13800960e-01
C     1.358735198810000e+01   8.225164358603992e+00  -2.136762000000019e-01  6.79487340e-01   7.85765400e-02   2.77408670e-01
C     1.289334075300000e+00   1.098978931616166e+00  -3.885884999999973e-01 -3.60600490e-01   9.71372010e-01   8.38408840e-01
C     2.537142464800000e+00   1.811917909222221e+00  -4.102443000000022e-01 -1.00515793e+00   4.15836350e-01  -4.44018950e-01
C     3.761882989900000e+00   1.099752395185444e+00  -3.127011000000017e-01 -3.49728100e-01   1.90694720e-01   6.63658280e-01
C     4.976321195400000e+00   1.834334861094736e+00  -1.929006000000015e-01  1.85583640e-01  -2.85520800e-02  -8.60250500e-02
C     6.192371412300000e+00   1.127848130587578e+00  -1.170479999999969e-01  1.36320005e+00  -1.29867045e+00  -5.34640520e-01
C     7.468186145800000e+00   1.836369365731701e+00  -1.301264999999994e-01 -1.82145898e+00  -2.34218007e+00  -2.07708910e-01
C     8.678503019199999e+00   1.092166252884907e+00  -2.474699999999999e-01 -4.38656320e-01   1.25983723e+00   4.77032630e-01
C     9.882036508399999e+00   1.817157958393378e+00  -3.282336000000008e-01  1.88418859e+00  -2.09112560e-01  -7.32611090e-01
C     2.501680284600000e+00   3.240329388843747e+00  -5.048220000000008e-01  9.18942140e-01   5.41029460e-01   4.47199310e-01
C     3.772358155300000e+00   3.959280000607932e+00  -3.718557000000011e-01 -1.59527826e+00  -5.42781700e-01   1.63688180e-01
C     4.989934503000000e+00   3.270303364991062e+00  -1.805003999999997e-01 -7.64983130e-01  -1.27889038e+00  -8.04838290e-01
C     6.207516668099999e+00   3.955623596320396e+00  -1.405089000000004e-01  3.90600570e-01  -6.20534350e-01   9.88942050e-01
C     7.419655965300000e+00   3.202366912222077e+00  -1.007667000000012e-01  2.21224468e+00   2.87578446e+00  -5.08515800e-01
C     8.709977766100000e+00   3.935201528076218e+00  -1.922792999999992e-01 -2.37362605e+00   8.31816590e-01   2.73042460e-01
C     9.915489614999998e+00   3.254148069503531e+00  -3.888399000000007e-01 -9.65165460e-01  -1.03352321e+00   3.90094290e-01
C     1.110727708340000e+01   3.978362554278112e+00  -5.038643999999977e-01  2.15664310e+00  -1.07660284e+00   3.86427740e-01
C     3.751883815999999e+00   5.362689855274752e+00  -3.053898000000004e-01  1.51273337e+00   1.14232624e+00   2.84488480e-01
C     5.003230022800000e+00   6.110314378840672e+00  -1.031613000000000e-01 -1.79426341e+00  -5.99089240e-01  -5.16887110e-01
C     6.207583518900000e+00   5.357422225099745e+00  -2.885969999999816e-02 -1.21390060e-01   1.00893040e+00  -4.65013210e-01
C     7.422078024999999e+00   6.056369692473901e+00  -9.198899999997678e-03  1.28090719e+00   1.72863158e+00  -2.60678510e-01
C     8.670795654399999e+00   5.378123092036095e+00  -1.013246999999993e-01  8.18366830e-01  -8.05692910e-01  -2.77304670e-01
C     9.929193831799999e+00   6.091397225803489e+00  -1.880370000000013e-01 -1.08715962e+00  -4.50153240e-01  -2.74234750e-01
C     1.114216220710000e+01   5.377703058110583e+00  -3.798020999999991e-01  2.77297590e-01   7.06825560e-01   1.16579170e-01
C     1.240516766670000e+01   6.079811752554540e+00  -3.498383999999994e-01 -1.07002773e+00  -1.69077500e-02   4.82888510e-01
