32
Lattice="10.14 0 0 5.07 8.78149759437421 0 0 0 30 " PBC="1 1 1" Properties=species:S:1:pos:R:3:force:R:3 Energy="-256.45542896"
C    -2.012497838784270e-04   1.617830981245495e-03   3.002345099570318e+00  1.14835870e-01  -1.24773790e-01  -2.37439200e-02
C     1.270156269924239e+00   7.295806725541804e-01   3.000297155871296e+00 -1.26869390e-01   1.48408920e-01   2.60609500e-02
C     2.534112357751676e+00  -2.213169230515967e-03   2.998772707013338e+00  4.66057200e-02  -1.70065600e-02   3.20897400e-02
C     3.800826876233355e+00   7.317170525599275e-01   3.000194997669023e+00  1.85642700e-02  -6.48382800e-02  -5.10044000e-03
C     5.068582131986174e+00   2.880386095076580e-03   3.001830788470369e+00  1.77601680e-01  -1.17097950e-01  -3.35298900e-02
C     6.341644670572639e+00   7.340282409145402e-01   2.997962225857850e+00 -1.32701250e-01  -1.74970460e-01   4.81763900e-02
C     7.608969187904917e+00  -6.949896688100984e-04   3.001315368639825e+00 -1.08461660e-01   4.99702300e-02  -5.80616200e-02
C     8.874234005635769e+00   7.321414378232920e-01   2.999369339492785e+00  1.01593200e-02  -5.49846000e-03   5.58338600e-02
C     1.266036504480978e+00   2.196453029625418e+00   3.004226962477923e+00  1.94694670e-01  -6.20560500e-02  -4.01392300e-02
C     2.539624241851465e+00   2.929520117209218e+00   3.001297471397995e+00 -2.00747680e-01  -1.60158160e-01  -1.22498300e-02
C     3.802474986518894e+00   2.193003863541583e+00   2.999167685813531e+00  7.69489300e-02   8.83973100e-02   3.78494800e-02
C     5.074139929455851e+00   2.923034473173580e+00   3.002748231978771e+00 -1.99334400e-01   9.46376400e-02  -6.62227200e-02
C     6.338612682803031e+00   2.193811185613302e+00   2.999413713863170e+00  3.95815800e-02  -9.04661000e-03  -9.26087000e-03
C     7.601705425151267e+00   2.924381662434010e+00   2.996861867978116e+00  2.21892220e-01   1.05975370e-01   8.09408100e-02
C     8.874810393531963e+00   2.195190663495078e+00   3.003700413956889e+00 -1.88581540e-01  -2.52299400e-02  -6.68964500e-02
C     1.013858962463163e+01   2.925167405870392e+00   3.002689404827111e+00  6.89850600e-02   1.01128010e-01  -3.96719000e-03
C     2.537951371692784e+00   4.390544654208981e+00   2.999224304306450e+00 -1.19161560e-01  -5.96776600e-02   2.56089300e-02
C     3.799762187938700e+00   5.119276882570804e+00   2.999591437847319e+00  2.01507550e-01   1.63616220e-01  -1.05984200e-02
C     5.068854787840417e+00   4.386780549872708e+00   2.997294281342883e+00  8.51430300e-02   1.18802120e-01   3.67648700e-02
C     6.338956514529627e+00   5.126160619601479e+00   2.996614158056596e+00 -1.11745780e-01  -3.45990980e-01   3.91249500e-02
C     7.604774089578654e+00   4.389196939990353e+00   3.002837649932895e+00 -5.57014100e-02  -1.26952700e-02  -8.29579300e-02
C     8.871144217851072e+00   5.119314928863297e+00   2.999628654929865e+00  3.80015400e-02   1.11190740e-01   1.28197600e-02
C     1.013816404874313e+01   4.390691465671829e+00   2.998062575226427e+00  8.54847100e-02  -8.41633900e-02   5.05093000e-02
C     1.140848622791363e+01   5.118418962892448e+00   3.001358973838832e+00 -4.33190100e-02   1.29247530e-01  -1.84576900e-02
C     3.801923081822025e+00   6.588646585016739e+00   3.001186883735980e+00  1.31906740e-01  -1.82891900e-01  -2.73348500e-02
C     5.071921981637122e+00   7.317844549305858e+00   3.002041924771407e+00 -8.33302400e-02  -3.76999000e-03  -2.74155400e-02
C     6.338766231546900e+00   6.581451653867817e+00   2.997882458224284e+00 -6.40155700e-02   2.34208700e-01   3.43694700e-02
C     7.604156464098370e+00   7.314553972007106e+00   3.001679644174311e+00  6.13024700e-02   6.67419200e-02  -4.50325900e-02
C     8.871033628829714e+00   6.585082054554272e+00   3.000089902449586e+00  1.29311030e-01  -1.91546300e-02   1.12559500e-02
C     1.014337839882783e+01   7.317700038672817e+00   3.000800076311944e+00 -1.27309650e-01  -1.80751000e-03   1.91119900e-02
C     1.141093441890329e+01   6.583400522796881e+00   3.003284710208252e+00 -8.05599000e-02   4.08148500e-02  -5.71406100e-02
C     1.267786082228682e+01   7.317508246945023e+00   2.997338961961179e+00 -6.06873600e-02   1.76880300e-02   7.75932900e-02
