26
Lattice="8.88768389401873 1.33226762955019e-15 0 4.44384194700937 7.69696003302603 0 0 0 30 " PBC="1 1 1" Properties=species:S:1:pos:R:3:force:R:3 Energy="-208.85828945"
C     2.776966610130247e-01   3.459734272940808e-01   3.581130300000000e+00 -3.99923200e-01  -9.44231980e-01  -8.94055000e-03
C     7.081021332419139e+00   7.476270405962230e+00   3.530870700000000e+00  9.95281400e-01  -1.73369818e+00  -4.06417840e-01
C     4.008063028338481e+00   1.602283096709127e-01   3.503995200000000e+00  3.86318990e-01  -1.75506182e+00   3.03853800e-02
C     9.498725493410216e+00   6.845492601215684e+00   3.523024500000000e+00  9.08170500e-02   4.18381600e-01  -5.91537710e-01
C     1.087698636135720e+01   7.249107022782429e+00   3.540456900000000e+00 -1.31148530e-01  -1.79765410e-01   5.07161060e-01
C     1.189288009172215e+01   6.228465184653931e+00   3.588725400000000e+00 -5.82387570e-01   1.33370180e+00  -1.22549370e-01
C     4.363976510855389e+00   6.628067642774639e+00   3.569634600000000e+00  3.22746780e-01   1.24273528e+00   6.34732300e-01
C     5.381101141029786e+00   5.652217262935923e+00   3.621468000000000e+00  5.70166080e-01   2.93301670e-01  -6.35934460e-01
C     6.742247307190409e+00   6.073812475859151e+00   3.493523400000000e+00  2.38048480e-01  -1.77125630e-01   6.63787730e-01
C     7.775727142128192e+00   5.085906655403846e+00   3.449796600000000e+00  1.04032860e+00  -1.09705776e+00   2.46960900e-02
C     9.183263863038238e+00   5.463482107249900e+00   3.421764000000000e+00 -7.01278340e-01  -7.96099000e-01   5.17568900e-01
C     1.022339732916780e+01   4.418291584801722e+00   3.454158600000000e+00 -2.30132627e+00   2.18758473e+00   2.84554670e-01
C     1.154261438012608e+01   4.865401373558796e+00   3.604622100000000e+00  8.40225010e-01  -8.34232750e-01  -4.60791460e-01
C     3.690776759781313e+00   3.885037034540886e+00   3.641229900000000e+00 -1.21738576e+00  -4.05218470e-01  -7.24765500e-01
C     5.030611548666753e+00   4.274109127705350e+00   3.648768900000000e+00  8.06196710e-01   2.31419880e-01   1.98708470e-01
C     6.024649131212462e+00   3.282481442227540e+00   3.646052100000000e+00  2.71214987e+00  -3.89803510e-01  -1.05564645e+00
C     7.469414449086479e+00   3.661279710113560e+00   3.511363200000000e+00 -2.16258297e+00   9.63190380e-01   7.70290930e-01
C     8.486587650437864e+00   2.661614705033223e+00   3.565678500000000e+00 -2.40963090e-01   2.40233836e+00  -5.59039410e-01
C     9.839050060602403e+00   3.063291955699618e+00   3.465749400000000e+00  8.02818410e-01   1.15519670e-01   5.46385900e-02
C     1.994547756851974e+00   2.099837453019616e+00   3.444519900000000e+00 -7.98004760e-01   8.59859680e-01   5.57163640e-01
C     3.330619900339427e+00   2.512405517280459e+00   3.477063600000000e+00  1.29653767e+00  -7.67710300e-02   5.69947690e-01
C     4.361245055638777e+00   1.506975950955254e+00   3.497682000000000e+00 -1.00183712e+00   6.92972820e-01   6.46891100e-02
C     5.696593830513331e+00   1.887076236599949e+00   3.558102000000000e+00  1.77264326e+00   1.21979534e+00   6.61854990e-01
C     6.771804629787384e+00   9.448611102747310e-01   3.613467900000000e+00 -6.67758400e-01  -1.01468761e+00  -4.89616920e-01
C     8.140869633394626e+00   1.331770126761964e+00   3.624643800000000e+00 -4.15666260e-01  -1.71376524e+00  -1.89654270e-01
C     1.647641723092450e+00   7.535033693976869e-01   3.541116900000000e+00 -1.25401604e+00  -8.43282790e-01  -2.95285620e-01
