32
Lattice="9.78 0 0 4.89 8.46972844901181 0 0 0 30 " PBC="1 1 1" Properties=species:S:1:pos:R:3:force:R:3 Energy="-257.93559641"
C    -2.257052163437004e-04  -1.087130031926502e-03   3.000705467775455e+00 -5.98950000e-03   4.97609700e-02  -1.09900000e-05
C     1.221979961176810e+00   7.056893112694523e-01   2.999520565586558e+00  3.03129900e-02  -1.68386800e-02   1.46163300e-02
C     2.445064546836906e+00   3.027208605030589e-04   3.000676715994138e+00 -3.92680000e-04  -1.12845000e-03  -2.68792000e-03
C     3.667955360822921e+00   7.069865996048115e-01   3.000246495345468e+00 -7.29508000e-03  -9.44068700e-02  -1.46087700e-02
C     4.890767653031260e+00   5.101373970390207e-04   2.998844822293389e+00 -7.93286000e-03  -4.30383200e-02   1.73325800e-02
C     6.113488433346132e+00   7.056882214456325e-01   2.999068270779036e+00 -2.18198100e-02  -2.65446200e-02  -2.27948000e-03
C     7.335819808930190e+00  -7.280030867337028e-04   2.999203425529514e+00 -4.39835700e-02   4.28896200e-02   9.24839000e-03
C     8.557375664609840e+00   7.062258523229176e-01   3.001118340821715e+00  4.29171300e-02  -7.60559300e-02  -1.21892400e-02
C     1.223314999798020e+00   2.117452430117273e+00   3.000317907574306e+00 -1.31120400e-02  -2.00007200e-02  -3.12567000e-03
C     2.445819159807293e+00   2.823114042210042e+00   3.000641300209607e+00 -1.77944500e-02   4.19019000e-02  -7.28472000e-03
C     3.667834774882598e+00   2.117095425713865e+00   2.998813134773505e+00  1.60966000e-03   4.16477600e-02   1.43589800e-02
C     4.890102653058392e+00   2.822798206488597e+00   2.999132001398822e+00 -1.49345000e-03  -9.64751000e-03   9.80173000e-03
C     6.112619540811099e+00   2.116668003965781e+00   2.999753009709348e+00 -1.86825000e-03   2.06705000e-02  -5.42664000e-03
C     7.334364393414902e+00   2.822109937452301e+00   3.000167591931254e+00  5.82487800e-02   4.66940600e-02  -7.41300000e-04
C     8.558533659933687e+00   2.116647401986670e+00   3.000496524898915e+00 -7.22316100e-02   4.16600100e-02   1.74484000e-03
C     9.780537931283913e+00   2.822096267862771e+00   3.000202507875221e+00  1.78746700e-02   4.15296000e-02   4.06713000e-03
C     2.445483321721049e+00   4.235866316234713e+00   3.001141076593406e+00  2.58706600e-02  -5.13075800e-02  -1.16186500e-02
C     3.668320858705398e+00   4.941777920338925e+00   3.000015465919033e+00 -4.78387600e-02  -3.34344900e-02   1.90129300e-02
C     4.889253048543330e+00   4.233812005928992e+00   3.001041070414123e+00  5.25884600e-02   5.49276300e-02  -2.31875400e-02
C     6.112234293245782e+00   4.940450406021058e+00   2.999195362848978e+00 -3.25409100e-02   1.56574800e-02   8.69117000e-03
C     7.334101083870299e+00   4.234888627029093e+00   2.999610619443390e+00  3.68154400e-02  -5.14133700e-02  -3.48686000e-03
C     8.557394668180411e+00   4.939571257973324e+00   2.999404886745557e+00  2.01497200e-02   4.89556600e-02   4.31076000e-03
C     9.781029573956161e+00   4.233857749309077e+00   3.000276326277120e+00 -4.99111000e-02   1.86425200e-02  -4.75790000e-03
C     1.100311449945869e+01   4.940597281549833e+00   3.000326267571793e+00 -1.94198500e-02  -2.91054800e-02   1.07041600e-02
C     3.667325688259608e+00   6.353416495160235e+00   3.000928750014223e+00 -3.49833900e-02  -6.20650400e-02  -1.11180000e-02
C     4.889066502032533e+00   7.057073904647189e+00   3.000966118778393e+00  2.59036500e-02   7.88623000e-02  -9.79164000e-03
C     6.111307040828788e+00   6.352897177864384e+00   2.999104450708529e+00  3.96235200e-02  -7.10299900e-02   1.58300000e-02
C     7.334138755960637e+00   7.057998751260230e+00   3.000791756644499e+00  2.90762600e-02   2.70191400e-02  -1.53956300e-02
C     8.557259647716347e+00   6.352683933020391e+00   2.999715319434101e+00  1.08284100e-02  -6.16766600e-02   1.14751200e-02
C     9.781056876204829e+00   7.057230279680232e+00   3.000896164041740e+00 -7.10496400e-02   6.38989700e-02  -1.49598200e-02
C     1.100248329856155e+01   6.351399206842666e+00   3.000920078504183e+00  7.23301000e-03   3.00150800e-02  -1.11122000e-02
C     1.222405309002377e+01   7.058166338653398e+00   2.999471615224039e+00  5.06046200e-02  -1.70395000e-02   1.25888600e-02
