32
Lattice="9.86 0 0 4.93 8.53901048131456 0 0 0 30 " PBC="1 1 1" Properties=species:S:1:pos:R:3:force:R:3 Energy="-252.21366291"
C     5.041157203000000e+00   8.291713392950188e+00  -8.203470000000124e-02  2.21003025e+00   5.07946850e-01   9.14867000e-03
C     1.408059124100000e+00   5.345969618853864e-01  -8.598930000000138e-02 -3.97792865e+00  -9.75060160e-01  -2.20483290e-01
C     7.507704384899999e+00   8.421662530747867e+00   5.501220000000000e-02  7.00898870e-01  -4.73279282e+00   9.90007860e-01
C     3.767107803900000e+00   5.488951933737272e-01   2.615970000000000e-02  1.54851983e+00   1.18971014e+00   8.47723520e-01
C     9.951438879199999e+00   8.323712480822939e+00   1.747776000000000e-01 -2.49412038e+00   1.98443052e+00  -2.43400991e+00
C     6.134159056900000e+00   5.299997294231640e-01  -6.051779999999951e-02  6.44782076e+00   1.39770911e+00   6.41859780e-01
C     1.244874822580000e+01   8.419511127057429e+00  -1.635251999999987e-01 -1.29387953e+00  -2.38435859e+00   7.44170140e-01
C     8.829221401600000e+00   4.614310483182400e-01   2.009880000000000e-02 -4.58764328e+00   4.75994108e+00  -1.21438324e+00
C     1.369968218600000e+00   1.901132295255793e+00  -3.561483000000010e-01 -2.59145298e+00   1.40811786e+00  -1.90534357e+00
C     2.527064558800000e+00   2.612872481180561e+00  -6.314916000000004e-01  2.52030251e+00   3.10922790e-01   2.06565597e+00
C     3.714169414600000e+00   1.965288101134758e+00  -1.812927000000002e-01  3.41438983e+00  -4.90190800e-01  -1.74833398e+00
C     5.059397512799999e+00   2.644014252401122e+00  -2.614310999999994e-01 -4.23417807e+00   1.91803180e+00  -2.42154860e-01
C     6.208410822200000e+00   1.982218738773873e+00  -8.650950000000179e-02  3.35078382e+00  -1.44724364e+00   7.39576760e-01
C     7.523268197699999e+00   2.760426667665066e+00  -2.476110000000276e-02 -1.19468790e-01  -6.18439975e+00  -3.66347390e-01
C     8.788228550199999e+00   2.002344503354395e+00  -3.115439999999836e-02 -6.23184190e-01  -1.38338658e+00  -1.68345129e+00
C     9.964824765900000e+00   2.654964423270359e+00  -5.266592999999986e-01  2.44874150e-01  -9.27195850e-01   3.86662670e+00
C     2.634437838900000e+00   4.021827398472884e+00  -7.866273000000028e-01 -1.97667502e+00   3.24574882e+00   4.38631860e-01
C     3.844116573100000e+00   4.809800795919319e+00  -6.116253000000000e-01 -9.39144000e-02  -3.00363028e+00   3.70307370e-01
C     5.103754349700000e+00   4.072268016499082e+00  -4.047596999999996e-01 -1.18917387e+00   1.19639059e+00   1.41736100e+00
C     6.288561135300000e+00   4.768412553683179e+00   5.454840000000000e-02 -9.41531400e-01   1.14946188e+00  -1.76428470e+00
C     7.544676032499999e+00   4.102819058974636e+00  -4.452600000000118e-02  2.20301850e-01   2.20113499e+00   1.09347683e+00
C     8.780494661999999e+00   4.818868968878764e+00  -7.315649999999962e-02  5.11961410e-01  -5.21072280e-01  -9.32372760e-01
C     1.001760529660000e+01   4.074873695547054e+00  -3.609746999999999e-01 -7.44323560e-01   1.60939284e+00  -1.71048984e+00
C     1.121985180930000e+01   4.822965559156544e+00  -6.920246999999975e-01 -4.93298620e-01  -1.81973050e-01   1.05649587e+00
C     3.731211586500000e+00   6.194006330626515e+00  -3.869135999999997e-01  9.86825200e-01   5.52683440e-01  -4.21367770e-01
C     4.927536922700000e+00   6.891290142588852e+00  -1.981551000000010e-01  4.64671875e+00  -4.35559800e-01   2.37510912e+00
C     6.242463268900000e+00   6.187422070425596e+00   1.916421000000000e-01 -2.01417080e-01   6.52778300e-01  -1.97836459e+00
C     7.545623627800000e+00   6.905562671655647e+00   2.447973000000000e-01 -4.31490842e+00   2.36708873e+00  -1.10268266e+00
C     8.719364190300000e+00   6.259210043871585e+00  -3.504750000000101e-02 -2.27764400e-02  -2.66684938e+00   6.99087210e-01
C     9.879568550400000e+00   6.976045884300293e+00  -1.824741000000003e-01  3.08757121e+00  -9.13321100e-01   2.81934700e-01
C     1.109395765310000e+01   6.298170133087633e+00  -5.222364000000006e-01  2.89195670e+00  -1.50548267e+00   5.55467770e-01
C     1.241742369600000e+01   6.962289026076384e+00  -3.647664000000006e-01 -2.88308045e+00   1.30102699e+00  -4.68571280e-01
