26
Lattice="8.88768389401873 1.33226762955019e-15 0 4.44384194700937 7.69696003302603 0 0 0 30 " PBC="1 1 1" Properties=species:S:1:pos:R:3:force:R:3 Energy="-208.47630711"
C     5.164897076649051e-01   6.093709425415103e-01   3.430989900000000e+00  2.27482800e-02  -8.08882750e-01   5.88912230e-01
C     2.918944647323472e+00   6.393025728277729e-02   3.452985300000000e+00  3.68848730e-01  -2.03718501e+00   1.00274620e-01
C     4.286049561131621e+00   4.600879409420584e-01   3.525177600000000e+00  3.10575780e-01  -5.57991410e-01   8.69517320e-01
C     9.767267084564699e+00   7.193449304200695e+00   3.701589900000000e+00  3.72162160e-01  -1.23509123e+00  -1.28589800e-01
C     1.114139744584928e+01   7.577149458051421e+00   3.703506000000000e+00  3.86861600e-01  -7.86194530e-01   3.29432010e-01
C     1.214924124538374e+01   6.519603005667082e+00   3.694233000000000e+00 -1.25527636e+00   8.08805570e-01  -1.01074256e+00
C     4.615690872291535e+00   6.890246498340518e+00   3.511760700000000e+00 -4.71495390e-01   2.22579497e+00   1.57299420e-01
C     5.628888390492397e+00   5.960734896666414e+00   3.481462200000000e+00  1.74991630e+00  -2.11014980e+00  -3.84752620e-01
C     7.035006592618550e+00   6.343494789879876e+00   3.475074900000000e+00 -1.29192828e+00   1.47610408e+00   8.55730770e-01
C     8.045781772577389e+00   5.417360460327735e+00   3.727032300000000e+00  1.66635377e+00  -2.35587503e+00  -1.52353554e+00
C     9.450561756134245e+00   5.790922178426945e+00   3.779691900000000e+00 -1.09068237e+00  -6.64043920e-01  -4.93837980e-01
C     1.044226027797933e+01   4.715469518228815e+00   3.695740200000000e+00 -1.13763192e+00   2.13008881e+00   2.93528710e-01
C     1.176426570642885e+01   5.141037440101926e+00   3.596375100000000e+00  1.99612839e+00   2.37591330e-01   5.38026550e-01
C     3.925870308026796e+00   4.168161858345205e+00   3.510256200000000e+00 -6.79715680e-01  -6.13572790e-01  -4.27241100e-01
C     5.287214180680387e+00   4.535623658651041e+00   3.464809500000000e+00  9.12407100e-02   2.48847349e+00   5.42534970e-01
C     6.319835687590231e+00   3.615047380906163e+00   3.523304100000000e+00  2.64253092e+00  -1.36886415e+00  -2.31026220e-01
C     7.756311018306924e+00   3.980107960591439e+00   3.557102700000000e+00 -2.32003885e+00   1.67944410e+00   1.27278390e+00
C     8.752180308064814e+00   2.989821470398856e+00   3.613673400000000e+00 -1.28636580e-01  -1.19129750e-01  -6.28374260e-01
C     1.010454250956720e+01   3.351014173729856e+00   3.641522100000000e+00  8.45341380e-01   6.49326800e-02  -8.21045580e-01
C     2.247826706162840e+00   2.366209766349040e+00   3.441304500000000e+00 -1.41098256e+00   4.16892080e-01   8.20232850e-01
C     3.584128374083654e+00   2.774009179023297e+00   3.440730600000000e+00  1.62359950e+00   5.13790400e-01   7.75041320e-01
C     4.653205293872305e+00   1.815940701093888e+00   3.576160500000000e+00 -3.97203740e-01   6.16580640e-01  -1.13715332e+00
C     6.035294131709052e+00   2.219438513716178e+00   3.579420900000000e+00 -1.35097072e+00   6.19536170e-01   4.67207960e-01
C     7.057766036911228e+00   1.267233656907224e+00   3.682122000000000e+00  1.42632800e-01  -1.46114096e+00  -1.20826060e+00
C     8.424428344030998e+00   1.616198045899362e+00   3.495883200000000e+00 -8.79756060e-01  -1.49632020e-01   1.01210438e+00
C     1.878922588232814e+00   9.880339748398035e-01   3.442535100000000e+00  1.95378180e-01   9.89719020e-01  -6.28067440e-01
