32
Lattice="9.824 0 0 4.912 8.50783356677833 0 0 0 30 " PBC="1 1 1" Properties=species:S:1:pos:R:3:force:R:3 Energy="-258.0429441"
C     1.892688337359238e-03  -3.275214796751400e-03   2.999197652607296e+00 -7.63165400e-02   2.74887540e-01  -3.59332300e-02
C     1.231224188207330e+00   7.106580238570794e-01   2.998456185147862e+00 -1.63825800e-01  -1.97705260e-01   3.79253900e-02
C     2.457952179578316e+00   1.248661842084785e-03   3.003506369608067e+00 -1.69132370e-01  -2.92221830e-01  -5.39446200e-02
C     3.681024172246751e+00   7.048621512408740e-01   2.997982092648150e+00  1.81533640e-01   2.13967740e-01   5.50684900e-02
C     4.910977539952362e+00   7.904250806509984e-06   3.000549608484489e+00  1.18201040e-01  -5.33276100e-02  -2.01026700e-02
C     6.141368602292032e+00   7.067365754869525e-01   2.999122830600040e+00 -5.66196400e-02   7.05071600e-02   3.45902800e-02
C     7.370801771749510e+00  -4.540648553859569e-03   3.004182667601875e+00 -2.18828000e-01   2.02900660e-01  -9.27615900e-02
C     8.594489765410181e+00   7.100866884727118e-01   2.997957009614723e+00  2.60614960e-01  -2.76356370e-01   3.17308900e-02
C     1.227453133704757e+00   2.124527577397219e+00   3.000226422736019e+00  3.81041400e-02   2.54196010e-01  -1.23528400e-02
C     2.455983997936366e+00   2.838948023151969e+00   3.001262088864249e+00 -3.08548700e-02  -2.98317290e-01   1.21003400e-02
C     3.680885309611543e+00   2.123066613580484e+00   3.001608384882021e+00  2.28780280e-01   2.59238360e-01  -1.48366900e-02
C     4.914924424935812e+00   2.839312594440115e+00   3.002764384509770e+00 -3.67267440e-01  -2.97488380e-01  -6.20619800e-02
C     6.138385140949702e+00   2.127611477049754e+00   2.998349405547281e+00  1.42449200e-01  -6.59138800e-02   3.37864400e-02
C     7.365796795085346e+00   2.838062528362056e+00   2.999854991019040e+00  1.67523340e-01  -1.81966840e-01  -2.38568900e-02
C     8.599264570158047e+00   2.123143080104150e+00   2.997458399132514e+00 -2.91610870e-01   3.21898900e-01   1.68022100e-02
C     9.823632942597895e+00   2.835723260665010e+00   2.999700813992598e+00  5.85437600e-02   6.72264000e-03   1.19586000e-02
C     2.455968956881747e+00   4.252031260192988e+00   3.002582572901473e+00  4.19981100e-02   3.21058110e-01  -7.24733000e-03
C     3.686003028644977e+00   4.965121668488789e+00   3.001747513692399e+00 -1.76717690e-01  -7.03540800e-02  -3.42473000e-02
C     4.909594787090998e+00   4.254364431107929e+00   2.996924308397719e+00  1.35692750e-01   7.65913200e-02   7.68462600e-02
C     6.137231956145548e+00   4.965857219963802e+00   3.001369178805712e+00  4.13696700e-02  -1.49996940e-01  -2.22134700e-02
C     7.364580300633504e+00   4.253807551698714e+00   3.000043884654925e+00  1.79822030e-01   1.55054860e-01   2.61405000e-03
C     8.598619837391590e+00   4.965326251053081e+00   2.998873992923250e+00 -2.79951100e-01  -1.23830590e-01   4.01446700e-02
C     9.823111353162870e+00   4.256761975863765e+00   3.004062890017895e+00  1.09783220e-01  -9.86602800e-02  -5.85341000e-02
C     1.105240619101695e+01   4.966904737112889e+00   3.001462458555599e+00  3.53197000e-03  -2.80659900e-01   2.99600900e-02
C     3.687583773798000e+00   6.383836909608853e+00   2.999100011395572e+00 -3.26456060e-01  -1.87962510e-01  -2.02418500e-02
C     4.909825452501286e+00   7.089270391824726e+00   2.996545417129872e+00  1.66159540e-01   1.10672120e-01   6.18676800e-02
C     6.136842581843811e+00   6.381169390356944e+00   3.003679517518895e+00  1.02165000e-01  -1.85571500e-02  -4.26503900e-02
C     7.366354033993414e+00   7.085926921189649e+00   3.003315216790951e+00 -1.94338300e-02   2.71748550e-01   1.17821000e-03
C     8.594493946169358e+00   6.381833737488743e+00   3.000408717487199e+00  1.24473900e-01  -2.44489800e-02   1.31873400e-02
C     9.825187190626091e+00   7.090590463361035e+00   3.001287365327157e+00 -9.90416100e-02  -1.51090000e-02   6.64190000e-04
C     1.105304665427915e+01   6.380593108306527e+00   3.001732204287594e+00 -1.06601810e-01   7.71336400e-02  -2.78709400e-02
C     1.227755840898106e+01   7.088164471859065e+00   2.997391920089523e+00  2.81911060e-01   1.62993000e-02   6.84307200e-02
