32
Lattice="10.124 0 0 5.062 8.76764118791366 0 0 0 30 " PBC="1 1 1" Properties=species:S:1:pos:R:3:force:R:3 Energy="-256.6387018"
C    -4.717290237259640e-04   1.493298951084493e-04   2.999398723808536e+00 -1.19389200e-02   1.85552000e-03   1.71480400e-02
C     1.264708982253179e+00   7.306011108728163e-01   3.000805610540268e+00  4.46433900e-02  -8.74859000e-03  -2.28694700e-02
C     2.531816455636690e+00   7.203469613750606e-04   2.999433682395729e+00 -7.60254200e-02  -6.05373300e-02   1.68639600e-02
C     3.796173932231123e+00   7.298033356293140e-01   2.999577265807841e+00  2.75027800e-02   3.20668200e-02   1.08609000e-03
C     5.062005952268128e+00  -2.501350120532709e-04   2.998759304558888e+00  9.49523000e-03   1.19208800e-02   1.96916500e-02
C     6.327841023328498e+00   7.295324387848443e-01   2.999654702919165e+00 -2.82228100e-02   6.97539900e-02  -2.63956000e-03
C     7.593243601671679e+00  -8.366639746512345e-04   3.000536561970864e+00 -1.78134800e-02   4.96223600e-02  -1.60221400e-02
C     8.857942110990361e+00   7.300473195114746e-01   2.999512967469887e+00  1.96502100e-02   2.59486000e-02   8.19231000e-03
C     1.264366629365080e+00   2.191002481758908e+00   2.999526614109894e+00  3.27766600e-02   4.08040800e-02   1.81611200e-02
C     2.530914140972099e+00   2.923145884926758e+00   2.999968107500115e+00 -1.81079800e-02  -6.37653500e-02   9.57191000e-03
C     3.797102590140323e+00   2.190726992460444e+00   3.001166937060245e+00 -5.31963600e-02   5.36926500e-02  -2.04910400e-02
C     5.061657519202872e+00   2.922506441653618e+00   3.000281026390164e+00  3.18171000e-03   4.96384000e-03   1.65680000e-04
C     6.326878279303489e+00   2.192935967944531e+00   2.999417095457840e+00  5.22193100e-02  -7.96752200e-02   1.50967000e-02
C     7.594095323314427e+00   2.921487008414469e+00   3.001250234183300e+00 -7.98569500e-02   8.54453300e-02  -1.54863600e-02
C     8.858136525547035e+00   2.192072334198246e+00   3.000335751032356e+00 -1.03284000e-03  -5.37066800e-02   6.40277000e-03
C     1.012276357184184e+01   2.921392199647501e+00   3.001233733425508e+00  5.32841200e-02   7.10279700e-02  -2.07303900e-02
C     2.529912567800215e+00   4.384143024310793e+00   3.000920064509400e+00  4.49638600e-02  -3.67537700e-02  -1.39518000e-02
C     3.795452650860196e+00   5.113427016318801e+00   2.999212388978302e+00  2.47964700e-02   5.60881300e-02   2.41425100e-02
C     5.061202137930645e+00   4.384002988611023e+00   3.000136279564480e+00  1.12976000e-02  -3.21757500e-02  -6.45189000e-03
C     6.327880735477660e+00   5.113400809617770e+00   2.999824747848089e+00 -5.62979900e-02   5.31847600e-02   6.24969000e-03
C     7.592651795142816e+00   4.384836721827884e+00   3.000788701635032e+00  4.87169000e-02  -8.13092700e-02  -6.57998000e-03
C     8.858678476424455e+00   5.115050877170104e+00   2.999801159519573e+00  2.14382000e-03  -1.28448800e-02   1.20335800e-02
C     1.012505705372536e+01   4.384429484844386e+00   3.000068830397257e+00 -5.09518900e-02  -4.87132400e-02   1.14469400e-02
C     1.139018597915567e+01   5.114355617200148e+00   3.001015539371134e+00 -5.69622100e-02   4.70187100e-02  -3.80349000e-03
C     3.795490601516348e+00   6.575230862545761e+00   3.000866452749517e+00  4.62501000e-03   2.89034200e-02  -1.72039500e-02
C     5.060836375659816e+00   7.307429935451993e+00   3.000890292043806e+00  1.26295200e-02  -7.85598700e-02  -1.42708500e-02
C     6.326489009252218e+00   6.575214470068748e+00   2.999816974056369e+00  6.14400000e-03   1.86043300e-02   1.09070300e-02
C     7.592111104687624e+00   7.305495794711402e+00   3.000803606263319e+00  6.58778000e-03   4.20315400e-02  -1.46528500e-02
C     8.857471918325755e+00   6.575533772112718e+00   3.000669261961243e+00  2.94944900e-02   2.38642400e-02  -8.61320000e-04
C     1.012366312367669e+01   7.307445382494011e+00   3.001111733586958e+00 -2.75732200e-02  -5.31332500e-02  -1.55872500e-02
C     1.138827485109628e+01   6.576820092639597e+00   3.001007072197529e+00  4.00533700e-02  -2.30246900e-02  -7.17252000e-03
C     1.265426587856033e+01   7.307577044518021e+00   2.999493005540320e+00  3.77386000e-03  -8.38492900e-02   2.16148900e-02
