32
Lattice="9.86 0 0 4.93 8.53901048131456 0 0 0 30 " PBC="1 1 1" Properties=species:S:1:pos:R:3:force:R:3 Energy="-252.03277752"
C     1.225435950900000e+00   8.724116587482297e-01   3.430642800000000e+00 -4.98767960e-01   4.28869287e+00  -1.24225851e+00
C     2.433570264000000e+00   1.705079859458976e+00   3.160146000000000e+00 -8.20532900e-02  -1.48712413e+00   1.14694549e+00
C     3.652789830000000e+00   9.329907293074368e-01   3.551601000000000e+00 -4.79066100e-02   3.83437560e+00  -5.52548400e-01
C     4.904928287800000e+00   1.675454958060083e+00   3.637782000000000e+00 -1.98796800e-02  -3.69661410e-01  -9.38772840e-01
C     6.202837703700000e+00   1.002347561079665e+00   3.803403300000000e+00 -4.29851469e+00  -6.52243510e-01  -2.54145490e-01
C     7.343681411500000e+00   1.791535205816356e+00   3.632219700000000e+00  4.49102760e-01  -3.72842407e+00   8.45672220e-01
C     8.557159943200000e+00   9.676123180788064e-01   3.532686300000000e+00  1.77035860e-01   2.43617207e+00  -1.66323700e-01
C     9.794137467799999e+00   1.579925973776550e+00   3.365678100000000e+00  2.08993075e+00   2.22038867e+00  -1.06792394e+00
C     2.417113085900000e+00   3.186020001339375e+00   2.796849300000000e+00  1.10875996e+00  -3.07431885e+00   1.09090856e+00
C     3.686641428500000e+00   3.874304208596421e+00   2.919030300000000e+00 -7.38936090e-01  -2.96538838e+00   6.51435570e-01
C     4.872052040500000e+00   3.080071716468146e+00   3.360652800000000e+00 -1.41329908e+00   1.79393164e+00   4.48338500e-02
C     5.984922731099999e+00   3.868444568824836e+00   3.676281900000000e+00  3.51918135e+00   1.20382543e+00   1.55637270e-01
C     7.244936075099999e+00   3.152802055110708e+00   3.757379700000000e+00  3.18464860e+00   1.60973846e+00  -1.53105556e+00
C     8.647491593700000e+00   3.774939842365692e+00   3.511077900000000e+00 -3.20916059e+00   5.09281510e-01   1.90172460e-01
C     9.787680844000000e+00   3.041569574384141e+00   3.103914300000000e+00  1.49119132e+00   5.78837250e-01   9.46860690e-01
C     1.104703021560000e+01   3.870498627795800e+00   2.801008800000000e+00 -1.77339394e+00  -1.09840238e+00   1.82292289e+00
C     3.630617648000000e+00   5.255082953007888e+00   2.992226400000000e+00  2.62416543e+00   1.58025672e+00   1.50203333e+00
C     4.819019143100000e+00   5.965717593245810e+00   3.504634200000000e+00  1.07944069e+00   1.51592505e+00   4.41571480e-01
C     6.086280573100000e+00   5.386488845993455e+00   3.779291400000000e+00  1.43539690e-01  -4.92187778e+00  -3.32625740e-01
C     7.412188198499999e+00   5.942391407537385e+00   4.059600600000000e+00 -1.67130051e+00   8.34415830e-01  -1.95652111e+00
C     8.662715285800001e+00   5.193685930634802e+00   3.672535800000000e+00 -2.04054279e+00   2.60222370e-01   1.13769133e+00
C     9.835321849700000e+00   5.920239506550169e+00   3.572730900000000e+00  1.07764334e+00   2.21974706e+00  -1.15528900e-01
C     1.108661091780000e+01   5.288434620140673e+00   3.105465300000000e+00 -2.90977675e+00  -6.69232190e-01  -1.47507570e-01
C     1.228873659620000e+01   5.979998661323087e+00   3.059970600000000e+00 -8.33355300e-02   2.52198431e+00   1.90325600e+00
C     4.856381936899999e+00   7.370381060041199e+00   3.733959000000000e+00  2.33631310e-01   1.00470702e+00  -2.27983738e+00
C     6.175621342900000e+00   8.066796113077302e+00   3.764132700000000e+00 -3.78048637e+00  -5.42291880e-01   5.36407950e-01
C     7.338590693500000e+00   7.424630418301897e+00   4.038724500000000e+00  2.41704295e+00  -3.39301388e+00  -6.10337360e-01
C     8.550870199900000e+00   8.123016104176573e+00   3.892772100000000e+00 -3.15579590e-01  -5.83908130e-01   6.65523500e-02
C     9.740989898599999e+00   7.393575147257499e+00   3.861703200000000e+00  3.28699765e+00  -1.77948206e+00  -7.14686470e-01
C     1.100352843790000e+01   8.078491824951548e+00   3.838374300000000e+00  2.54739145e+00   6.80401550e-01  -1.25085243e+00
C     1.229117334730000e+01   7.412887400309590e+00   3.545415300000000e+00 -1.80417570e+00  -2.02386074e+00  -1.45969334e+00
C     1.351651962150000e+01   8.130088283436320e+00   3.458995800000000e+00 -7.42593960e-01  -1.80367402e+00   2.13771728e+00
