32
Lattice="9.86 0 0 4.93 8.53901048131456 0 0 0 30 " PBC="1 1 1" Properties=species:S:1:pos:R:3:force:R:3 Energy="-253.16174466"
C     1.150980083600000e+00   1.141492188483046e+00   3.681598800000000e+00  8.40817960e-01  -2.67622899e+00   9.59072750e-01
C     2.358768606500000e+00   1.913896835071822e+00   3.733525200000000e+00 -1.26329218e+00  -2.40553250e+00  -1.16684820e-01
C     3.561776853500000e+00   1.212008276318039e+00   3.799184400000000e+00  1.75394277e+00   2.80494580e-01   1.02769830e-01
C     4.840742004899999e+00   1.875564363126054e+00   3.812957400000000e+00  1.38087041e+00  -6.92998005e+00  -1.13964748e+00
C     6.101323334200000e+00   9.990748145329953e-01   3.650681400000000e+00 -1.79521296e+00   2.81828156e+00   1.49700724e+00
C     7.270958833599999e+00   1.793186223492664e+00   3.711643800000000e+00  3.78384680e-01  -2.68015610e-01   4.56105170e-01
C     8.534131370899999e+00   1.088661074472972e+00   3.797979600000000e+00 -3.29869070e-01  -1.12423962e+00   3.99600520e-01
C     9.807551751299998e+00   1.786735086465129e+00   3.861074100000001e+00 -2.85350320e+00  -2.05505650e+00  -1.48303353e+00
C     2.342340811200000e+00   3.287250568310509e+00   3.754195200000000e+00 -9.83101480e-01   9.54027280e-01  -3.65932530e-01
C     3.623812916900000e+00   3.908650670450126e+00   3.742654500000000e+00 -1.30641676e+00   3.19176206e+00  -5.01587220e-01
C     4.860670149500000e+00   3.179658267751566e+00   3.719417700000000e+00 -1.39916820e+00   6.69828330e+00   1.67577590e-01
C     6.006634894799999e+00   4.042953166570719e+00   3.690766200000000e+00  8.89766130e-01  -4.16711742e+00   5.96706190e-01
C     7.172216603100000e+00   3.249797699834286e+00   3.804021300000000e+00  3.77653970e+00   8.73084390e-01  -1.67866115e+00
C     8.471403875000000e+00   3.957052941284643e+00   3.704307000000000e+00 -8.73002640e-01  -6.02073860e-01   9.75532140e-01
C     9.730816054800000e+00   3.133525836682842e+00   3.723454500000000e+00 -1.85716110e+00   5.95753920e+00   4.25125860e-01
C     1.087362131100000e+01   3.934236192941455e+00   3.719374500000000e+00  4.45586490e+00   1.92413432e+00   9.94093520e-01
C     3.594826193100000e+00   5.426003970890704e+00   3.667468500000000e+00  3.38643267e+00  -4.30410889e+00   1.27121670e+00
C     4.898729256500000e+00   6.110130875505457e+00   3.837993000000000e+00 -5.56840395e+00   9.39868360e-01  -6.17009810e-01
C     6.034692954500000e+00   5.414884813004067e+00   3.748815900000000e+00  2.65944723e+00   1.35149530e-01  -2.55220870e-01
C     7.285075198400000e+00   6.146528322286352e+00   3.738088800000000e+00 -1.26203175e+00  -2.28572253e+00   4.66833000e-01
C     8.456973370600000e+00   5.456273994531361e+00   3.735694200000000e+00  4.08708583e+00  -4.39299326e+00   1.93339250e-01
C     9.755572049800000e+00   6.092328490286438e+00   3.811034100000001e+00 -9.23650240e-01   2.27357386e+00  -1.21941130e-01
C     1.102536390090000e+01   5.434979324806231e+00   3.874391700000000e+00 -4.75333495e+00  -4.80107035e+00  -1.92863513e+00
C     1.223123445660000e+01   6.027687327051790e+00   3.684776700000000e+00  6.65545180e-01   3.06945288e+00   8.82150760e-01
C     4.835745449900000e+00   7.525963197228476e+00   3.918663000000000e+00 -5.24674230e-01  -1.64071426e+00  -1.31021195e+00
C     6.035186940500000e+00   8.160319796139712e+00   3.691383600000000e+00  1.59656939e+00   4.42984214e+00   1.55815768e+00
C     7.268665249700000e+00   7.487674274236156e+00   3.815248200000000e+00  1.51136490e+00   5.24429015e+00  -7.70141720e-01
C     8.521682578600000e+00   8.386490090410431e+00   3.837623700000000e+00 -1.84354860e-01  -6.16626989e+00  -7.32228830e-01
C     9.771474997299999e+00   7.550793956583477e+00   3.752680800000000e+00 -2.94238265e+00  -1.22418648e+00   8.01571590e-01
C     1.102054507240000e+01   8.102493360998837e+00   3.720716700000000e+00 -7.15998370e-01   4.62454221e+00  -4.40964900e-01
C     1.221846412970000e+01   7.465583171003558e+00   3.732124200000000e+00  1.75093687e+00  -1.96637910e+00   1.54208560e-01
C     1.343360357840000e+01   8.145852065293342e+00   3.851725800000000e+00  4.01989970e-01   3.59536349e+00  -4.39167270e-01
