32
Lattice="9.748 0 0 4.874 8.44201563609071 0 0 0 30 " PBC="1 1 1" Properties=species:S:1:pos:R:3:force:R:3 Energy="-257.77794708"
C     3.103901608444835e-03   2.465413847528186e-03   3.000769596078299e+00 -2.31975660e-01  -1.47735550e-01  -3.49378000e-02
C     1.220749835010018e+00   7.025459461615053e-01   2.999954444472515e+00 -1.51156900e-01   1.30034910e-01  -2.78287000e-03
C     2.433303078352057e+00  -1.055409628665474e-03   3.002130596546518e+00  3.58474670e-01   5.48191400e-02  -2.90021700e-02
C     3.656311924298872e+00   7.034703025540080e-01   3.002967957612098e+00 -1.70901780e-01  -2.71108000e-03  -5.58727600e-02
C     4.871430214250781e+00  -2.863732969537220e-03   2.999443180539425e+00  1.28566790e-01   1.01239540e-01   1.97722300e-02
C     6.090969248963949e+00   7.039501609558585e-01   3.001320049022384e+00  6.81006800e-02  -1.94210500e-01  -1.72350800e-02
C     7.311912506444451e+00  -1.651001889828284e-03   3.000133630284821e+00 -1.27474110e-01   1.31729590e-01   2.62134000e-03
C     8.526924845479488e+00   7.059686649864405e-01   2.998104877255508e+00  2.39633690e-01  -2.43401540e-01   3.30748700e-02
C     1.220294098663051e+00   2.110091050130100e+00   2.995851704957479e+00 -6.63254500e-02   2.23318700e-02   8.15872800e-02
C     2.440745759424508e+00   2.813296877947167e+00   3.002520687577307e+00 -3.04464320e-01   1.22655800e-01  -1.00294670e-01
C     3.655086631590790e+00   2.114207420094385e+00   2.996698482861964e+00  1.51418510e-01  -3.21876440e-01   8.94796100e-02
C     4.872930760860549e+00   2.812891794505136e+00   3.000697276194119e+00  2.08910150e-01   3.65124000e-02  -3.24011000e-03
C     6.094706760392882e+00   2.107870752265320e+00   3.000958226561015e+00 -9.00532300e-02   2.19581420e-01  -1.77695300e-02
C     7.313888295536087e+00   2.816673039373073e+00   2.997909245606770e+00 -1.82009190e-01  -1.16769690e-01   4.57582400e-02
C     8.529822208177624e+00   2.109843084654462e+00   3.000817883234799e+00 -1.13924160e-01   7.08079300e-02  -2.82543900e-02
C     9.744668988409520e+00   2.810151364476599e+00   3.000616454873316e+00  3.49907800e-01   2.27567080e-01  -4.74579500e-02
C     2.437072766516730e+00   4.220425952721278e+00   2.996977180275871e+00  1.93581400e-02   1.76836200e-02   6.07565800e-02
C     3.659080522762443e+00   4.920830251341882e+00   3.000724659037851e+00 -2.24515050e-01   2.54351160e-01  -1.83740400e-02
C     4.875799742144141e+00   4.221127356365247e+00   3.003773992045089e+00 -1.10680690e-01  -2.05582930e-01  -5.47346400e-02
C     6.088480540910328e+00   4.923051438947788e+00   2.998121289250724e+00  2.46429810e-01   1.23641170e-01   6.63821900e-02
C     7.309862047862714e+00   4.223311550796107e+00   3.000393734180275e+00 -2.87946400e-02  -1.25363100e-01  -1.77810300e-02
C     8.527686097399078e+00   4.922568030886095e+00   3.002070991859317e+00  8.25621900e-02   2.31615810e-01  -3.85481000e-02
C     9.748711146178689e+00   4.222386294279038e+00   2.997273043479400e+00 -1.95851890e-01  -2.57696660e-01   5.09923400e-02
C     1.096356413565334e+01   4.923137563294917e+00   2.998922164116737e+00  2.38726810e-01   1.58631800e-01  -1.58443100e-02
C     3.657377433759165e+00   6.331703873439043e+00   2.997661032812323e+00 -7.81734000e-02  -1.35436110e-01   3.52636200e-02
C     4.876757473043512e+00   7.032236717951796e+00   2.998203976869807e+00 -1.79179550e-01   3.00524050e-01   3.40304600e-02
C     6.089708005897118e+00   6.329935646477472e+00   3.001954165421765e+00  2.74878910e-01  -5.01749000e-03  -7.03707800e-02
C     7.312165073507985e+00   7.036082929071135e+00   2.996862648548962e+00 -1.73991370e-01  -1.23916080e-01   6.95275200e-02
C     8.529357175724094e+00   6.333137237785865e+00   2.999581519286087e+00  1.05549000e-02  -2.09616800e-01  -1.61119000e-02
C     9.750117921314354e+00   7.030564868481765e+00   2.997770555191234e+00 -2.06864750e-01   2.68301210e-01   3.60692500e-02
C     1.096538324934246e+01   6.334452240908075e+00   3.001737703899762e+00  1.39402390e-01  -3.22664180e-01  -2.40375200e-02
C     1.218449303614329e+01   7.035255683478423e+00   3.002132397898164e+00  1.19410700e-01  -6.00303500e-02  -3.26659100e-02
