26
Lattice="8.88768389401873 1.33226762955019e-15 0 4.44384194700937 7.69696003302603 0 0 0 30 " PBC="1 1 1" Properties=species:S:1:pos:R:3:force:R:3 Energy="-207.53767809"
C     1.324037735343958e+01   7.548324111830270e+00  -1.036104000000009e-01  6.71227270e-01   3.05630679e+00  -4.83693830e-01
C     9.490309523699114e+00   7.394186945418298e+00  -1.013732999999988e-01 -6.90699770e-01  -1.86506766e+00  -4.05386480e-01
C     1.082113442250365e+01   6.955956369751832e+00   1.393701000000000e-01  1.18374741e+00   2.77040189e+00  -4.37764940e-01
C     1.119204475556511e+01   5.635502698473976e+00   1.096767000000000e-01 -2.03097990e-01  -4.03782327e+00  -7.95741070e-01
C     7.082099674665701e+00   6.799228252654562e+00  -4.620636000000005e-01  7.64529640e-01  -2.60657042e+00   1.13851553e+00
C     8.486906098566596e+00   6.379176049308549e+00  -1.918587000000009e-01 -1.87256123e+00   1.34701106e+00  -4.48886380e-01
C     8.756559049030834e+00   4.999517823297534e+00  -3.709169999999773e-02  2.70438519e+00   6.48144060e-01  -8.00430070e-01
C     1.016225028628594e+01   4.555665311055555e+00  -8.549879999999987e-02  1.18986430e-01   2.02126916e+00   4.91590630e-01
C     1.049427224738798e+01   3.189349072530143e+00  -3.449991000000026e-01  1.58979153e+00   3.21467592e+00   8.72961540e-01
C     4.701005438158683e+00   6.193054781248714e+00  -7.623689999999783e-02  3.89185380e-01   1.26276720e-01  -2.31894560e-01
C     6.036269290701848e+00   5.785262911595287e+00  -2.542362000000011e-01  1.29022056e+00   2.13757619e+00  -1.62516450e-01
C     6.392766022408408e+00   4.455111378558033e+00  -1.117850999999987e-01 -2.69099970e-01  -1.44165570e+00   3.37924780e-01
C     7.734339375085419e+00   4.085924458600673e+00  -8.209139999999948e-02  1.10297592e+00  -4.00220955e+00   3.22301100e-02
C     8.148040750849677e+00   2.611875102048956e+00  -8.938500000000005e-02 -3.96205164e+00   2.92501450e+00   1.56858270e-01
C     9.460961499401362e+00   2.276351221630804e+00  -3.168477000000003e-01  5.70449370e-01  -2.42954440e+00  -1.45586990e-01
C     3.704461927429851e+00   5.226701834330217e+00   4.441020000000000e-02 -2.08043748e+00  -8.50758120e-01  -5.33149450e-01
C     4.023661227026435e+00   3.842557820013717e+00  -1.659287999999997e-01 -4.01978520e-01  -1.98449930e-01   6.95572700e-01
C     5.394016766257452e+00   3.435952205840114e+00  -5.142929999999879e-02 -1.24541937e+00  -4.19232400e-02  -1.13829718e+00
C     5.681930929737458e+00   2.050018109529438e+00  -1.092978000000002e-01  1.14192987e+00  -1.99512630e-01   1.05818760e-01
C     7.063035189436026e+00   1.657890246263464e+00   7.950300000000000e-03  1.32133819e+00  -5.29468340e-01  -3.60563620e-01
C     7.445249856470486e+00   2.704159112811846e-01   8.652960000000000e-02 -1.12407907e+00  -3.89931050e-01  -3.85807090e-01
C     3.000887805884213e+00   2.848852571084609e+00  -3.658844999999999e-01  1.12026030e-01  -8.67797280e-01  -7.16282000e-02
C     3.354422761327293e+00   1.448572726730819e+00  -4.877405999999986e-01 -1.49199569e+00   5.75020200e-02  -5.88972260e-01
C     4.678406676539467e+00   1.030406201622555e+00  -3.361826999999984e-01  1.36779033e+00   1.65114273e+00   1.32484656e+00
C     9.276659158379497e-01   9.142630002194704e-01  -4.155675000000016e-01 -2.89365470e-01  -3.53155303e+00   2.91129350e-01
C     2.303038019315518e+00   4.332741182551477e-01  -6.336528000000001e-01 -6.97796910e-01   3.03694358e+00   1.54287033e+00
