32
Lattice="9.86 0 0 4.93 8.53901048131456 0 0 0 30 " PBC="1 1 1" Properties=species:S:1:pos:R:3:force:R:3 Energy="-254.0115529"
C     9.875460332100001e+00   1.872190856255720e-01   4.133001900000000e+00 -3.81331702e+00   1.38041716e+00   7.87087840e-01
C     1.184223172200000e+00   9.036481275950128e-01   4.259303400000000e+00  2.00001275e+00   1.66111906e+00   3.27851600e-01
C     2.423482498000000e+00   1.852949903941136e-01   3.958540200000000e+00  6.45169620e-01   2.59857179e+00   4.36564900e-01
C     3.678412765500000e+00   9.505654645070584e-01   4.025710800000001e+00 -1.17331760e+00  -1.78291527e+00   6.20371200e-02
C     4.898151559100000e+00   2.000866912980936e-01   3.869641800000000e+00 -7.39447150e-01  -7.41049030e-01   2.35198660e-01
C     6.108086751900000e+00   8.860028601688263e-01   3.935511600000000e+00 -3.69494370e-01   2.33821894e+00   7.13731110e-01
C     7.334392453400000e+00   3.061988397804336e-01   4.085011500000000e+00  1.31488870e+00  -4.34060615e+00   5.55331360e-01
C     8.559729212700001e+00   8.938353529217112e-01   4.340731200000000e+00  1.91488726e+00   3.50361856e+00  -1.69265063e+00
C     1.102195455940000e+01   2.369130525753992e+00   4.640827200000000e+00  9.61467160e-01  -2.25632135e+00  -1.55478334e+00
C     2.441661380000000e+00   3.069066212810998e+00   4.555615200000000e+00  5.07662000e-03  -2.34118987e+00  -7.55987690e-01
C     3.659590025500000e+00   2.343559519580479e+00   4.268356500000000e+00  7.08264850e-01  -3.56593800e-01  -5.54489230e-01
C     4.927929597199999e+00   3.008756718812645e+00   4.020674100000000e+00 -2.65881579e+00   2.25429245e+00   7.46667620e-01
C     6.120189063800000e+00   2.285606365524082e+00   4.015742400000000e+00  9.72058650e-01   2.45227145e+00  -8.99524070e-01
C     7.365360297700001e+00   3.097807924355945e+00   4.037486400000000e+00 -1.26696377e+00  -2.16549924e+00  -2.14706980e-01
C     8.562108726500000e+00   2.453124075389988e+00   4.295684400000000e+00 -4.34707110e-01  -6.00784493e+00   8.31607590e-01
C     9.755436376199999e+00   3.046449106532832e+00   4.581990900000000e+00  2.01359042e+00   2.08654175e+00  -2.26745560e-01
C     1.232732355830000e+01   4.436550571806153e+00   4.404613800000001e+00 -2.09356910e-01   2.88138057e+00   8.69832520e-01
C     3.667640222500000e+00   5.280494450465635e+00   4.215440700000000e+00 -1.92401800e-02  -3.69733667e+00  -1.04753982e+00
C     4.852906040400000e+00   4.475136225412653e+00   3.925128600000000e+00  2.57225837e+00   1.42709714e+00   3.54950830e-01
C     6.159271688100000e+00   5.222209897412508e+00   3.681087300000000e+00 -2.09075751e+00  -2.17746451e+00   4.35859610e-01
C     7.413442735600000e+00   4.454154168861197e+00   3.772503900000000e+00 -3.38427464e+00   2.05694934e+00   4.89607800e-01
C     8.550178126499999e+00   5.208793745706751e+00   3.945528300000000e+00  3.49791324e+00  -1.35856379e+00   1.19177491e+00
C     9.772788398599999e+00   4.472993275342592e+00   4.477054200000000e+00  1.95751400e-01   9.42470070e-01  -1.82984364e+00
C     1.107111622360000e+01   5.081933167999688e+00   4.419542700000000e+00 -1.18946908e+00   3.74992922e+00  -1.07361613e+00
C     1.349642213140000e+01   6.682803968242001e+00   4.108234200000000e+00  7.03670230e-01   1.17901830e-01  -3.40736800e-01
C     4.889774651000000e+00   7.354618644425853e+00   3.869822099999999e+00  2.24242000e-01  -1.07305435e+00   5.94855090e-01
C     6.113819996800000e+00   6.630771507882121e+00   3.658810200000000e+00  7.47981170e-01   4.06599150e-01   1.91007230e-01
C     7.385779667500000e+00   7.358345666330059e+00   3.651504600000000e+00 -1.72694924e+00  -1.05738377e+00   5.12267110e-01
C     8.583200006000000e+00   6.596033276227596e+00   3.734458500000000e+00  8.96230080e-01   9.92754930e-01   4.87472370e-01
C     9.831583627899999e+00   7.290164741691031e+00   3.876357600000000e+00 -5.67150000e-04  -2.73193300e-01   1.57579940e-01
C     1.106095071150000e+01   6.558893960216198e+00   4.100974799999999e+00  1.31722610e-01   8.37336570e-01   7.60253370e-01
C     1.226489703890000e+01   7.401677387351447e+00   4.152852000000000e+00 -4.28507600e-01  -2.05845395e+00  -5.50914670e-01
