32
Lattice="9.86 0 0 4.93 8.53901048131456 0 0 0 30 " PBC="1 1 1" Properties=species:S:1:pos:R:3:force:R:3 Energy="-256.44788753"
C     4.923330252300000e+00   8.278500555083959e+00  -1.734335999999992e-01 -4.86025000e-02  -8.64779200e-01  -2.80174410e-01
C     1.215641372000000e+00   4.456545433356016e-01  -1.741829999999993e-01  7.28703270e-01   4.24853180e-01  -8.53709500e-02
C     7.370119571799999e+00   8.274455711209688e+00  -9.860489999999800e-02  1.66649518e+00   9.61581270e-01  -8.18185670e-01
C     3.697513853299999e+00   4.904362737265992e-01  -2.576159999999987e-01 -2.28392770e-01  -1.34162832e+00   5.72264880e-01
C     9.889501267899998e+00   8.321682331081320e+00  -2.727570000000021e-01 -1.37806214e+00  -1.84215632e+00  -3.99182870e-01
C     6.190424949700000e+00   4.573238696674648e-01  -2.574810000000021e-01 -4.09454360e-01   8.89196200e-02  -1.06737250e-01
C     1.232177050490000e+01   8.307963215283731e+00  -2.908179000000004e-01  1.39480293e+00  -1.57709033e+00  -2.90213000e-01
C     8.639344522200000e+00   4.572156804046832e-01  -2.265993000000002e-01 -3.52302070e-01   1.88137270e-01   4.50494850e-01
C     1.268002951300000e+00   1.873217501485730e+00  -3.666605999999994e-01 -1.11903961e+00  -1.69007510e-01   3.96001850e-01
C     2.473899734600000e+00   2.592640491309669e+00  -4.907657999999984e-01  1.24683391e+00   7.66513260e-01  -3.62248130e-01
C     3.702588893899999e+00   1.899657181195374e+00  -3.800394000000011e-01  1.58961290e+00  -9.53566420e-01   2.59556300e-02
C     5.027693373000000e+00   2.537746266977522e+00  -3.547028999999995e-01 -3.30025383e+00   1.13398279e+00  -1.93141790e-01
C     6.241503447199999e+00   1.856219320273718e+00  -2.300876999999986e-01 -1.18706954e+00   3.91607850e-01   3.12838450e-01
C     7.431767890700000e+00   2.579923940732539e+00  -1.184861999999995e-01  3.05610350e-01   7.70991810e-01  -2.80450100e-01
C     8.642480051500000e+00   1.882843357219625e+00  -1.515987000000010e-01  1.55890638e+00  -3.60552670e-01  -6.00994900e-01
C     9.893818074500000e+00   2.585005335088977e+00  -3.232605000000000e-01 -1.02212613e+00  -1.18341530e-01   2.76314510e-01
C     2.514226493700000e+00   4.029739474803443e+00  -7.004964000000022e-01 -2.43456577e+00  -1.77295406e+00   5.26857490e-01
C     3.718188153400000e+00   4.721767611205444e+00  -6.357816000000014e-01  1.62135714e+00  -5.79972000e-03   1.23483235e+00
C     4.931718252900000e+00   3.949072638260350e+00  -3.886952999999984e-01  1.35184507e+00   1.99313062e+00   1.28676380e-01
C     6.161445719500000e+00   4.702549287268632e+00  -1.439798999999979e-01 -5.28434190e-01  -2.06345270e-01  -6.23908250e-01
C     7.409370062599999e+00   4.008953388542502e+00  -1.070060999999995e-01 -6.11454240e-01   3.98873700e-02  -2.78789720e-01
C     8.599666501800000e+00   4.742445678983813e+00  -2.602716000000029e-01  2.20674542e+00  -5.38907370e-01   1.10967030e-01
C     9.850368111100000e+00   4.002997684903017e+00  -4.176696000000000e-01  6.28966000e-03   1.34881870e-01  -3.30593120e-01
C     1.108498707440000e+01   4.666387346396776e+00  -6.738339000000018e-01  9.16500560e-01   2.38209935e+00   4.68418900e-01
C     3.766745005200000e+00   6.159648682669081e+00  -4.529379000000020e-01 -3.80483952e+00  -1.37543069e+00  -8.41018920e-01
C     4.926442758499999e+00   6.811263390271340e+00  -2.292632999999995e-01  2.34739523e+00   2.85101074e+00   4.81314610e-01
C     6.164979790000000e+00   6.130086116046694e+00  -1.195997999999996e-01  9.67781010e-01  -2.24172070e-01   2.60601900e-02
C     7.423047262999999e+00   6.868597636848148e+00  -7.175339999999863e-02 -7.50137070e-01  -7.06155470e-01  -3.65630930e-01
C     8.677213972100001e+00   6.171580839743520e+00  -2.403906000000013e-01 -2.60080181e+00  -1.09797863e+00   2.45704000e-01
C     9.868479501400000e+00   6.837793839662385e+00  -3.876078000000014e-01  2.44455798e+00   2.08139400e+00  -1.54658070e-01
C     1.112629958700000e+01   6.123661023001121e+00  -6.181985999999995e-01 -8.92118930e-01   6.51963990e-01   9.40674330e-01
C     1.234845777810000e+01   6.895737600807255e+00  -4.813484999999993e-01  3.14217490e-01  -1.70608940e+00  -1.86077350e-01
