32
Lattice="10.108 0 0 5.054 8.75378478145311 0 0 0 30 " PBC="1 1 1" Properties=species:S:1:pos:R:3:force:R:3 Energy="-256.7143338"
C    -1.088618934091380e-03  -9.155782372760426e-03   3.011509664976470e+00  3.99992270e-01   1.95879540e-01  -4.45607300e-02
C     1.271845779350904e+00   7.290394742010294e-01   3.001666789202620e+00 -6.06108370e-01  -2.29388990e-01   1.84024510e-01
C     2.518450562610648e+00  -4.161590879385873e-03   3.012056221753864e+00  5.23502330e-01   6.73055400e-02  -1.41773280e-01
C     3.789619848505586e+00   7.362080705201220e-01   3.002449348141042e+00 -1.47196350e-01  -4.64980390e-01   6.10292000e-02
C     5.056424984622727e+00   9.202503173824563e-03   3.004386193422483e+00 -4.41151500e-02  -4.16322930e-01  -4.22372100e-02
C     6.327265394275954e+00   7.327344632373890e-01   2.994671815822586e+00 -3.08912430e-01  -1.75804830e-01   2.19567000e-02
C     7.584975622871460e+00  -1.951884998644198e-03   3.000637624633670e+00  2.92723010e-01   2.40551170e-01   5.42265600e-02
C     8.853269577702362e+00   7.335842403673966e-01   3.014509443057258e+00 -4.15688280e-01  -1.82127400e-01  -1.81822080e-01
C     1.258753072851020e+00   2.181183889871011e+00   3.010571861839194e+00  3.37515990e-01   6.44971590e-01  -2.41022880e-01
C     2.532179396016633e+00   2.929417192822646e+00   2.996694832576762e+00 -5.34930590e-01  -5.20192110e-01   9.87949500e-02
C     3.776884443408246e+00   2.185044840787757e+00   3.000746466469573e+00  5.81571240e-01   5.44431140e-01  -6.25141800e-02
C     5.047799573804108e+00   2.926220497461027e+00   2.993388959064280e+00  2.51396290e-01  -3.82935060e-01  -6.49512000e-03
C     6.323528739614555e+00   2.188560330557819e+00   2.986067123064911e+00 -6.00588860e-01   1.43026540e-01   1.36227350e-01
C     7.570674920389433e+00   2.918251662029538e+00   2.996413671927644e+00  1.98043800e-01   1.44750820e-01  -1.19184340e-01
C     8.831308755942928e+00   2.194437261500185e+00   2.995432775396767e+00  7.10746580e-01  -8.12455800e-02   5.84266400e-02
C     1.011003139061205e+01   2.921826256931799e+00   2.987659866482399e+00 -3.97841960e-01  -1.12763900e-01   2.07814510e-01
C     2.532157082519585e+00   4.384231888904766e+00   2.994040298488000e+00 -1.81117510e-01  -2.48139890e-01  -9.76833000e-03
C     3.785863343637370e+00   5.116142297134192e+00   2.997025752107012e+00  3.48339100e-01  -4.68281040e-01  -5.72934000e-02
C     5.061004631636532e+00   4.381010474028552e+00   2.996729842574811e+00 -3.84353600e-01   1.24253410e-01   6.77383100e-02
C     6.325026028502475e+00   5.114893295202718e+00   3.009416166086914e+00 -4.45477500e-01  -4.94863220e-01  -1.73044760e-01
C     7.568701878201888e+00   4.377299519409551e+00   2.992004030365635e+00  5.21446020e-01   4.08479700e-02   9.92235500e-02
C     8.837866626891795e+00   5.106855297540072e+00   2.991619358704890e+00 -2.13631300e-02  -6.05811200e-02   8.13515900e-02
C     1.010751383024981e+01   4.386319456651461e+00   2.997155045804683e+00  8.02648000e-03  -4.35109940e-01  -1.41140790e-01
C     1.137385772690408e+01   5.097952311361749e+00   2.991925522369497e+00 -7.50818000e-02   8.15495100e-01   1.01785930e-01
C     3.781976945826232e+00   6.557769441454051e+00   2.991347276510947e+00  7.45053270e-01   4.36129450e-01   1.49294560e-01
C     5.066799838391619e+00   7.281647355989032e+00   3.006954382272223e+00 -8.96084380e-01   4.10254780e-01  -5.24615300e-02
C     6.316003912109164e+00   6.562120356507783e+00   3.007233429477201e+00  1.85463690e-01   5.95036600e-02   1.53357000e-03
C     7.569960575642398e+00   7.289090267934689e+00   3.003715097795611e+00  3.21699120e-01   2.83172100e-01   7.60933700e-02
C     8.832603513806225e+00   6.561285010831889e+00   3.003101407411399e+00  2.80781790e-01   6.02845900e-02  -2.67500800e-02
C     1.010619527198859e+01   7.284810447948779e+00   3.007171143273749e+00 -1.01009180e-01   6.99062250e-01  -2.15379700e-02
C     1.137191309748173e+01   6.574366833138562e+00   3.003711757716875e+00  1.47459840e-01  -5.78111150e-01  -8.07770900e-02
C     1.264779012085509e+01   7.298507305183750e+00   2.998421709263128e+00 -6.93891740e-01  -5.90720900e-02   2.86250000e-03
