32
Lattice="9.86 0 0 4.93 8.53901048131456 0 0 0 30 " PBC="1 1 1" Properties=species:S:1:pos:R:3:force:R:3 Energy="-247.3391659"
C     1.105253544800000e+00   1.271588453431296e+00   3.695360700000000e+00  9.49900070e-01  -7.63541270e+00  -2.53532142e+00
C     2.284818557199999e+00   1.791806319399096e+00   3.934921500000000e+00  4.82662203e+00   5.19971118e+00   8.73599730e-01
C     3.591281227300000e+00   1.197728318312126e+00   3.582071100000000e+00 -1.60316260e+00  -2.42491520e+00  -1.62933244e+00
C     4.891359251599999e+00   1.786540994756918e+00   3.444513000000000e+00 -3.82682197e+00   4.14132018e+00   1.59559728e+00
C     6.078511780500000e+00   1.161161201392993e+00   3.295834200000000e+00  2.51119148e+00  -1.54609174e+00   1.37576690e-01
C     7.278520418300000e+00   1.962339495425909e+00   3.484805400000000e+00  1.19719368e+00  -4.93316866e+00  -2.22368190e-01
C     8.530831426099999e+00   1.130599570544444e+00   3.602979000000000e+00 -1.43540415e+00   4.24580866e+00   7.06948300e-02
C     9.822436210099999e+00   1.924204786962858e+00   3.839464800000000e+00 -5.41722876e+00  -3.66877702e+00  -1.14451398e+00
C     2.264848951300000e+00   3.317348787060308e+00   4.330399799999999e+00  1.80436804e+00   1.56161530e-01  -2.10696553e+00
C     3.575230034700000e+00   3.941808160484594e+00   4.158989099999999e+00  1.49703373e+00  -1.10239463e+00  -1.25296690e+00
C     4.860347727500000e+00   3.258652312141626e+00   3.625708800000000e+00 -3.43222707e+00  -1.67136501e+00   9.25428200e-01
C     5.981979915499999e+00   3.966141266308822e+00   3.307003500000000e+00  1.02315029e+00   1.59541441e+00   1.52263943e+00
C     7.217667505600000e+00   3.322182293942512e+00   3.451578600000000e+00  2.28885031e+00   6.21568950e-01   4.62023100e-02
C     8.500025039299999e+00   3.990531412723055e+00   3.643723800000000e+00  1.42783218e+00  -2.49545546e+00   6.98278900e-02
C     9.767407057100000e+00   3.248297737253369e+00   3.875028600000000e+00 -1.45191087e+00   7.07034265e+00   8.77419180e-01
C     1.093353057240000e+01   4.201701398063769e+00   4.128712200000000e+00 -8.10049910e-01  -5.81447739e+00  -6.17503470e-01
C     3.685550518099999e+00   5.336742278739071e+00   4.080070800000000e+00 -1.27352090e+00   3.36984941e+00  -2.09509969e+00
C     4.868086890799999e+00   6.059073826312707e+00   3.479440800000000e+00 -5.28074844e+00   4.09247417e+00   1.41296600e-02
C     6.048623556899999e+00   5.424865037672880e+00   3.278120100000000e+00 -3.93868822e+00  -5.34205586e+00   4.29375800e-01
C     7.208582698799999e+00   5.933471301019662e+00   3.178204200000000e+00  8.09093380e+00   7.80630854e+00  -1.23481888e+00
C     8.594570163599998e+00   5.336230706621214e+00   3.463681800000000e+00 -4.45760438e+00   4.54102158e+00  -1.85339591e+00
C     9.664704656200000e+00   6.286011863015685e+00   3.426439500000000e+00  2.35766182e+00  -2.47055498e+00   1.07695631e+00
C     1.089124364530000e+01   5.572563618824603e+00   3.828828000000000e+00  2.62119272e+00   4.48387650e-01   1.34650166e+00
C     1.227400368560000e+01   6.155102001148901e+00   4.030425600000000e+00 -1.60265871e+00   5.72165680e-01  -2.90501862e+00
C     4.685958147300000e+00   7.594413783818462e+00   3.120116400000000e+00  2.48817196e+00  -3.09072667e+00   3.29251489e+00
C     6.018303761099999e+00   8.242555419688189e+00   3.111278700000000e+00 -4.37785785e+00   4.01021430e+00   1.62896564e+00
C     7.175342075200000e+00   7.609533553505083e+00   2.961489300000000e+00  4.66506835e+00  -4.18649545e+00   1.43537783e+00
C     8.476720239100000e+00   8.324948331809710e+00   3.109658400000000e+00 -2.77925451e+00   2.87643668e+00   1.50721901e+00
C     9.707234583000000e+00   7.735915519674743e+00   3.232689300000000e+00  1.03553960e-01  -5.68839780e+00  -1.59385100e-01
C     1.099502719520000e+01   8.238528336955717e+00   3.296697600000000e+00  1.19666320e-01   2.76629990e+00   4.59151770e-01
C     1.220850937510000e+01   7.536963321309021e+00   3.523146300000000e+00 -2.96700314e+00  -2.66223173e+00   1.73894620e+00
C     1.330819236500000e+01   8.286989953913070e+00   3.485321400000000e+00  6.68175075e+00   1.21903486e+00  -1.29143417e+00
