32
Lattice="9.86 0 0 4.93 8.53901048131456 0 0 0 30 " PBC="1 1 1" Properties=species:S:1:pos:R:3:force:R:3 Energy="-255.29855941"
C     1.097013887900000e+00   5.969361786748359e-01   3.151931100000000e+00 -6.29801700e-02  -5.66683570e-01  -2.14002320e-01
C     2.348706723000000e+00   1.340937514703987e+00   3.336918000000000e+00 -1.74619218e+00   4.78265550e-01   1.04052114e+00
C     3.560551995000000e+00   5.994945516047488e-01   3.428289600000000e+00 -2.75941830e-01   1.68039719e+00  -2.49721760e-01
C     4.809032688599999e+00   1.324853946904488e+00   3.506519700000000e+00 -2.06848179e+00  -8.37957160e-01   2.11373260e-01
C     5.980282072800000e+00   6.155733375583792e-01   3.462206400000000e+00  2.82292858e+00  -1.67585917e+00  -1.95794780e+00
C     7.224765670300000e+00   1.296768372924825e+00   3.128724300000000e+00 -2.39038738e+00   2.51711357e+00   5.83246290e-01
C     8.430344813700000e+00   6.803214945943415e-01   2.953879800000000e+00  1.19568401e+00  -4.12165994e+00   1.26656595e+00
C     9.688569455100000e+00   1.287641878523801e+00   3.111787800000000e+00  1.52260276e+00   2.47444420e+00  -4.13677090e-01
C     2.304050240700000e+00   2.777862302383969e+00   3.678377700000000e+00  1.40714265e+00  -2.11452594e+00  -3.11102760e-01
C     3.607516653999999e+00   3.479670850609554e+00   3.822133500000000e+00 -2.70999227e+00  -2.31921844e+00  -1.53815718e+00
C     4.786291091600000e+00   2.714224558270826e+00   3.540553500000000e+00 -2.21564720e-01   2.34421250e+00   6.57097730e-01
C     5.974068744499999e+00   3.462200974458626e+00   3.354613200000000e+00  5.14128590e-01  -1.95580260e-01  -6.06436270e-01
C     7.178477012900000e+00   2.751038196422516e+00   3.112236300000000e+00  1.23237938e+00  -1.67910340e-01   1.16097745e+00
C     8.416942411499999e+00   3.470658351998437e+00   3.263641500000000e+00  2.01560016e+00  -8.91670520e-01  -6.63927980e-01
C     9.716750123899999e+00   2.740415325824977e+00   3.265257600000000e+00 -1.85526208e+00  -2.49656840e-01   1.18482253e+00
C     1.090160413890000e+01   3.428998056888404e+00   3.698510700000000e+00  8.76275140e-01  -7.91905310e-01  -1.32995240e+00
C     3.526347014100000e+00   4.868128214805055e+00   3.723428100000000e+00  2.39832396e+00   7.36563490e-01  -8.75157400e-02
C     4.751626782599999e+00   5.589283257514756e+00   3.464893200000000e+00 -4.19984600e-02   7.21916680e-01  -2.94567960e-01
C     5.983615295100000e+00   4.888546525884622e+00   3.296353200000000e+00  4.99816110e-01   2.64865420e-01   1.02165228e+00
C     7.259077730800000e+00   5.614364892997661e+00   3.289575600000000e+00 -9.30776230e-01  -2.07461262e+00  -8.39926560e-01
C     8.487452405399999e+00   4.896726812534356e+00   3.380441100000000e+00 -7.46210100e-01  -9.65005480e-01   7.16030600e-01
C     9.702682566099998e+00   5.566500409043173e+00   3.664060800000000e+00  7.78708170e-01   7.15770180e-01  -1.71887885e+00
C     1.096388162440000e+01   4.822601199579363e+00   3.758719800000000e+00 -2.26914214e+00   2.55509798e+00   3.38349320e-01
C     1.217764279300000e+01   5.559907524441670e+00   3.749544600000000e+00 -1.20578610e-01   1.25192116e+00  -4.78861500e-01
C     4.746770239600000e+00   7.027480101585944e+00   3.273875700000000e+00  1.33085720e-01  -8.98220610e-01  -9.29970510e-01
C     6.002533775700000e+00   7.656579658695167e+00   3.083973900000000e+00  9.35131100e-02   2.68174773e+00   4.96396580e-01
C     7.243859215200000e+00   6.978765900698592e+00   3.125639700000000e+00  7.25489900e-02   2.20516592e+00   1.38224878e+00
C     8.441574022599999e+00   7.763897515457283e+00   3.347760300000000e+00  1.37833825e+00  -2.82141362e+00  -6.39650910e-01
C     9.700708150399999e+00   7.014567409938087e+00   3.457406100000000e+00 -7.21707040e-01  -7.78377750e-01   1.04838278e+00
C     1.092307133090000e+01   7.700788506873062e+00   3.446133300000000e+00  1.13030854e+00   7.18927560e-01   7.43967890e-01
C     1.221857781550000e+01   7.001561216125476e+00   3.511293000000000e+00 -2.34681206e+00   2.52935750e-01  -8.21539460e-01
C     1.337444476160000e+01   7.746597651005013e+00   3.146061000000000e+00  4.36642940e-01  -1.29087340e-01   1.24420447e+00
