32
Lattice="9.86 0 0 4.93 8.53901048131456 0 0 0 30 " PBC="1 1 1" Properties=species:S:1:pos:R:3:force:R:3 Energy="-257.36973165"
C     1.478705999450000e+01   8.537787437528950e+00  -1.833644999999997e-01 -1.22831891e+00   1.00694267e+00  -4.58853900e-02
C     1.208820618400000e+00   7.567197651885872e-01  -1.857945000000001e-01 -1.59777500e-02  -1.31037747e+00   6.35858700e-02
C     2.424085437000000e+00   2.475664074403520e-02  -1.606991999999998e-01  1.04372301e+00   1.44805608e+00  -5.94439800e-02
C     3.672787191800000e+00   7.564024555591504e-01  -1.798968000000016e-01 -7.08717450e-01  -7.70119030e-01   5.45345990e-01
C     4.898138001600000e+00   4.784066011524800e-03  -1.066049999999983e-01 -6.37507020e-01   1.85791314e+00  -5.61121750e-01
C     6.115304814200000e+00   7.259970886023855e-01  -1.463693999999975e-01  1.06916592e+00   3.91785760e-01  -5.76120000e-03
C     7.355197151999999e+00   4.454853001478880e-02  -1.856852999999994e-01  7.52369760e-01  -1.52526061e+00   7.30640190e-01
C     8.615982041000001e+00   7.113108444778335e-01  -1.495232999999985e-01 -4.04579980e-01   1.85110849e+00  -4.43489040e-01
C     1.108151798130000e+01   2.161665275500130e+00  -2.040717000000001e-01 -8.33055150e-01   1.16158625e+00  -4.63124980e-01
C     2.427156432600000e+00   2.892163703477048e+00  -2.286416999999972e-01  1.08144789e+00   2.19404900e-02   4.00489450e-01
C     3.653411946700000e+00   2.186436774122401e+00  -1.756053000000009e-01  7.63576050e-01  -1.21538664e+00  -4.04320560e-01
C     4.915593307500000e+00   2.843219034696840e+00  -1.724774999999994e-01 -4.97098210e-01   1.40889069e+00  -1.10310790e-01
C     6.154589913599999e+00   2.150930116914779e+00  -1.576953000000003e-01 -9.35599710e-01   2.99876400e-02   3.10807200e-02
C     7.362179757500000e+00   2.895753247312526e+00  -1.696359000000029e-01  8.80995480e-01  -6.87894830e-01   1.17969490e-01
C     8.608675583800000e+00   2.186600296173093e+00  -1.566948000000004e-01  6.19130450e-01  -9.11954580e-01  -6.38524350e-01
C     9.860818922299998e+00   2.905042324473089e+00  -2.583812999999999e-01 -1.53450102e+00  -3.34754120e-01   1.12431513e+00
C     1.232237240860000e+01   4.320311156894532e+00  -2.041860000000000e-01 -1.56434379e+00  -1.17549689e+00  -6.87135400e-02
C     3.660297529800000e+00   5.025355733921723e+00  -2.078583000000016e-01  1.27009702e+00  -1.02055043e+00   2.32357610e-01
C     4.894884102999999e+00   4.273282898236352e+00  -1.966335000000008e-01  6.49347870e-01   1.23227555e+00   6.95778530e-01
C     6.133431783300000e+00   5.022682938251378e+00  -6.796020000000169e-02 -8.07716900e-02  -3.46331880e-01  -1.06432648e+00
C     7.369036450799999e+00   4.316756537611918e+00  -1.558380000000028e-01 -2.48262880e-01   4.15232400e-02   4.64319260e-01
C     8.600995728400001e+00   5.036916700210595e+00  -1.523094000000000e-01 -5.16822870e-01   1.41568670e-01   1.09391830e-01
C     9.824007549000001e+00   4.349958772061302e+00  -1.772942999999998e-01  7.52881170e-01  -2.31319481e+00  -4.11690000e-01
C     1.107439353970000e+01   4.987197372399642e+00  -1.576676999999975e-01 -1.51568090e-01   2.09837057e+00  -1.92833870e-01
C     1.351757311320000e+01   6.432841002120333e+00  -1.643825999999997e-01  3.78658370e-01  -1.44338660e-01  -2.82907970e-01
C     4.882658590400000e+00   7.121987649435860e+00  -2.069405999999994e-01  1.88923289e+00   7.21392960e-01   8.65628020e-01
C     6.161493096799999e+00   6.459210491163831e+00  -9.106050000000110e-02 -2.20363828e+00  -1.49937731e+00  -4.47773250e-01
C     7.364804489499999e+00   7.160511480606484e+00  -1.075340999999987e-01  2.59908170e-01   6.49364100e-02  -2.48073100e-02
C     8.592739358799999e+00   6.458657504845146e+00  -1.149383999999998e-01 -4.07544690e-01  -7.06330470e-01  -1.81018400e-02
C     9.803179728700000e+00   7.151822012761826e+00  -1.244045999999983e-01  1.66237908e+00  -1.00231718e+00   1.08429270e-01
C     1.105512241620000e+01   6.417679305892254e+00  -1.434059999999988e-01  2.35739130e-01   4.63338190e-01   2.13990250e-01
C     1.230189535780000e+01   7.130804690097087e+00  -1.353998999999995e-01 -1.34034478e+00   1.02206813e+00  -4.60185320e-01
