32
Lattice="9.86 0 0 4.93 8.53901048131456 0 0 0 30 " PBC="1 1 1" Properties=species:S:1:pos:R:3:force:R:3 Energy="-254.12578179"
C     5.038714190800000e+00   8.135305704229705e+00  -7.447580999999985e-01 -3.68642313e+00  -1.82690968e+00  -3.14627430e-01
C     1.264047217900000e+00   2.775420059996584e-01  -7.612310999999998e-01  3.57990967e+00   2.60501791e+00   5.45311900e-01
C     7.483530918700000e+00   8.133392026591032e+00  -8.303289000000014e-01  7.96762950e-01   1.99116532e+00   1.31707794e+00
C     3.840868245400000e+00   3.406933680758608e-01  -5.863314000000024e-01 -3.40765981e+00   5.85930100e-02  -5.29234390e-01
C     9.963335067799999e+00   8.187545662544247e+00  -5.415050999999984e-01  1.39190630e+00  -3.54330983e+00   2.72988420e-01
C     6.345961569000000e+00   3.059448896087584e-01  -5.928302999999993e-01 -5.62287538e+00   8.25789210e-01   2.46497110e-01
C     1.241767093550000e+01   8.161298537520929e+00  -6.561801000000003e-01  2.21446321e+00  -2.93002061e+00   6.07408640e-01
C     8.706641585799998e+00   3.400995652870816e-01  -8.361710999999978e-01  8.78292130e-01  -2.81440121e+00   9.25839330e-01
C     1.238009077800000e+00   1.727566318876798e+00  -4.691882999999990e-01  2.06040550e+00   9.43689700e-02  -7.29111220e-01
C     2.509299205200000e+00   2.479756992906794e+00  -2.504574000000019e-01 -4.43800000e-02  -1.66784489e+00  -5.90946080e-01
C     3.739667226700000e+00   1.764793245135721e+00  -4.049334000000009e-01  1.77644437e+00  -3.36835790e-01   1.02060340e-01
C     5.035586943899999e+00   2.442484468331908e+00  -4.359950999999995e-01 -1.63769395e+00  -5.63797110e-01   3.05836470e-01
C     6.261535910599999e+00   1.706923773382027e+00  -5.884196999999993e-01 -8.61333750e-01   8.64044960e-01  -1.12986286e+00
C     7.439881142399999e+00   2.397759095410079e+00  -8.448035999999988e-01  3.41290640e-01   1.87356416e+00   1.10188282e+00
C     8.649004265600000e+00   1.709159457105901e+00  -8.653577999999982e-01  2.60078391e+00   2.13399422e+00   7.11997120e-01
C     9.908308182599999e+00   2.463511696248803e+00  -5.717774999999996e-01 -6.50926240e-01  -8.57795490e-01  -1.81543430e-01
C     2.565382934500000e+00   3.897538856112502e+00  -4.587210000000042e-02  1.18572571e+00  -1.62588883e+00   1.81936600e-02
C     3.819364817899999e+00   4.630383718779219e+00  -3.653489999999948e-02 -7.29048500e-02  -1.84472994e+00  -9.61470090e-01
C     5.006733477999999e+00   3.852506249593601e+00  -3.777551999999993e-01  1.05813732e+00   2.28217806e+00  -2.36256750e-01
C     6.223116469899999e+00   4.615285211228692e+00  -7.199247000000000e-01 -1.49456070e-01  -2.64807195e+00   1.53624176e+00
C     7.473046879300000e+00   3.828035409530332e+00  -7.387085999999989e-01 -1.85254998e+00   1.34292549e+00  -4.41421920e-01
C     8.630102054000000e+00   4.580567900149842e+00  -5.549820000000025e-01  3.84613748e+00  -1.92257223e+00   5.38792630e-01
C     9.972041842199999e+00   3.864315359527022e+00  -3.618972000000014e-01 -2.33658725e+00   3.79609050e-01  -4.14825510e-01
C     1.121711393380000e+01   4.529653196261793e+00  -9.854460000000032e-02 -2.46323393e+00   2.73939401e+00  -3.05806680e-01
C     3.826215989600000e+00   6.044757150561730e+00  -1.136651999999998e-01 -2.20697940e+00  -3.17038790e-01  -2.08420120e+00
C     4.998700585300000e+00   6.647649118266155e+00  -6.017667000000024e-01 -1.60216957e+00   4.49754329e+00   8.02892750e-01
C     6.182263433299999e+00   6.024168998563716e+00  -7.263417000000025e-01  3.93938670e+00  -1.27546566e+00  -7.21095910e-01
C     7.470277057400000e+00   6.764183299819545e+00  -8.374500000000005e-01 -4.86663800e-02  -2.77197421e+00   1.22419614e+00
C     8.691674894600000e+00   5.966305674897568e+00  -5.196074999999993e-01 -1.59227580e+00   2.21244465e+00  -1.51859296e+00
C     9.913814943300000e+00   6.645997161298696e+00  -4.370022000000020e-01  1.87034374e+00   2.91238767e+00   4.48180990e-01
C     1.121054539900000e+01   5.998799513037531e+00  -1.669766999999993e-01 -3.05805114e+00  -7.22908860e-01  -8.61063910e-01
C     1.236221445010000e+01   6.731397854471691e+00  -3.039638999999994e-01  3.75417699e+00   8.56545120e-01   3.14662360e-01
