32
Lattice="9.86 0 0 4.93 8.53901048131456 0 0 0 30 " PBC="1 1 1" Properties=species:S:1:pos:R:3:force:R:3 Energy="-254.18504173"
C     4.968408594700000e+00   8.225543832229723e+00  -4.498779000000006e-01  2.14382143e+00   1.06451270e-01   2.28850400e-02
C     1.334366864500000e+00   4.118666181573944e-01  -5.394620999999979e-01 -2.25186063e+00  -8.08575860e-01   6.60540530e-01
C     7.483544722700000e+00   8.268134879482078e+00  -4.817043000000005e-01 -1.57750298e+00  -3.01926867e+00   4.89076680e-01
C     3.756778467899999e+00   4.082836493599864e-01  -4.651631999999992e-01  8.20550430e-01  -1.14687000e-03  -2.32292932e+00
C     9.886844786699999e+00   8.239777338018627e+00  -7.154321999999986e-01  1.93414214e+00   9.33423160e-01   1.32031332e+00
C     6.217783787499999e+00   4.095969491718104e-01  -6.185970000000012e-01  1.78651370e-01  -1.56299580e-01   3.63327120e-01
C     1.243103118620000e+01   8.203206890885406e+00  -5.976117000000016e-01 -2.77352492e+00   2.74142000e-01  -1.00199453e+00
C     8.679995231600000e+00   3.705915178101136e-01  -3.620981999999984e-01  9.30628390e-01   1.06033137e+00  -1.26394161e+00
C     1.287620653800000e+00   1.789793674628960e+00  -7.343268000000016e-01 -1.90722930e-01   9.81422620e-01   4.61274460e-01
C     2.539082814200000e+00   2.432444043639210e+00  -1.024540500000001e+00 -2.05841423e+00   2.13783078e+00   1.02857071e+00
C     3.758470493199999e+00   1.783205828043640e+00  -7.915011000000014e-01  2.62926280e-01   1.93447063e+00   8.22191200e-02
C     4.940234433500000e+00   2.607303423935610e+00  -7.681667999999995e-01  2.34653859e+00  -2.87872079e+00   1.31860649e+00
C     6.175180551600000e+00   1.848487246284078e+00  -4.817777999999997e-01  9.43373770e-01  -2.96299000e-02  -1.39878915e+00
C     7.462053373700000e+00   2.534760089622561e+00  -4.783434000000000e-01 -2.94925710e-01  -6.21942630e-01   7.69608560e-01
C     8.737358640999998e+00   1.810342120228242e+00  -4.256550000000026e-01 -3.65521255e+00  -1.64038800e-02   6.02003180e-01
C     9.889398723899999e+00   2.541268864970836e+00  -5.359490999999998e-01  3.72701311e+00  -1.23618700e-01  -2.74850416e+00
C     2.502122308400000e+00   3.877561926484646e+00  -1.147462500000003e+00  1.21646901e+00   2.12257450e+00   4.18760720e-01
C     3.780077549300000e+00   4.600258260585989e+00  -1.094556900000001e+00 -1.49850443e+00   2.96783886e+00   4.35611870e-01
C     5.033175927400000e+00   4.018602128824483e+00  -8.004512999999989e-01 -2.31398381e+00  -2.53221401e+00  -7.84119610e-01
C     6.240781547299999e+00   4.655920141960287e+00  -5.738588999999976e-01  1.02694335e+00   6.80952950e-01   5.66990720e-01
C     7.477117235200000e+00   3.950367237639222e+00  -4.615806000000013e-01  9.82318560e-01  -3.76817390e-01  -1.22015567e+00
C     8.762417584500000e+00   4.638735383369287e+00  -6.671574000000007e-01 -3.95373858e+00   1.72373348e+00   5.69912800e-01
C     9.932377034200000e+00   3.940663506129750e+00  -9.157940999999994e-01  5.26144400e-02   1.62677100e-01   2.13333807e+00
C     1.112643368300000e+01   4.731606088300292e+00  -1.025726400000000e+00  1.07426103e+00  -3.71309096e+00  -4.62558880e-01
C     3.723867907799999e+00   6.096621392415154e+00  -1.032598200000002e+00  3.04916307e+00  -1.24050677e+00   1.69085601e+00
C     4.983210130900000e+00   6.839823989404006e+00  -5.820794999999990e-01 -7.56262070e-01  -3.33252582e+00  -1.13645406e+00
C     6.234613969400000e+00   6.048920430511358e+00  -4.432317000000019e-01 -2.71766321e+00   1.84237789e+00  -9.82015830e-01
C     7.411949389299999e+00   6.760327851197721e+00  -4.306325999999991e-01  1.92909482e+00   2.61881377e+00  -1.69343010e-01
C     8.618328425200000e+00   6.087931412229867e+00  -6.173766000000001e-01  3.80185430e+00  -3.13869050e-01  -6.46902330e-01
C     9.907440995600000e+00   6.860766339556730e+00  -8.083643999999985e-01 -2.71144698e+00  -2.14503870e+00   9.35498840e-01
C     1.109375902340000e+01   6.127055792007551e+00  -9.032931000000026e-01  2.36848360e+00   1.54934950e-01  -1.71641727e+00
C     1.240285229220000e+01   6.797735633698609e+00  -1.009974900000000e+00 -2.03508465e+00   1.60769424e+00   1.98473121e+00
