32
Lattice="9.86 0 0 4.93 8.53901048131456 0 0 0 30 " PBC="1 1 1" Properties=species:S:1:pos:R:3:force:R:3 Energy="-257.09965166"
C     4.959455517500000e+00   8.391761648530260e+00  -2.669426999999978e-01  1.15727099e+00   8.66030230e-01   4.87508700e-02
C     1.291424789700000e+00   5.860844625964328e-01  -3.208608000000019e-01 -1.07491257e+00  -8.52112120e-01   9.18095950e-01
C     7.454664782700000e+00   8.392730655439530e+00  -2.769431999999981e-01 -1.23918778e+00   6.81636420e-01   2.01832970e-01
C     3.734063690100000e+00   5.638546858336392e-01  -1.268853000000014e-01  1.77189450e-01  -4.93159330e-01  -8.48519590e-01
C     9.889978442600000e+00   8.390163914279347e+00  -1.528941000000010e-01  6.19697670e-01   9.34968590e-01   1.22113020e-01
C     6.195352928399999e+00   5.835733957845792e-01  -2.160930000000008e-01 -3.18472700e-01  -1.46169520e-01   7.20816500e-01
C     1.237070578350000e+01   8.383038878544731e+00  -1.326156000000012e-01 -5.26641880e-01   1.36540284e+00  -3.43054090e-01
C     8.677887459399999e+00   5.658880803992415e-01  -2.115513000000000e-01 -8.18793270e-01   8.13742160e-01  -3.42673910e-01
C     1.236715199300000e+00   1.991584240078233e+00  -1.458680999999977e-01  1.87099280e+00   2.23496390e-01  -8.11983260e-01
C     2.503707254100000e+00   2.705642596568111e+00  -1.135302000000031e-01 -1.74265950e+00  -2.25007450e-01   1.16554448e+00
C     3.702837661699999e+00   1.959456725487862e+00  -9.349380000000096e-02  9.74782710e-01   2.71430822e+00  -1.78411740e-01
C     4.927256504299999e+00   2.767220816743583e+00  -1.126532999999981e-01  3.50519860e-01  -2.36106672e+00  -3.67411420e-01
C     6.133793595999999e+00   2.028487879400382e+00  -2.336960999999995e-01  2.14457661e+00  -2.94612520e-01   9.43388300e-02
C     7.420395416000000e+00   2.735189536801322e+00  -2.793020999999989e-01 -5.74984160e-01  -8.69484030e-01   1.97547300e-01
C     8.673432711400000e+00   2.023610225833997e+00  -2.666438999999983e-01 -1.37720315e+00  -1.13128661e+00   2.73070570e-01
C     9.887327975999998e+00   2.714503442353102e+00  -1.636580999999993e-01  4.92404590e-01   8.10179370e-01   1.41221490e-01
C     2.492513442600000e+00   4.132445241225101e+00   8.871269999999999e-02  5.54785270e-01  -1.80102470e-01  -5.55839210e-01
C     3.716896345500000e+00   4.831624286563475e+00   5.085090000000000e-02  9.72909490e-01   1.39129329e+00  -7.34501750e-01
C     4.982610692200000e+00   4.174714197002149e+00  -1.085066999999995e-01 -2.14886350e+00  -9.43610750e-01   4.81129720e-01
C     6.187427657599999e+00   4.856548377303023e+00  -2.052161999999988e-01  1.34820996e+00   4.20774820e-01  -7.54960900e-02
C     7.430867968499999e+00   4.144082290097350e+00  -2.580537000000014e-01  2.94228710e-01   1.44129400e-01   1.44828170e-01
C     8.692625102800001e+00   4.843801342458478e+00  -1.880673000000002e-01 -8.64508260e-01  -1.71859210e-01  -2.02706700e-02
C     9.927199991900000e+00   4.147656719884278e+00  -6.741839999999755e-02 -2.36093480e-01   2.21988610e-01   6.36550000e-04
C     1.115429952200000e+01   4.899770286649638e+00   1.035357000000000e-01 -1.39872113e+00  -2.03959183e+00  -4.60138040e-01
C     3.707076229200000e+00   6.265900102412351e+00  -6.302369999999868e-02  7.15299270e-01  -3.67609870e-01   6.91481980e-01
C     4.954680664600000e+00   6.990458026188437e+00  -1.884261000000009e-01 -4.17910320e-01  -1.14313618e+00  -1.22048600e-02
C     6.191582513699999e+00   6.271348247268905e+00  -2.188085999999991e-01 -4.95174380e-01   4.98383230e-01  -3.48175380e-01
C     7.410840139300000e+00   6.984879405251748e+00  -2.912982000000000e-01  1.09033269e+00  -9.14910780e-01   2.68008730e-01
C     8.655062446799999e+00   6.252302582123998e+00  -2.171717999999991e-01  2.52748730e-01   1.05455989e+00   3.97148940e-01
C     9.885330586500000e+00   6.986556637690230e+00  -9.614009999999951e-02 -5.23150830e-01  -4.78484970e-01   8.95347200e-02
C     1.111349834900000e+01   6.309311407011412e+00   8.991900000000000e-02 -1.89268580e-01  -1.05501905e+00  -6.17002300e-01
C     1.234007879940000e+01   6.964950464862790e+00   3.536400000000000e-03  9.30596670e-01   1.52632995e+00  -2.40418480e-01
