2
Lattice="2.447 0 0 1.2235 2.11916416306052 0 0 0 30 " PBC="1 1 1" Properties=species:S:1:pos:R:3:force:R:3 Energy="-16.12280224"
C     0.000000000000000e+00   0.000000000000000e+00   3.000000000000000e+00 -0.00000000e+00  -0.00000000e+00  -0.00000000e+00
C     1.223500000000000e+00   7.063880543535070e-01   3.000000000000000e+00  0.00000000e+00   0.00000000e+00   0.00000000e+00
