32
Lattice="9.86 0 0 4.93 8.53901048131456 0 0 0 30 " PBC="1 1 1" Properties=species:S:1:pos:R:3:force:R:3 Energy="-254.58007114"
C     9.780543436499999e+00   1.354139337246696e-01   3.475373700000000e+00  1.77138770e+00  -3.51417931e+00  -5.40647490e-01
C     1.188390747700000e+00   7.360322191085864e-01   3.457530900000000e+00  3.97101290e-01  -9.03627290e-01  -2.35978830e-01
C     7.361236007599999e+00   8.531672737514326e+00   3.414028500000000e+00 -2.74307250e-01  -1.11895973e+00   2.94070740e-01
C     3.670884655500000e+00   6.388299303313928e-01   3.453304200000000e+00  1.43712463e+00   1.36804819e+00  -5.18604490e-01
C     9.863070897000000e+00   8.517219608375878e+00   3.460520100000000e+00  1.03475210e+00   1.37054301e+00  -4.69872590e-01
C     6.244545355800000e+00   7.314321687729056e-01   3.387606000000000e+00 -2.80692256e+00  -1.46906227e+00   4.72110130e-01
C     1.238737140200000e+01   8.498575191333428e+00   3.382220700000000e+00 -1.96311849e+00   1.25617215e+00   1.10381593e+00
C     8.570496332699999e+00   8.199710336874056e-01   3.521295900000000e+00  1.58076674e+00  -1.74140113e+00  -1.09827557e+00
C     1.104664291480000e+01   2.116297085869367e+00   3.437920800000000e+00  3.18961662e+00   1.61783396e+00   5.12168050e-01
C     2.497013349400000e+00   2.756648240917771e+00   3.521500200000000e+00 -2.39038544e+00   3.62768747e+00  -4.75909740e-01
C     3.714526543800000e+00   2.055610338388006e+00   3.389606700000000e+00 -6.11674610e-01   1.89032940e+00   5.45123130e-01
C     4.915138022000000e+00   2.854755835586055e+00   3.306270600000000e+00  1.84639276e+00  -3.52297578e+00   1.39978904e+00
C     6.196269957700000e+00   2.177202005068490e+00   3.427158300000000e+00 -6.81952370e-01  -2.19202700e+00  -1.25756544e+00
C     7.415586496800000e+00   2.875191566247000e+00   3.398826000000000e+00 -1.30472227e+00   3.22310080e-01   1.27210316e+00
C     8.644469109299999e+00   2.219443465231793e+00   3.449092500000000e+00 -7.31808730e-01  -5.12453480e-01  -2.10467410e-01
C     9.883945749500000e+00   2.892466069838145e+00   3.386757300000000e+00 -4.45723370e-01  -1.33002180e-01   1.33878392e+00
C     1.229618306540000e+01   4.340100996802772e+00   3.584027400000000e+00  9.23090620e-01  -3.87331069e+00  -1.46191040e+00
C     3.738507937200000e+00   4.890345610002653e+00   3.456305100000000e+00 -1.46991643e+00   2.74000741e+00  -1.14381820e-01
C     4.973260355600000e+00   4.214063323535666e+00   3.392373900000000e+00 -2.19556599e+00   1.12794210e+00  -4.58901200e-01
C     6.148886643099999e+00   4.959028201507380e+00   3.357222900000000e+00 -2.90111900e-01   2.24966730e+00   1.36002656e+00
C     7.330314455999999e+00   4.253998909308948e+00   3.542017800000000e+00  3.40347848e+00   1.96981350e+00  -2.54721077e+00
C     8.623960802299999e+00   4.954562640586759e+00   3.373052700000000e+00 -9.13088980e-01   8.47158220e-01   1.18635743e+00
C     9.878345170899999e+00   4.307620394129052e+00   3.490639800000000e+00 -1.33367487e+00  -4.53327430e-01  -1.38354211e+00
C     1.103697972040000e+01   5.083410587592938e+00   3.432024300000000e+00  2.73527325e+00  -3.18083482e+00   5.51914980e-01
C     3.728582318900000e+00   6.324035137391973e+00   3.366015900000000e+00  3.88292030e-01   2.19320103e+00   6.36720470e-01
C     4.908445990700000e+00   7.227149747612194e+00   3.337984500000000e+00 -3.97938090e-01  -2.85356858e+00   1.16595912e+00
C     6.131066960899999e+00   6.444299756453759e+00   3.426301200000000e+00  4.48704360e-01  -6.80876910e-01  -1.27587911e+00
C     7.406606501800000e+00   7.087159587391083e+00   3.369300000000000e+00 -1.00078339e+00   9.20450970e-01   2.78730470e-01
C     8.652362532300000e+00   6.381404650082062e+00   3.306735900000000e+00 -1.21949026e+00   6.65488200e-02   1.15689587e+00
C     9.862644945000000e+00   7.122724907600702e+00   3.438891900000000e+00 -6.63304260e-01   4.40963310e-01  -1.36334462e+00
C     1.106607653110000e+01   6.454112104176536e+00   3.316433700000000e+00  1.79134989e+00  -5.42549840e-01   1.57582437e+00
C     1.236250324950000e+01   7.028487107091850e+00   3.445673700000000e+00 -2.52841220e-01   2.68347951e+00  -1.43790179e+00
