32
Lattice="9.86 0 0 4.93 8.53901048131456 0 0 0 30 " PBC="1 1 1" Properties=species:S:1:pos:R:3:force:R:3 Energy="-249.3838417"
C     5.290130436099999e+00   8.043040244361523e+00  -2.389560000000017e-01  6.01431780e-01  -2.97860660e-01   7.10414780e-01
C     1.568039990500000e+00   2.745115111803064e-01  -1.809356999999991e-01  2.67981347e+00  -2.45934024e+00  -1.30154155e+00
C     7.709032766900000e+00   8.022851803444077e+00  -1.562850000000005e-01  3.15303297e+00   1.53549970e-01   2.95819931e+00
C     4.116956774300000e+00   2.262524395515384e-01  -3.939659999999989e-02 -2.67898429e+00   1.77869531e+00  -1.61385987e+00
C     1.028313351900000e+01   8.130354785953401e+00   7.273080000000000e-02  8.79176660e-01  -3.18411901e+00  -3.08195032e+00
C     6.621769038599999e+00   2.241157229591280e-01  -1.144533000000010e-01 -1.65495643e+00   2.92044308e+00   1.48067356e+00
C     1.274554157150000e+01   8.155678160822992e+00  -2.659143000000022e-01  8.43189000e-01  -6.28902428e+00  -1.51839729e+00
C     9.033202370099998e+00   1.716772326509240e-01  -1.036241999999987e-01  1.19592834e+00   5.62883629e+00  -1.61964659e+00
C     1.712633045100000e+00   1.633837784952973e+00  -5.275937999999982e-01 -1.38938063e+00   4.17722532e+00   1.33528120e-01
C     2.903982483000000e+00   2.489740803960010e+00  -6.933720000000001e-01  2.56939273e+00  -3.25113006e+00   6.02026000e-01
C     4.229947000599999e+00   1.650952950608561e+00  -4.092959999999977e-01 -4.09913964e+00  -4.94229950e-01   9.11254330e-01
C     5.475509035599999e+00   2.243983642060160e+00  -2.648331000000006e-01 -2.92196555e+00   5.89397728e+00  -2.59457073e+00
C     6.678663654300000e+00   1.658924714622375e+00  -9.563939999999960e-02  1.99828915e+00  -2.86772100e-02   1.06668320e-01
C     7.924382759100000e+00   2.476396636112599e+00  -2.017577999999993e-01 -1.40882530e+00  -7.50244253e+00   2.31721630e-01
C     9.107136446200000e+00   1.672823576590566e+00  -2.543405999999990e-01  5.23779550e-01   6.26430190e-01   4.19584570e-01
C     1.031349245900000e+01   2.416221802309515e+00  -5.213403000000021e-01  8.01117460e-01  -8.39263640e-01   7.37901860e-01
C     2.919016863100000e+00   3.940211877865463e+00  -9.727589999999999e-01 -3.59123420e-01  -2.79769423e+00   6.96820300e-01
C     4.172868298699999e+00   4.651994075721793e+00  -1.041390900000000e+00  5.76867990e-01  -5.53585420e+00   2.37100941e+00
C     5.390259130500000e+00   3.745266439387273e+00  -6.275118000000006e-01  1.10898097e+00   2.33364669e+00  -6.94512300e-02
C     6.630239961799999e+00   4.553255192008723e+00  -4.144623000000003e-01 -1.80441397e+00  -2.37287319e+00   1.95455246e+00
C     7.942037582099999e+00   3.779290468205252e+00  -3.224052000000022e-01 -4.82868916e+00   4.14257978e+00  -4.03513000e-02
C     9.085482407199999e+00   4.477381985168893e+00  -3.873891000000000e-01  1.56895412e+00   4.32654882e+00  -2.08083160e-01
C     1.032191950520000e+01   3.911111869440776e+00  -5.544258000000006e-01  7.38939300e-01  -4.66493644e+00  -6.47871980e-01
C     1.151688544320000e+01   4.564014345213523e+00  -8.256377999999991e-01  8.40120440e-01   3.80350164e+00  -6.30648870e-01
C     4.123429371300000e+00   6.017105016754031e+00  -7.858596000000020e-01  4.49833390e-01  -2.18255315e+00  -1.12765933e+00
C     5.243511222200000e+00   6.607569479386076e+00  -3.757643999999978e-01  5.54498413e+00   2.82848759e+00   3.08234001e+00
C     6.433327725900000e+00   5.905532768800465e+00   8.794230000000000e-02  3.10671299e+00  -1.20127796e+00  -3.86307078e+00
C     7.801896070999999e+00   6.560981150547824e+00   1.817373000000000e-01 -2.00341650e+00   2.48856780e+00  -3.20375408e+00
C     9.021092268799999e+00   5.913287641948087e+00  -3.003366000000014e-01  1.09316088e+00   1.49383653e+00   1.69940656e+00
C     1.029348775150000e+01   6.725324739438105e+00  -3.893237999999997e-01 -7.66801090e-01  -8.11004640e-01   8.93485870e-01
C     1.153755022840000e+01   6.087059066919230e+00  -8.157702000000029e-01 -8.63514630e-01  -2.32884335e+00   1.16668453e+00
C     1.283084373460000e+01   6.707484611792765e+00  -7.511250000000018e-01 -5.49449469e+00   3.64479846e+00   1.36458544e+00
