32
Lattice="9.86 0 0 4.93 8.53901048131456 0 0 0 30 " PBC="1 1 1" Properties=species:S:1:pos:R:3:force:R:3 Energy="-248.5575887"
C     4.915590497400000e+00   8.410169791152731e+00  -2.218923000000004e-01  1.31799063e+00  -5.48094730e-01  -1.54252543e+00
C     1.253538824300000e+00   6.538259697561591e-01  -3.294882000000001e-01 -6.30846650e-01  -4.12950254e+00   2.06678200e+00
C     7.306748119299999e+00   8.319894262286807e+00  -1.185948000000003e-01  4.78332114e+00   4.70841783e+00  -2.35948036e+00
C     3.772411941600000e+00   5.546623556618144e-01  -3.765929999999997e-01 -2.06189221e+00  -1.36473526e+00  -1.97869000e-02
C     9.961433418900000e+00   8.318474224843984e+00  -5.510798999999977e-01 -3.32009764e+00   6.62043853e+00   8.42348520e-01
C     6.215529347800000e+00   6.431808123412671e-01  -5.717423999999980e-01 -5.98605360e-01  -4.33196385e+00   3.00184160e-01
C     1.231233014650000e+01   8.407952124740969e+00  -6.228015000000013e-01  2.27388133e+00  -2.39531594e+00  -1.66099565e+00
C     8.614164349999999e+00   4.819782984560544e-01  -4.046376000000009e-01  1.35416440e-01   3.53773834e+00   1.00091772e+00
C     1.330473643500000e+00   2.035122434373028e+00  -5.592237000000004e-01 -4.13250340e-01   1.02874237e+00  -2.24315453e+00
C     2.529992830900000e+00   2.741467844256742e+00  -1.041598799999999e+00  4.53272760e-01  -4.68559995e+00   2.66816655e+00
C     3.754723101600000e+00   1.943648711556552e+00  -7.110491999999979e-01  1.07613329e+00   2.04797732e+00  -5.96411820e-01
C     5.023501048900000e+00   2.730985184211284e+00  -7.189493999999996e-01 -2.54832882e+00  -2.24858730e-01   5.75603440e-01
C     6.207173145700000e+00   2.012758424365489e+00  -3.403917000000014e-01 -2.57007650e-01   2.03494740e+00  -1.00878651e+00
C     7.449901022300000e+00   2.685282350759809e+00  -1.685121000000009e-01  1.05111855e+00   2.28892188e+00  -7.24833690e-01
C     8.661722778200000e+00   1.960728781879067e+00  -2.563445999999985e-01  1.62144272e+00   5.41427110e-01  -1.41855502e+00
C     9.968370323300000e+00   2.702606636782052e+00  -6.274914000000003e-01 -3.10185548e+00   1.84188947e+00   1.16795171e+00
C     2.510982110000000e+00   4.051798556746741e+00  -1.384736700000001e+00 -2.23666491e+00   3.34449031e+00  -1.23203140e-01
C     3.711009531100000e+00   4.813025638617196e+00  -1.186562700000000e+00  1.20665560e-01   1.27657631e+00  -4.22472560e-01
C     4.873223950800000e+00   4.220350255391670e+00  -8.792355000000001e-01  5.32873998e+00  -5.69918775e+00   2.00874758e+00
C     6.106196146200000e+00   4.857001627979301e+00  -4.976507999999988e-01  3.31818493e+00  -5.70036000e-02   9.69549990e-01
C     7.508600313800001e+00   4.193053429810045e+00  -2.024411999999991e-01 -5.14359998e+00  -3.90164560e+00  -1.52527195e+00
C     8.661185457500000e+00   4.860623620054603e+00  -4.893363000000015e-01  1.98656502e+00   1.32250345e+00  -1.26381269e+00
C     9.912470088599999e+00   4.268130630092930e+00  -9.018903000000016e-01 -1.74547189e+00  -6.12815625e+00   1.37003990e+00
C     1.103024415720000e+01   4.806659550134041e+00  -1.441697399999999e+00  3.43773875e+00   3.57800272e+00   1.66360229e+00
C     3.875765743400000e+00   6.207074859215631e+00  -1.007808900000001e+00 -3.21615951e+00   2.24363474e+00   7.08803280e-01
C     4.945459346100000e+00   6.974144502836711e+00  -3.392766000000016e-01  1.37919820e+00  -1.40438242e+00  -2.05676878e+00
C     6.226711031499999e+00   6.237551356129694e+00  -3.025970999999998e-01 -3.02310006e+00   6.14981970e-01  -5.88620600e-02
C     7.439340765099999e+00   6.946091974827605e+00  -2.097102000000000e-01 -8.91249980e-01  -5.77968820e-01  -1.56790530e-01
C     8.641268701199998e+00   6.264071558708163e+00  -5.521580999999998e-01 -6.45186540e-01   8.09907340e-01   1.02695676e+00
C     9.798486565899999e+00   7.006241276989354e+00  -7.377471000000000e-01  5.49871985e+00  -2.42566913e+00  -2.01190677e+00
C     1.114430232010000e+01   6.413584594196780e+00  -1.224617700000003e+00 -2.08562915e+00  -6.15328978e+00  -4.71989700e-01
C     1.245701968120000e+01   6.848379309394022e+00  -1.194242700000000e+00 -1.86344297e+00   6.18677726e+00   3.29595418e+00
