32
Lattice="9.86 0 0 4.93 8.53901048131456 0 0 0 30 " PBC="1 1 1" Properties=species:S:1:pos:R:3:force:R:3 Energy="-256.55891918"
C     4.903941548300001e+00   8.422364608189532e+00  -1.554125999999982e-01  1.94452890e-01   2.31333701e+00   2.55707220e-01
C     1.197669796500000e+00   6.501034735275080e-01  -8.010810000000035e-02  4.27433270e-01  -1.70785696e+00  -1.38574078e+00
C     7.375152362300000e+00   8.511484894327616e+00  -2.647437000000004e-01 -7.58411440e-01  -2.88223945e+00   7.97156340e-01
C     3.674638505400000e+00   6.132953003425248e-01  -1.829856000000021e-01  1.54971137e+00   1.55914635e+00   5.18903600e-01
C     9.896863976399999e+00   8.455486319770090e+00  -1.561781999999994e-01 -3.35069358e+00  -6.40133620e-01  -5.58561650e-01
C     6.157304223699999e+00   6.382632815959400e-01  -1.741235999999979e-01  9.89971380e-01  -2.04978080e+00   2.14623280e-01
C     1.232671455540000e+01   8.441549800765682e+00  -1.774131000000025e-01 -2.76345370e-01  -4.09374900e-02   6.94794400e-01
C     8.616993923499999e+00   6.039046943473545e-01  -1.329449999999994e-01 -2.43611640e-01   1.24412622e+00  -2.40365250e-01
C     1.193504587400000e+00   2.039048244441208e+00  -2.247899999999703e-02 -6.69321330e-01   8.60036360e-01   9.12111340e-01
C     2.410006934600000e+00   2.739612915010171e+00   1.487991000000000e-01  1.78653177e+00  -6.05797100e-02  -9.52639340e-01
C     3.670512243300000e+00   2.054786750827211e+00   3.722700000000000e-03 -1.27019450e-01  -1.25658909e+00  -1.29501530e-01
C     4.930933002500000e+00   2.717202196615306e+00  -3.439919999999930e-02 -1.19534601e+00   1.85097669e+00   1.85267520e-01
C     6.143343006000000e+00   2.021272927885411e+00  -1.279571999999973e-01 -6.39848250e-01   5.64833800e-01  -4.52243330e-01
C     7.330874306799999e+00   2.740844923442226e+00  -2.070974999999997e-01  2.45765049e+00  -9.67763130e-01   6.03702750e-01
C     8.602062531100000e+00   2.064066776636665e+00  -1.202307000000005e-01 -1.06667776e+00  -2.05080296e+00  -4.16304240e-01
C     9.806006787899999e+00   2.742330284315222e+00  -3.668970000000016e-02  9.44754810e-01   1.39835072e+00   1.65356590e-01
C     2.481530437900000e+00   4.150100926244073e+00   2.060889000000000e-01 -1.84842787e+00   1.21946569e+00  -2.72298600e-02
C     3.687943244300000e+00   4.885079004508904e+00   1.172781000000000e-01  8.99379020e-01  -4.57317080e-01   1.96026680e-01
C     4.955503530900000e+00   4.178800028126724e+00  -2.212680000000233e-02 -2.17303582e+00  -1.46191697e+00   1.62045300e-01
C     6.148502596100000e+00   4.841709028720564e+00  -1.925652000000007e-01  8.78782980e-01   2.57863433e+00  -1.17013900e-02
C     7.383819992499999e+00   4.112554043262465e+00  -2.267298000000011e-01 -6.06826280e-01   2.52607348e+00   1.10353790e-01
C     8.616409965000001e+00   4.857508332861184e+00  -1.543644000000022e-01 -1.75173597e+00   6.17194690e-01  -1.38574340e-01
C     9.810515124999998e+00   4.188997741392464e+00   1.176330000000000e-02  2.43257536e+00  -1.05530844e+00   2.84880630e-01
C     1.108298051510000e+01   4.889905936353037e+00   1.765482000000000e-01 -7.06879110e-01   2.04726280e-01  -8.32905320e-01
C     3.649766408900000e+00   6.312391684261863e+00   9.902610000000001e-02  1.99340709e+00  -4.62497810e-01  -1.56542759e+00
C     4.867106461700000e+00   7.046639506350444e+00  -1.867574999999988e-01  9.48552160e-01  -2.49444142e+00   1.13620858e+00
C     6.112004918700000e+00   6.330654578316068e+00  -2.408310000000000e-01  1.55623990e-01  -1.46381396e+00  -1.17660200e-01
C     7.348289926200000e+00   7.018978150411427e+00  -3.043400999999974e-01 -3.50508930e-01   1.29236986e+00   2.57026810e-01
C     8.553579974400000e+00   6.280887432046427e+00  -2.055593999999985e-01  1.37307896e+00   1.08128236e+00  -8.67236600e-02
C     9.800566089200000e+00   7.020745725580787e+00  -1.423224000000012e-01  1.04966432e+00  -1.44750200e-01   3.68172760e-01
C     1.104522982890000e+01   6.329895972625025e+00   3.850110000000000e-02  9.21840200e-01  -1.05754629e+00  -8.54294000e-03
C     1.233616783040000e+01   7.017125014357057e+00  -3.867599999999527e-03 -3.23872126e+00   9.43721530e-01   6.17838000e-02
