32
Lattice="9.86 0 0 4.93 8.53901048131456 0 0 0 30 " PBC="1 1 1" Properties=species:S:1:pos:R:3:force:R:3 Energy="-256.48232201"
C     4.968553191600000e+00   8.453675537207701e+00  -1.926309000000010e-01 -1.09055855e+00  -1.30082540e-01   1.96587600e-01
C     1.279608516400000e+00   6.275639868546048e-01  -1.708044000000015e-01 -1.77197270e+00  -1.06774191e+00  -5.87428800e-02
C     7.377833641400000e+00   8.411298306777766e+00  -1.476542999999992e-01  2.91837891e+00   3.16773910e+00  -1.73241650e-01
C     3.719722320100000e+00   6.400800414656648e-01  -2.108361000000016e-01 -1.57163196e+00  -1.95653358e+00  -1.73522020e-01
C     9.857127929899999e+00   8.434123508741331e+00  -2.843036999999988e-01  6.97673000e-03   1.75397532e+00  -1.33849830e-01
C     6.134266974599999e+00   6.275759414692769e-01  -3.018678000000001e-01  1.39742575e+00   1.03654965e+00   9.72188550e-01
C     1.228673856580000e+01   8.432999006451219e+00  -2.218713000000001e-01  1.96618555e+00   7.04456230e-01  -8.16503570e-01
C     8.641159797500000e+00   6.000588948073721e-01  -1.402086000000011e-01 -7.14319360e-01   1.60988629e+00  -3.84191990e-01
C     1.281826671300000e+00   2.024463699931473e+00  -2.642309999999988e-01  2.35113000e-03   1.62605777e+00   5.14386890e-01
C     2.481810116800000e+00   2.773828046882693e+00  -3.041651999999999e-01  6.04006760e-01   3.10051660e-01  -5.33840940e-01
C     3.688163368800000e+00   2.035944314131728e+00  -2.701101000000001e-01  1.44156582e+00   1.39667519e+00  -1.11958060e-01
C     4.932794077500000e+00   2.787390984178601e+00  -2.895539999999990e-01 -5.69046800e-01   2.86190190e-01   5.76808820e-01
C     6.170803352500000e+00   2.103336319592508e+00  -2.189388000000001e-01 -1.04525420e-01  -1.47905264e+00  -4.22741800e-01
C     7.413508748300000e+00   2.815413454870817e+00  -1.793912999999989e-01  2.17661470e-01  -7.87162190e-01   3.24391140e-01
C     8.647984149999999e+00   2.080696926496989e+00  -1.239980999999979e-01  1.20401362e+00  -7.50213930e-01  -4.98184120e-01
C     9.959899646599998e+00   2.778393343445720e+00  -2.144577000000005e-01 -3.50447171e+00  -7.46593600e-02  -1.31085360e-01
C     2.486792917100000e+00   4.218207903052344e+00  -4.533867000000029e-01 -1.26840723e+00  -1.11204163e+00   5.07556110e-01
C     3.681428495800000e+00   4.958537976915723e+00  -4.386975000000000e-01  1.56189331e+00  -1.44960515e+00   6.55218110e-01
C     4.895434833300000e+00   4.227564438395699e+00  -2.452989000000017e-01  9.46274920e-01  -4.56788510e-01  -8.63538280e-01
C     6.151619046299999e+00   4.935235444266327e+00  -1.803162000000000e-01  4.94442870e-01  -1.25588395e+00   1.16916210e-01
C     7.413681939199999e+00   4.241823817386355e+00  -1.752819000000017e-01 -8.93962080e-01  -1.21981127e+00  -1.55957070e-01
C     8.645740211200000e+00   4.892614425087189e+00  -2.651481000000011e-01  8.27498690e-01   1.96430962e+00  -5.62606000e-02
C     9.898197344200000e+00   4.234129998163666e+00  -3.146865000000005e-01 -8.77643270e-01  -2.95346196e+00   1.79918670e-01
C     1.108837122360000e+01   4.900535040428228e+00  -4.329417000000007e-01  2.29779989e+00   1.99626922e+00  -1.38184500e-01
C     3.756535665400000e+00   6.364230906814581e+00  -4.191902999999968e-01 -2.64612484e+00  -1.66728319e+00   3.57789400e-02
C     4.933195921800000e+00   7.011145999218962e+00  -2.645000999999993e-01  3.22808285e+00   2.38805972e+00   6.68826110e-01
C     6.190440774999999e+00   6.318913182735753e+00  -1.332519000000012e-01 -3.14400800e-01   1.15937979e+00  -6.08569820e-01
C     7.439668905900000e+00   7.053349119225208e+00  -1.205798999999992e-01 -6.58727100e-02  -2.91611751e+00  -7.65434410e-01
C     8.710454299899999e+00   6.335686958752351e+00  -3.061019999999992e-01 -2.93421467e+00  -8.46116500e-01   1.05528931e+00
C     9.898116541499999e+00   7.034820149604448e+00  -3.488988000000006e-01  1.23469680e+00   7.03877600e-02   2.07644600e-02
C     1.116105539680000e+01   6.352065549363934e+00  -4.145585999999994e-01 -2.55175893e+00  -2.36167371e+00  -3.43193330e-01
C     1.235830614330000e+01   7.002883054947780e+00  -4.061823000000011e-01  5.29655970e-01   3.01424203e+00   5.44369320e-01
