32
Lattice="9.904 0 0 4.952 8.57711559908108 0 0 0 30 " PBC="1 1 1" Properties=species:S:1:pos:R:3:force:R:3 Energy="-258.04688646"
C    -7.785156195492968e-04  -2.807801256678347e-04   3.000821774987826e+00  3.66314100e-02   3.60964600e-02  -1.79141000e-02
C     1.237253974883823e+00   7.157910307803237e-01   3.000713857294781e+00  3.28151000e-02  -3.27601200e-02  -4.72108000e-03
C     2.476551168208124e+00   1.227339633660415e-03   3.000855141425047e+00 -8.00067700e-02  -5.75340000e-02  -8.63340000e-03
C     3.713340707037390e+00   7.143199313899641e-01   3.000536440273973e+00  3.35490200e-02   4.70078300e-02  -4.19370000e-03
C     4.951016613023260e+00   2.478245287703419e-04   2.999099389411265e+00  7.75514600e-02  -1.06103200e-02   2.63897600e-02
C     6.190988552614475e+00   7.141307473405489e-01   3.001123105322311e+00 -7.63689100e-02   1.70938500e-02  -3.02678100e-02
C     7.428713807384204e+00  -1.631825383050174e-04   2.999392452866843e+00 -2.30465000e-02   6.90692000e-03   1.26091600e-02
C     8.665682152524145e+00   7.149314852128055e-01   2.999474001803141e+00  1.69684400e-02   7.47179000e-03   1.38552300e-02
C     1.238889951721303e+00   2.145335219043256e+00   2.998854856113785e+00 -8.31857400e-02  -5.75832000e-02   2.29626400e-02
C     2.475564427809368e+00   2.858637029193253e+00   3.000314721005243e+00  4.05292000e-02   4.22155300e-02  -2.95188000e-03
C     3.712948895838120e+00   2.143601769107930e+00   3.001041661714715e+00  4.91773700e-02   4.53930000e-02  -1.28165100e-02
C     4.951390103435146e+00   2.859971815089549e+00   2.999482095232215e+00  4.46108000e-03  -8.82232800e-02  -2.64500000e-04
C     6.189346894258994e+00   2.143498750616988e+00   2.999101748952477e+00  3.13033800e-02   4.67766900e-02   2.14812700e-02
C     7.427958142013114e+00   2.859609727623219e+00   3.000664225396390e+00 -3.54108000e-02  -3.73028900e-02  -1.43382300e-02
C     8.665529053006718e+00   2.144761713327893e+00   3.001114074682781e+00  1.93744400e-02  -1.33399500e-02  -1.26747600e-02
C     9.904073699002897e+00   2.858838902768385e+00   3.000160550493291e+00  1.34471800e-02   7.75655000e-03  -5.70026000e-03
C     2.476672784975782e+00   4.288397477655489e+00   3.000523892053322e+00 -4.93236200e-02   1.60359500e-02  -1.39731900e-02
C     3.714492539121924e+00   5.002473903448648e+00   2.998796110331281e+00 -3.78952000e-03   3.27917500e-02   2.21938500e-02
C     4.952884478200832e+00   4.288682856325042e+00   2.998958296428834e+00 -3.61166400e-02  -1.55098000e-02   9.89239000e-03
C     6.190095183806873e+00   5.002706247197969e+00   3.001177578042241e+00 -5.50128000e-03   7.69763800e-02  -2.20708100e-02
C     7.427422156870179e+00   4.288839152936744e+00   2.999313059607335e+00  2.29170900e-02  -1.03745400e-02   2.88509900e-02
C     8.665127070006143e+00   5.003192185647443e+00   3.001167857802174e+00  8.00691600e-02  -1.34396200e-02  -2.73893600e-02
C     9.905150333088589e+00   4.287623703914493e+00   2.999665653953996e+00 -1.08019990e-01   5.80577600e-02   1.48970600e-02
C     1.114104684956880e+01   5.004288593868916e+00   3.000168597628104e+00  9.95222400e-02  -8.47151300e-02   3.67637000e-03
C     3.715090817892866e+00   6.432183798469795e+00   3.000890611389294e+00 -4.84701700e-02   1.80771100e-02  -2.55887300e-02
C     4.952389913331367e+00   7.147242481856452e+00   2.999238087423742e+00 -2.35297800e-02   2.38110600e-02   2.88701700e-02
C     6.189439419377294e+00   6.433666602170213e+00   3.001194157544629e+00  6.90973700e-02  -5.19369700e-02  -1.81338600e-02
C     7.428285753922178e+00   7.148198305400627e+00   2.999505493127965e+00 -4.01199000e-03  -5.10936000e-03   1.25129800e-02
C     8.666819926512693e+00   6.432656798270126e+00   2.999109523831555e+00 -3.80876000e-02   1.85602700e-02   2.11078400e-02
C     9.904562181542969e+00   7.148324939299451e+00   3.000757677854989e+00 -4.42368000e-03  -4.45904900e-02  -1.87383600e-02
C     1.114275135696260e+01   6.431986185676226e+00   3.000912890196632e+00 -2.17294800e-02   1.01289420e-01  -5.75728000e-03
C     1.238073179655138e+01   7.148256145346657e+00   3.000099799638591e+00  1.36085100e-02  -7.92886600e-02   6.82813000e-03
