32
Lattice="9.86 0 0 4.93 8.53901048131456 0 0 0 30 " PBC="1 1 1" Properties=species:S:1:pos:R:3:force:R:3 Energy="-257.49135822"
C     9.860438720699999e+00   4.742833691620024e-01   4.118250000000000e-02 -3.43003900e-01  -3.66456200e-02   6.30339390e-01
C     1.229178659000000e+00   1.206277490214597e+00   1.254426000000000e-01  1.63365180e-01  -1.20735620e+00  -7.26219300e-01
C     2.470848902700000e+00   4.768022064733928e-01   2.474850000000000e-02 -9.03437170e-01   1.60908520e-01   4.35006770e-01
C     3.686629399300000e+00   1.194457364957657e+00   7.817160000000001e-02  3.21090390e-01  -9.73772470e-01  -4.57606950e-01
C     4.907029946800000e+00   4.495519184988832e-01   2.013600000000000e-03  8.90062290e-01   2.22448364e+00   2.07633990e-01
C     6.149528381199999e+00   1.211412338776640e+00   4.383000000000000e-04 -1.31986190e-01  -8.46161400e-01   4.08170490e-01
C     7.392336321000000e+00   5.086878108968657e-01   5.108910000000000e-02 -1.15051435e+00  -2.18172545e+00  -8.73755100e-02
C     8.601204711099999e+00   1.187369644698838e+00   6.490110000000000e-02  1.55645794e+00   3.39709180e-01  -3.14229420e-01
C     1.109546544430000e+01   2.619548877304559e+00   1.709376000000000e-01  5.03064120e-01  -3.52603710e-01  -2.46153010e-01
C     2.484078459100000e+00   3.314860860966855e+00   1.807440000000000e-01 -1.65822472e+00   1.04818272e+00   5.54380200e-02
C     3.677548388600000e+00   2.605766658219525e+00   1.208121000000000e-01  1.39536697e+00   3.44366810e-01   8.79440200e-02
C     4.909657981900000e+00   3.339014135230374e+00   6.767519999999999e-02  5.38086730e-01  -1.06773033e+00   2.80561400e-02
C     6.162531354800000e+00   2.635047437496074e+00   3.642810000000000e-02 -4.46916880e-01  -3.48399800e-02  -4.34827010e-01
C     7.401574253600000e+00   3.349807188306779e+00  -9.925800000001317e-03 -4.22743530e-01   1.73126730e-01   1.69554900e-02
C     8.624876549800000e+00   2.607375237013747e+00   1.813050000000000e-02  2.60577990e-01   7.74454160e-01   3.40210270e-01
C     9.878773094900000e+00   3.310944016859680e+00   8.729160000000001e-02 -1.09869468e+00   6.05272650e-01   8.65252900e-02
C     1.230793327670000e+01   4.755955332854326e+00   1.884963000000000e-01  1.07800380e-01  -7.51781860e-01  -2.70531130e-01
C     3.681773743700000e+00   5.446455071770512e+00   1.586247000000000e-01 -2.86923820e-01   1.97192030e-01  -3.36893900e-01
C     4.910116521199999e+00   4.737662979213964e+00   5.283479999999999e-02 -7.37753380e-01   5.23518010e-01   2.36552500e-01
C     6.104908282300000e+00   5.466837348225853e+00  -3.622680000000145e-02  2.38370510e+00  -1.30243210e-01   1.96219490e-01
C     7.368015891500000e+00   4.797967264415925e+00  -5.133689999999902e-02  7.31543120e-01  -1.77953483e+00   3.75762110e-01
C     8.640978619999999e+00   5.460575948011184e+00   1.150410000000000e-02 -1.03339391e+00   3.00375390e-01  -3.04748810e-01
C     9.869213479799999e+00   4.745260478398440e+00   8.017680000000001e-02 -1.33805507e+00  -9.11436880e-01  -1.77070440e-01
C     1.105711699560000e+01   5.457521543962487e+00   1.044582000000000e-01  1.78763646e+00   1.55174380e-01   2.18024230e-01
C     1.353811923330000e+01   6.862453391857263e+00   1.212060000000000e-01  1.29361170e+00   4.83120540e-01  -1.81581360e-01
C     4.939019681500000e+00   7.580303581340890e+00   4.991070000000000e-02 -2.38622660e-01   4.25229790e-01   1.12592200e-02
C     6.192241999800000e+00   6.872742130974721e+00  -6.944100000001896e-03 -2.19690664e+00   6.41124690e-01  -1.77265440e-01
C     7.402719394000000e+00   7.586955214334496e+00  -5.665079999999989e-02  4.62401070e-01   3.20322830e-01   5.10676400e-01
C     8.641172861999999e+00   6.882817821780701e+00  -1.450379999999996e-02 -5.57480290e-01  -3.31701270e-01  -1.94995760e-01
C     9.852179491699999e+00   7.591083228170842e+00   5.310000000000000e-05  3.68135610e-01  -1.86042460e-01  -4.77820500e-02
C     1.107535888300000e+01   6.872566227358832e+00   3.906689999999999e-02  5.66174880e-01   2.86328370e-01   3.70171080e-01
C     1.232364267240000e+01   7.564794261996171e+00   9.282299999999999e-02 -7.84422730e-01   1.78868523e+00  -2.57664810e-01
