26
Lattice="8.88768389401873 1.33226762955019e-15 0 4.44384194700937 7.69696003302603 0 0 0 30 " PBC="1 1 1" Properties=species:S:1:pos:R:3:force:R:3 Energy="-207.77544363"
C     1.643790468579623e-01   2.460391770485728e-01   3.689909100000000e+00 -4.36162060e-01  -3.08815543e+00   3.59530120e-01
C     6.928984123433551e+00   7.348681055298532e+00   3.566938800000000e+00  2.04414537e+00  -2.06722438e+00   4.45385500e-02
C     3.861341765309458e+00   7.860297218796629e-02   3.556371300000000e+00  7.09913710e-01  -5.62122508e+00  -2.83788020e-01
C     9.397459267467983e+00   6.633067357101326e+00   3.507556500000000e+00 -1.52491387e+00   3.40410292e+00   1.85724656e+00
C     1.075753091264203e+01   7.048076435266084e+00   3.755255700000000e+00 -1.94670718e+00   3.97935020e-01  -1.35444357e+00
C     1.177191880276183e+01   6.083368251736395e+00   3.775829100000000e+00  1.79979621e+00   9.59691580e-01  -1.52428130e-01
C     4.265628555994632e+00   6.532936372557452e+00   3.815664900000000e+00 -5.13632390e-01   1.02080760e-01  -1.10378707e+00
C     5.258289480748803e+00   5.548395816966464e+00   3.672321300000000e+00 -1.27968080e-01  -2.10601994e+00   1.10667197e+00
C     6.613666429067152e+00   5.912759282981822e+00   3.622699500000000e+00  1.31262130e+00   6.18560950e-01  -4.10752490e-01
C     7.651660807451375e+00   4.888055451167094e+00   3.606398700000000e+00 -7.75314920e-01   7.30709590e-01   3.71538480e-01
C     9.032695610415686e+00   5.289241481844373e+00   3.610429500000000e+00  9.02641800e-02  -1.05613025e+00  -9.73609490e-01
C     1.009510170128402e+01   4.295774992615396e+00   3.559467600000000e+00 -2.56858300e-01   1.07884305e+00   3.32237470e-01
C     1.148348639665132e+01   4.724742661733758e+00   3.605612700000000e+00 -2.40591542e+00  -8.01565670e-01   5.74066830e-01
C     3.559491048369899e+00   3.706290762672997e+00   3.654512400000000e+00  6.02087420e-01   2.04487415e+00   3.54194850e-01
C     4.903884952468529e+00   4.107886579502274e+00   3.757161600000000e+00  1.00661849e+00   8.85040020e-01  -1.70236807e+00
C     5.899220181286424e+00   3.094441783849828e+00   3.595196400000000e+00  8.83983500e-01   1.11264256e+00   2.26727065e+00
C     7.278052971693050e+00   3.500095284067720e+00   3.675992100000000e+00  1.18418945e+00   7.73944700e-02  -1.04677616e+00
C     8.338998505039108e+00   2.521686126836632e+00   3.636268200000000e+00  3.43050520e-01   4.92898300e-02  -3.92065900e-02
C     9.767724619756741e+00   2.922232694074619e+00   3.561783300000000e+00 -2.66236342e+00   9.12266530e-01   4.42825770e-01
C     1.904421220641921e+00   1.979332769215532e+00   3.596669100000000e+00 -2.57618983e+00  -4.26995390e-01  -4.42224530e-01
C     3.195150089574606e+00   2.379699458497618e+00   3.629078700000000e+00  2.16975183e+00  -8.70848580e-01  -7.28771600e-02
C     4.205507548346169e+00   1.385146235482005e+00   3.640309500000000e+00  2.29127370e-01   7.83255930e-01   4.15940520e-01
C     5.553472434916078e+00   1.726887258394789e+00   3.761681100000000e+00  1.65018549e+00   4.64700970e-01  -1.65096126e+00
C     6.592317764625371e+00   7.499368290285857e-01   3.711523800000000e+00  9.86887170e-01  -5.59561190e-01   7.89286490e-01
C     7.991434693753013e+00   1.110895852653075e+00   3.688382400000000e+00 -1.22080391e+00   3.58827909e+00  -4.44709400e-02
C     1.515113113566888e+00   6.354844958048914e-01   3.588034200000000e+00 -5.65792620e-01  -6.11941500e-01   3.62345200e-01
