32
Lattice="9.96 0 0 4.98 8.62561302169301 0 0 0 30 " PBC="1 1 1" Properties=species:S:1:pos:R:3:force:R:3 Energy="-257.86605385"
C     3.154520774947427e-03  -2.856475063582844e-03   3.001004727266171e+00 -2.99752620e-01   2.45325690e-01  -4.10908400e-02
C     1.245954042252226e+00   7.163227249437417e-01   3.002027775532753e+00 -2.20765400e-02   4.51964900e-02  -2.76433200e-02
C     2.489223769652778e+00   5.717572965303823e-04   2.999616643074573e+00  8.80881700e-02  -1.40475450e-01  -1.89658300e-02
C     3.734001993348182e+00   7.175949801889485e-01   2.997700156522607e+00  9.15798000e-02   1.55065900e-02   5.65624000e-03
C     4.981893925323622e+00   3.404845017376213e-04   2.998525536359422e+00 -1.83284370e-01  -1.54028060e-01   1.37893000e-03
C     6.222420112602806e+00   7.178610076067528e-01   3.000400468185853e+00  2.08851060e-01  -7.77256500e-02  -1.37302800e-02
C     7.470369644231818e+00  -4.036033898250318e-03   3.001684664483202e+00 -1.05663360e-01   1.59583500e-01  -3.21747100e-02
C     8.711957736366735e+00   7.228681394042576e-01   2.997747434663351e+00  2.06239230e-01  -4.42400140e-01   5.61530700e-02
C     1.245998971998929e+00   2.154141965874851e+00   2.998516892544072e+00 -1.36066890e-01   5.96773700e-02   2.24276000e-02
C     2.488097475371165e+00   2.872249303770609e+00   2.999794668898465e+00  1.34209420e-01   5.26565700e-02  -9.56377000e-03
C     3.736452918984579e+00   2.155721794696519e+00   2.997757858720332e+00 -1.60755500e-01  -3.27049100e-02   1.30306800e-02
C     4.976674549657012e+00   2.874382539455473e+00   2.998043887255653e+00  2.90466270e-01   9.61126700e-02  -1.80694500e-02
C     6.225240153039788e+00   2.152489485428684e+00   2.997458762305550e+00 -6.49138800e-02   2.11158460e-01   2.39549700e-02
C     7.471442240310187e+00   2.874136828430363e+00   2.999057560993620e+00 -1.41393170e-01   3.35381200e-02  -8.75299000e-03
C     8.714357344118332e+00   2.152963737630037e+00   3.001059002601770e+00  1.44466200e-02   2.68281840e-01  -4.17428600e-02
C     9.959223117650104e+00   2.875772411598537e+00   2.997813121647610e+00  6.13520700e-02  -1.77232950e-01   1.34522500e-02
C     2.491956401162646e+00   4.309900323887480e+00   3.001338599086393e+00 -1.65570790e-01   5.84676400e-02  -4.22215500e-02
C     3.734986361990094e+00   5.029525565929242e+00   2.997957533857799e+00  9.32163100e-02   1.03353950e-01   1.32499300e-02
C     4.983538912383699e+00   4.316668273810827e+00   2.997063991275234e+00 -1.75810770e-01  -2.16590440e-01   2.29151200e-02
C     6.225543800104150e+00   5.035365370838046e+00   3.000377878691242e+00  6.53010900e-02  -4.52959700e-02  -1.52059500e-02
C     7.469635407570349e+00   4.314673024486964e+00   2.997891569312452e+00  5.27018600e-02  -1.10763000e-01   5.08308500e-02
C     8.716587227999524e+00   5.030778563704564e+00   3.003249861792650e+00 -1.40536130e-01   2.88621900e-02  -6.01913300e-02
C     9.958364081682696e+00   4.310542826828788e+00   2.997495978282132e+00  1.05668050e-01   8.36432200e-02   3.20753800e-02
C     1.120396828451437e+01   5.031778916263469e+00   2.998257493083722e+00  1.00698160e-01  -2.16074620e-01   4.07293100e-02
C     3.735517247055121e+00   6.469105356464957e+00   2.997869069165527e+00 -1.31550990e-01  -7.39333600e-02  -5.84850000e-03
C     4.976743485010653e+00   7.190041814805999e+00   2.996135604321765e+00  2.19040450e-01  -1.16972570e-01   6.75636300e-02
C     6.227686675958681e+00   6.472648014712250e+00   3.002920524457358e+00 -2.30001400e-01  -1.05665370e-01  -7.99417000e-02
C     7.469792729541716e+00   7.184747406108664e+00   2.996427655486734e+00  3.13325500e-02   2.57945480e-01   7.86873100e-02
C     8.713215219267450e+00   6.468950741402298e+00   3.001235387685330e+00  1.65626970e-01  -6.79206500e-02  -2.50383900e-02
C     9.960561811299453e+00   7.185396777308069e+00   2.999074338915876e+00 -3.08110100e-02   9.49961900e-02   3.51575700e-02
C     1.120576012938527e+01   6.465131508533561e+00   3.003325653735997e+00 -1.31509520e-01   1.01018550e-01  -5.57959100e-02
C     1.244734456510825e+01   7.184557614053075e+00   3.000300807371846e+00  1.90878860e-01   6.24586100e-02   1.87145500e-02
