32
Lattice="9.86 0 0 4.93 8.53901048131456 0 0 0 30 " PBC="1 1 1" Properties=species:S:1:pos:R:3:force:R:3 Energy="-252.92966227"
C     5.164068462700000e+00   7.471997163335505e+00  -3.418607999999992e-01 -9.66968500e-02   2.58385160e+00   2.96108000e-02
C     6.444797863899999e+00   8.213080975653954e+00  -2.839619999999989e-01 -1.27518997e+00  -1.60671860e-01  -3.02537370e-01
C     7.676398286800000e+00   7.519449383864018e+00  -2.781185999999991e-01 -2.63069460e-01  -1.06553693e+00   1.83333140e-01
C     8.872477172299998e+00   8.297597539681851e+00  -2.039547000000006e-01 -5.00519900e-02  -2.70626509e+00   9.55796070e-01
C     1.009645724490000e+01   7.530910699900589e+00  -8.652839999999884e-02  9.36055740e-01   4.27336911e+00  -1.40771238e+00
C     1.133806191960000e+01   8.270750463782207e+00  -1.774956000000003e-01 -3.84483190e-01   1.81001180e-01  -6.19659960e-01
C     1.254481371280000e+01   7.524457342730328e+00  -2.693798999999970e-01 -1.08282101e+00   1.37880350e-01   1.43030601e+00
C     1.374180642310000e+01   8.246603422996339e+00  -3.685697999999995e-01  4.10251917e+00  -3.87725970e-01   8.86002600e-02
C     1.553487961600000e+00   1.086580886129939e+00  -1.093197000000004e-01 -1.37879880e+00   3.31803411e+00   1.73453419e+00
C     2.757361965900000e+00   1.901834116527145e+00   2.620443000000000e-01 -1.36836533e+00  -3.83424416e+00  -1.85073095e+00
C     3.941569756500000e+00   1.135971291257202e+00   4.976820000000000e-02  5.91890130e-01   1.33796010e+00  -2.63487810e-01
C     5.146948396800000e+00   1.856436211139910e+00  -4.305689999999984e-02  1.64061685e+00  -9.49700530e-01   5.03204230e-01
C     6.425655413399999e+00   1.173079866830872e+00  -2.650262999999988e-01 -3.84924410e-01  -9.28684390e-01  -8.32762000e-02
C     7.687800933100000e+00   1.843019120143001e+00  -4.123926000000004e-01 -4.19188300e-01   1.60621376e+00   2.52512833e+00
C     8.953801564899999e+00   1.169884312938942e+00  -3.378699000000012e-01 -2.07239742e+00  -8.54680080e-01  -2.52166650e-01
C     1.016416098420000e+01   1.899211188678003e+00  -6.105060000000151e-02  6.17582200e-01  -3.72398976e+00  -6.85660800e-01
C     2.692605775000000e+00   3.275359996217109e+00   4.538283000000000e-01  2.25333976e+00   6.77250660e-01   1.37978080e-01
C     4.021999748500000e+00   4.031023229639006e+00   4.450536000000000e-01 -3.82014728e+00   4.65762300e-01  -2.19063420e-01
C     5.153596896200000e+00   3.234957326570570e+00   1.892904000000000e-01  1.25902362e+00   1.82391871e+00  -1.41726730e-01
C     6.408396272200000e+00   3.936009916198360e+00   6.328470000000000e-02  1.71770720e-01   1.55403132e+00  -9.09649890e-01
C     7.667390042900000e+00   3.299399787031348e+00  -8.775209999999944e-02 -1.66364439e+00  -3.40700464e+00  -1.00985620e+00
C     8.867773410000000e+00   3.909189908961938e+00   1.216740000000000e-02  3.32487463e+00   5.46509152e+00   4.89913020e-01
C     1.012822739740000e+01   3.285665215624792e+00   1.998513000000000e-01 -4.15380064e+00  -3.79705687e+00  -1.58170878e+00
C     1.127179009880000e+01   3.882195705911723e+00   4.213071000000000e-01  5.38388167e+00   6.07979587e+00   6.47082680e-01
C     3.960289163700000e+00   5.556330276781284e+00   3.315324000000000e-01  2.22643800e-02  -5.73482673e+00  -1.05773436e+00
C     5.145791325799999e+00   6.070068656206756e+00  -1.597623000000006e-01  2.14237393e+00   1.94458160e+00   8.16822230e-01
C     6.421009677200000e+00   5.364113479101978e+00  -1.285443000000015e-01 -2.70044520e-01  -9.58721350e-01   6.74579920e-01
C     7.686253751199999e+00   6.033645507004315e+00  -2.186102999999981e-01  6.12722470e-01   2.87030366e+00   4.03715000e-02
C     9.000819566499999e+00   5.454813396788756e+00  -6.102149999999895e-02 -4.96596055e+00  -4.03867215e+00  -6.45283740e-01
C     1.015790688480000e+01   6.183637495590755e+00  -1.354152000000006e-01  1.87712761e+00  -4.45830033e+00   3.10689163e+00
C     1.138866171410000e+01   5.354501029614537e+00   3.445149000000000e-01 -3.08118968e+00   1.42956538e+00  -2.45004964e+00
C     1.253479082560000e+01   6.110511800762970e+00   1.526949000000000e-01  1.79473090e+00   1.25746963e+00   1.16152790e-01
