32
Lattice="9.86 0 0 4.93 8.53901048131456 0 0 0 30 " PBC="1 1 1" Properties=species:S:1:pos:R:3:force:R:3 Energy="-255.8936164"
C     1.148787466100000e+00   8.065471968722168e-01   3.751227000000000e+00 -5.68235290e-01   4.77656562e+00   5.75450780e-01
C     2.342573507200000e+00   1.593647309716862e+00   3.689754300000000e+00  1.66514130e-01  -1.30624170e-01  -9.88178570e-01
C     3.554524724900000e+00   8.698561036917752e-01   3.572794800000000e+00  9.44382540e-01   9.63446790e-01   6.71520490e-01
C     4.796142168299999e+00   1.590979295892386e+00   3.594507900000000e+00  1.25982544e+00  -7.18163490e-01  -9.51310590e-01
C     6.044942325899999e+00   8.130052504982408e-01   3.586079700000000e+00  4.22800690e-01   4.00653902e+00   1.21899668e+00
C     7.280103589199999e+00   1.576790790688714e+00   3.768686700000000e+00  4.39958180e-01  -5.42600880e-01  -4.66661690e-01
C     8.541126843700001e+00   8.706944637407016e-01   3.846384900000000e+00 -2.08098440e-01   6.54138200e-01  -4.84011810e-01
C     9.820992459599999e+00   1.611420064569515e+00   3.780584100000000e+00 -2.73200930e+00  -1.45244645e+00   6.38779900e-01
C     2.333793571600000e+00   3.047363976115659e+00   3.540288600000000e+00  6.79142720e-01  -1.18646760e+00  -6.47853900e-02
C     3.581379026500000e+00   3.714015881173197e+00   3.355422000000000e+00  1.48962224e+00   2.36511020e-01   1.56943642e+00
C     4.854743993700000e+00   3.036671512582708e+00   3.494275500000000e+00 -2.29302601e+00  -1.76081412e+00   3.82513370e-01
C     6.041259961000000e+00   3.751399583664533e+00   3.675140400000000e+00  1.02041090e+00  -1.72442777e+00  -2.96569940e-01
C     7.291328755499999e+00   3.011846388974623e+00   3.747715500000000e+00 -1.55488292e+00  -4.57882140e-01  -3.04708450e-01
C     8.483059035899998e+00   3.716162929968289e+00   3.658299000000000e+00  1.93888803e+00   5.34937410e-01   9.58284930e-01
C     9.742364678400000e+00   3.034107674686088e+00   3.756513900000000e+00  1.07603258e+00   4.69507500e-02  -1.06255653e+00
C     1.098971393700000e+01   3.785166759047273e+00   3.593608200000000e+00 -1.78690213e+00  -2.22713863e+00   9.10877500e-02
C     3.660567940300000e+00   5.139898447450967e+00   3.467377200000000e+00 -2.54807071e+00  -9.72015910e-01  -4.52456790e-01
C     4.848908599200000e+00   5.850030481532037e+00   3.571494000000000e+00  1.80622200e-02   1.22912667e+00   5.22948630e-01
C     6.049503660500000e+00   5.132773667886665e+00   3.706161300000000e+00  1.30292203e+00   8.65489220e-01  -9.57238790e-01
C     7.324237097099999e+00   5.795812973780429e+00   3.642392700000000e+00 -4.27735579e+00   4.52316611e+00   9.11085080e-01
C     8.493432643300000e+00   5.170315256681775e+00   3.616962900000000e+00  3.16386145e+00  -2.28690731e+00  -7.31195020e-01
C     9.726638717899998e+00   5.891505565504759e+00   3.474720300000000e+00  4.34450620e-01   6.73406980e-01   1.10742962e+00
C     1.094032066140000e+01   5.158461146163124e+00   3.461654700000000e+00  2.31763081e+00   1.37455414e+00   1.85864400e-01
C     1.226869210360000e+01   5.816057515996728e+00   3.489377400000000e+00 -1.74696456e+00   1.42133861e+00  -7.07124670e-01
C     4.788686233500000e+00   7.286170021808277e+00   3.683458800000000e+00  1.30714391e+00  -1.23106220e+00   9.34270120e-01
C     6.017546759600000e+00   7.991952967071674e+00   3.818118000000000e+00  1.37260411e+00  -2.52481125e+00  -1.15723183e+00
C     7.268108997799999e+00   7.289496564120971e+00   3.691216200000000e+00  6.06943660e-01  -2.13738484e+00  -1.32095160e-01
C     8.514129917199998e+00   7.974083721400597e+00   3.597662700000000e+00 -9.98062750e-01   1.77869726e+00   4.32930370e-01
C     9.772192953200001e+00   7.357010421261300e+00   3.590202600000000e+00 -1.34312364e+00  -4.18994993e+00  -1.10165876e+00
C     1.100381186360000e+01   7.982263581099808e+00   3.571113600000000e+00  7.95294770e-01  -8.89920130e-01  -4.01508770e-01
C     1.224928747570000e+01   7.245146224539424e+00   3.506243400000000e+00 -8.74973960e-01   5.27315000e-02   1.60051213e+00
C     1.343575266400000e+01   7.960353504889386e+00   3.792020100000000e+00  1.75214470e-01   1.29501751e+00  -1.54181790e+00
