32
Lattice="9.86 0 0 4.93 8.53901048131456 0 0 0 30 " PBC="1 1 1" Properties=species:S:1:pos:R:3:force:R:3 Energy="-256.66768053"
C     5.008209569300000e+00   8.085487665457602e+00   1.683534000000000e-01 -1.49597806e+00  -1.43772236e+00  -2.87943120e-01
C     1.301433182700000e+00   2.065831704712776e-01   2.167959000000000e-01 -3.15377430e-01   2.41733037e+00  -5.51692600e-01
C     7.462347497500000e+00   8.044328951823164e+00   1.823466000000000e-01 -4.69359460e-01   1.77496692e+00  -3.09662290e-01
C     3.747688780400000e+00   2.453220139257888e-01   4.065960000000000e-02 -6.42985440e-01  -6.80975890e-01   1.53632531e+00
C     9.866407816799999e+00   8.054106545773289e+00   1.633023000000000e-01  1.71007885e+00  -9.80328320e-01  -9.88516940e-01
C     6.187742290199999e+00   1.964341295652736e-01   1.982097000000000e-01 -2.45776750e-01   2.14685871e+00  -1.11516579e+00
C     1.236310658290000e+01   8.072868544990049e+00   5.196210000000000e-02 -1.12953710e-01   8.95235600e-02   1.04785679e+00
C     8.681073915599999e+00   2.686034552192992e-01   1.194042000000000e-01 -2.04623060e-01  -1.88498234e+00   2.73491700e-01
C     1.261305004000000e+00   1.683991748397358e+00   1.172613000000000e-01  2.22155310e-01  -1.23559287e+00  -5.68227110e-01
C     2.493564715800000e+00   2.376955845738074e+00  -7.014000000005183e-04 -2.45321200e-01   5.30528770e-01  -1.39079100e-01
C     3.733565562900000e+00   1.657652914401484e+00   3.799230000000000e-02 -1.67928456e+00   3.11462420e-01  -4.86802870e-01
C     4.901312034200000e+00   2.392498040273141e+00   1.310190000000000e-02  3.20076341e+00  -7.06635950e-01   4.57567650e-01
C     6.161350028199999e+00   1.656762039438106e+00   1.397301000000000e-01  5.72892900e-02  -1.60441410e-01   2.35414090e-01
C     7.405098414799999e+00   2.360685615169482e+00   1.939185000000000e-01 -4.58577790e-01   1.03127653e+00  -2.08662400e-01
C     8.633635976600001e+00   1.655516880929912e+00   1.864695000000000e-01  1.10353127e+00   1.72125202e+00  -8.02243880e-01
C     9.886769259099999e+00   2.407425340663543e+00   2.378610000000000e-02  1.25262850e-01  -2.06836593e+00   1.39149594e+00
C     2.486547304500000e+00   3.819684769621521e+00  -1.460487000000015e-01  1.29462091e+00  -1.49862763e+00   2.62444800e-01
C     3.741600969899999e+00   4.514671758544949e+00  -9.516059999999982e-02 -5.34732970e-01   7.07969770e-01   3.09089040e-01
C     4.956969121299999e+00   3.798248266932319e+00  -1.986750000000015e-02  1.08124146e+00   1.19531949e+00   8.99930580e-01
C     6.237888919100000e+00   4.546281809100231e+00   2.019780000000000e-01 -2.40588602e+00  -1.99485622e+00  -1.27932735e+00
C     7.442449968200000e+00   3.834958924617621e+00   1.996953000000000e-01 -3.45529000e-03  -2.26900054e+00   1.32157090e-01
C     8.669172156099998e+00   4.502421694110340e+00   1.439715000000000e-01  1.10576557e+00   8.43452100e-01  -2.46792340e-01
C     9.937229337400000e+00   3.798453630134363e+00   6.964500000000000e-03 -2.29197415e+00   8.18997520e-01  -2.85497040e-01
C     1.113293837430000e+01   4.510360241373387e+00  -1.679721000000001e-01  3.15569560e-01   1.30861190e-01   3.51330660e-01
C     3.729020004300000e+00   5.945489702099947e+00   4.056000000000000e-02 -5.01474150e-01  -2.98684150e-01  -8.76907790e-01
C     4.977014747799999e+00   6.620498736714262e+00   1.049622000000000e-01 -9.61771310e-01   1.93032800e+00   3.39194510e-01
C     6.194649762500000e+00   5.932185411431480e+00   1.561725000000000e-01  9.72596920e-01   9.03412980e-01   6.56940090e-01
C     7.431217850600000e+00   6.667338966361674e+00   2.260017000000000e-01  5.54702090e-01  -1.88399790e+00  -3.50789540e-01
C     8.669066900599999e+00   5.940687447996100e+00   1.612299000000000e-01 -4.16882370e-01  -1.07587812e+00  -3.24094590e-01
C     9.897520652400001e+00   6.608032806094720e+00   4.037970000000000e-02 -8.49040000e-03   1.37134665e+00   1.12134590e-01
C     1.114476707120000e+01   5.922590210745208e+00  -1.606757999999999e-01 -1.95858714e+00   5.56801230e-01   1.23839404e+00
C     1.231132994810000e+01   6.656846486454164e+00  -8.840400000000415e-03  3.20991377e+00  -3.05598610e-01  -4.22362160e-01
