32
Lattice="9.86 0 0 4.93 8.53901048131456 0 0 0 30 " PBC="1 1 1" Properties=species:S:1:pos:R:3:force:R:3 Energy="-255.96893712"
C     4.910742138200000e+00   8.361434925860015e+00   1.813065000000000e-01  6.89489210e-01   7.81242000e-02  -3.41645870e-01
C     1.217349617000000e+00   5.373537814188545e-01   1.790640000000000e-01  3.08783150e-01   1.12773334e+00  -2.88889120e-01
C     7.384945215700000e+00   8.367068367243986e+00   2.429352000000000e-01 -9.18580130e-01   8.13153800e-02  -9.07234090e-01
C     3.666526486200000e+00   5.253313670036432e-01   3.997920000000000e-02  5.25850130e-01   3.95463320e-01   1.51591231e+00
C     9.809871957199999e+00   8.331779796364025e+00   1.306995000000000e-01  2.48774730e+00   2.15559647e+00  -6.21376880e-01
C     6.153153656700000e+00   4.992142057198296e-01   1.525389000000000e-01  2.70297290e-01   8.97814900e-01  -1.28002725e+00
C     1.233679561660000e+01   8.333514923293560e+00   9.039300000000000e-03 -1.44042704e+00   1.96176600e-01   1.06448959e+00
C     8.601771907600000e+00   5.421856658890672e-01   1.063560000000000e-01  1.15255041e+00  -1.36032353e+00   4.83840340e-01
C     1.245642936300000e+00   1.985551258393903e+00  -2.546700000000257e-02  2.03876260e-01  -5.02703480e-01   4.39490210e-01
C     2.499464298900000e+00   2.720650419827340e+00  -1.085097000000026e-01 -1.59644198e+00  -2.08183497e+00  -4.66661740e-01
C     3.735471993900000e+00   1.970210755286373e+00  -2.043660000000003e-02 -2.86925425e+00  -1.05427015e+00  -3.80484380e-01
C     4.901515248800000e+00   2.658699984185045e+00  -2.591250000000045e-02  4.16621128e+00   4.00186810e-01   2.00061100e-02
C     6.207487088100000e+00   1.943250025157241e+00   7.899900000000000e-02 -1.69558093e+00   5.37434200e-02   1.03111433e+00
C     7.430792687399999e+00   2.678049552712935e+00   2.309055000000000e-01 -1.08651521e+00  -1.14978860e-01  -8.89999420e-01
C     8.658433876600000e+00   1.933707424775526e+00   2.211507000000000e-01 -7.37963840e-01   2.20970115e+00  -1.15608841e+00
C     9.860406034800000e+00   2.696739226510930e+00  -1.657649999999933e-02  5.89420400e-01  -9.39695030e-01   1.19839992e+00
C     2.420230029100000e+00   4.095818778183132e+00  -3.421944000000003e-01  2.93421989e+00   9.45739590e-01   6.16705800e-01
C     3.741874436999999e+00   4.800433074472235e+00  -2.578967999999975e-01 -3.06726085e+00  -1.68220790e-01   1.68629150e-01
C     4.923543819900001e+00   4.087055020947298e+00  -9.006269999999716e-02  2.30927470e-01  -3.59049060e-01   8.37419890e-01
C     6.114534304499999e+00   4.805490303429015e+00   2.009922000000000e-01  1.31259458e+00  -4.54840910e-01  -1.58280376e+00
C     7.357488911800001e+00   4.126153356743018e+00   1.807980000000000e-01  1.93619477e+00  -1.12838536e+00   5.41852320e-01
C     8.631836132200000e+00   4.837361049974253e+00   9.913590000000000e-02 -1.39302498e+00   4.78654000e-02   1.75458410e-01
C     9.860636660199999e+00   4.119130703744056e+00  -2.594550000000240e-02 -4.74231660e-01   6.32698600e-02  -1.02191102e+00
C     1.107418140180000e+01   4.828347782852194e+00  -3.148370999999983e-01 -6.68083830e-01  -1.26596666e+00   5.51323030e-01
C     3.677887819100000e+00   6.194180697220515e+00  -8.098020000000261e-02  2.66047912e+00   1.29504399e+00   1.80702390e-01
C     4.971783623399999e+00   6.943882164305487e+00   1.440708000000000e-01 -2.64975887e+00  -7.89534270e-01  -8.27307800e-01
C     6.187157148499999e+00   6.214502005141029e+00   1.480065000000000e-01 -1.93495038e+00   4.27190180e-01   1.16108874e+00
C     7.375672871699999e+00   6.929888519320968e+00   2.677011000000000e-01  1.12375819e+00   1.27015394e+00  -5.84774480e-01
C     8.596369317800001e+00   6.270458055426364e+00   1.197261000000000e-01  2.80632137e+00  -1.26623627e+00  -4.83359700e-02
C     9.915694209999998e+00   6.962256407056350e+00   1.960440000000000e-02 -3.74165210e+00  -1.99842056e+00  -4.40665120e-01
C     1.107691627000000e+01   6.225636960197054e+00  -2.984808000000001e-01  8.10774640e-01   1.18745435e+00   1.77739424e+00
C     1.232451824040000e+01   6.903487521328798e+00  -9.785279999999830e-02  6.42305900e-02   6.51886990e-01  -9.25621490e-01
