32
Lattice="9.86 0 0 4.93 8.53901048131456 0 0 0 30 " PBC="1 1 1" Properties=species:S:1:pos:R:3:force:R:3 Energy="-253.1851152"
C     5.447133138800000e+00   8.123780601784848e+00  -4.678568999999975e-01  1.14284053e+00   7.72449390e-01  -2.51501180e-01
C     1.790108931800000e+00   3.384187464641984e-01  -5.058518999999997e-01 -1.11154240e+00  -3.72532093e+00  -4.10371180e-01
C     7.996453738900000e+00   8.085697554335201e+00  -5.611065000000011e-01 -2.49477523e+00   5.28775438e+00  -4.21929880e-01
C     4.252541979399999e+00   3.553423821147200e-01  -6.490209000000000e-01 -9.53221750e-01  -1.31466043e+00   1.06785613e+00
C     1.037041187260000e+01   8.153112956684696e+00  -6.214458000000000e-01  1.60689883e+00  -1.03941962e+00   1.61291343e+00
C     6.726527348099999e+00   2.529681000798952e-01  -5.279696999999999e-01 -1.74594878e+00   1.97708312e+00  -1.19335609e+00
C     1.287675495120000e+01   8.131095459722435e+00  -4.837184999999984e-01  1.70119010e-01  -1.31945738e+00   7.35254760e-01
C     9.153146903700002e+00   3.602208041920488e-01  -5.369837999999980e-01  1.69646879e+00  -2.40816185e+00   4.65055300e-01
C     1.740462352800000e+00   1.714999798713802e+00  -5.300811000000003e-01  4.43559054e+00   8.48902250e-01   2.28015959e+00
C     3.065740269300000e+00   2.328802060108524e+00  -1.920338999999984e-01 -7.47221637e+00   7.45521929e+00  -7.47536780e-01
C     4.200971615799999e+00   1.803133658361235e+00  -3.681702000000016e-01  3.97889375e+00  -8.04840911e+00  -1.75050193e+00
C     5.412334733800000e+00   2.377706766319685e+00  -4.000197000000014e-01  5.11775748e+00   2.25326239e+00  -4.31209560e-01
C     6.654425259999999e+00   1.677638895380448e+00  -6.336833999999989e-01  2.74626753e+00   3.45724130e-01   1.37230718e+00
C     8.007544316199999e+00   2.439912262205018e+00  -6.132831000000003e-01 -3.49089536e+00  -2.95865421e+00  -3.78403620e-01
C     9.243576414700000e+00   1.761367052570726e+00  -5.785073999999994e-01 -8.03729580e-01   4.84688230e-01  -2.71187820e-01
C     1.048412118870000e+01   2.503199906888481e+00  -5.080941000000010e-01 -2.63815626e+00  -1.43884843e+00  -8.40215560e-01
C     3.139272156000000e+00   3.846764277386430e+00  -1.170201000000013e-01 -5.35686712e+00  -1.77638267e+00   1.57903050e-01
C     4.320531658700000e+00   4.542954327496385e+00  -1.842876000000011e-01 -8.40116300e-02  -1.14366528e+00   6.04490840e-01
C     5.553950660000000e+00   3.770122901163819e+00  -2.874122999999997e-01 -1.40215345e+00   2.24164455e+00   6.06701100e-02
C     6.753296903000000e+00   4.530671558651639e+00  -4.186556999999986e-01 -9.07168950e-01  -1.65489674e+00  -1.17322498e+00
C     7.943661129700001e+00   3.787419264621793e+00  -6.620808000000018e-01  1.79384634e+00   3.74328259e+00   5.34940410e-01
C     9.181142056599999e+00   4.564201178762826e+00  -6.811332000000014e-01 -5.38161370e-01   1.49833310e-01   9.43845170e-01
C     1.046559138930000e+01   3.910355910842982e+00  -5.003448000000006e-01 -2.93981509e+00  -7.14499340e-01   1.93329400e-01
C     1.157071483140000e+01   4.599320762625389e+00  -1.373327999999994e-01  5.43895240e+00  -1.11082928e+00  -9.54535800e-02
C     4.197256762200000e+00   5.939686334407426e+00  -1.973453999999997e-01  1.88536913e+00   2.41595478e+00  -8.69395920e-01
C     5.436994741700000e+00   6.687821576190155e+00  -3.831617999999999e-01 -1.57213720e-01  -9.17177360e-01  -2.29393960e-01
C     6.658670680200000e+00   5.915858738003614e+00  -5.469329999999992e-01  5.66684440e-01   3.67284564e+00   6.88259270e-01
C     7.895187890699999e+00   6.741461590662999e+00  -6.433643999999994e-01 -9.97641800e-01  -4.12114916e+00   3.12605460e-01
C     9.069635070100000e+00   5.989781378679499e+00  -5.802462000000013e-01  4.04859816e+00   2.29874220e-01   4.75732020e-01
C     1.035891940170000e+01   6.750749813922514e+00  -3.417009000000029e-01 -1.35584407e+00  -1.96754986e+00  -1.41248815e+00
C     1.157930629310000e+01   5.976652820846708e+00  -9.983730000000079e-02 -1.32064620e-01   3.13365857e+00  -1.43920386e+00
C     1.284474105950000e+01   6.673849022561521e+00  -2.469315000000023e-01 -4.68593800e-02   6.46904810e-01   4.10051920e-01
