32
Lattice="10.076 0 0 5.038 8.726071968532 0 0 0 30 " PBC="1 1 1" Properties=species:S:1:pos:R:3:force:R:3 Energy="-257.10061602"
C     3.451232718752298e-04   1.439537505090793e-03   3.002143616331989e+00 -5.83779800e-02  -6.10506200e-02  -7.13007000e-03
C     1.261166441919029e+00   7.267031186424909e-01   2.998782618145167e+00 -7.58738300e-02   8.14515000e-03   5.71421700e-02
C     2.518064205464698e+00   2.721601872758346e-03   3.001908739966366e+00  1.36080940e-01  -1.22597470e-01  -4.48914100e-02
C     3.779800039896140e+00   7.275251269596892e-01   2.999955497257451e+00  1.29688400e-02  -5.02203000e-03   7.26520000e-03
C     5.041844107607468e+00  -2.187529938782374e-03   2.997055356885153e+00 -1.33638090e-01   1.08247770e-01   2.89710800e-02
C     6.297138089320657e+00   7.299592072468271e-01   3.001740378348482e+00  1.13065250e-01  -1.65876750e-01  -1.25419400e-02
C     7.560911142368357e+00  -2.211900920023549e-03   3.001367115737076e+00 -2.85324760e-01   1.26172540e-01   1.63806000e-02
C     8.813134355171844e+00   7.271457709124030e-01   3.003477959782201e+00  2.27384390e-01  -7.95580400e-02  -3.47251800e-02
C     1.263857656013636e+00   2.178590031459382e+00   3.002270970481338e+00 -2.29909490e-01   1.21241540e-01  -3.54126800e-02
C     2.517843854615571e+00   2.908385858005945e+00   2.997895780545303e+00  7.27820100e-02  -5.55428600e-02   4.60868900e-02
C     3.778629125690395e+00   2.183548727884664e+00   3.001825246342233e+00 -2.61560100e-02  -1.68436860e-01  -4.65068900e-02
C     5.036020231858486e+00   2.905544070684753e+00   2.999207984874913e+00  6.03783900e-02   2.15749570e-01   6.09478100e-02
C     6.294942243924980e+00   2.182324837705335e+00   3.004321742922552e+00  1.77860650e-01  -7.51820000e-04  -6.66708800e-02
C     7.560135937010243e+00   2.910007607745919e+00   2.998571624441118e+00 -2.39906770e-01  -3.67108700e-02   4.65403800e-02
C     8.814561198362707e+00   2.178636393023687e+00   2.999266100233553e+00  9.10974000e-02   1.77065060e-01   3.78094100e-02
C     1.007671215686050e+01   2.907777801933311e+00   3.002931691204131e+00  4.28240200e-02  -1.37146130e-01  -4.64450000e-02
C     2.517102778795905e+00   4.358937618064142e+00   2.998251486780382e+00  3.23708000e-03   2.28265320e-01   8.27886000e-03
C     3.776663343264503e+00   5.088908377049686e+00   2.999783016465151e+00  8.00880100e-02  -5.41436800e-02   2.69813300e-02
C     5.037270617414182e+00   4.362260646638309e+00   3.002838964768718e+00  3.38392000e-02   7.83410000e-03  -4.72656800e-02
C     6.299880725732789e+00   5.090594927223505e+00   3.001276476197469e+00 -2.28014960e-01   3.78771100e-02   2.95358100e-02
C     7.554842505674559e+00   4.365902597555332e+00   3.001030694069546e+00  1.76277350e-01  -1.36311330e-01  -2.42634800e-02
C     8.814579870861357e+00   5.089500255098584e+00   2.999036252618945e+00  1.22223810e-01   9.38278700e-02  -1.97971000e-03
C     1.007682527563949e+01   4.359520475490549e+00   2.998303261006848e+00 -7.52679900e-02   1.64994260e-01   3.05715300e-02
C     1.133566072948876e+01   5.092186494463351e+00   2.999227286813393e+00 -3.12672200e-02  -1.67227080e-01  -2.34799700e-02
C     3.779384646703657e+00   6.542274812491751e+00   3.003355761637395e+00 -1.52918620e-01   8.30411100e-02  -2.89748400e-02
C     5.037158201303340e+00   7.271458643902508e+00   3.002209735402250e+00  4.48977800e-02   4.16097500e-02   2.55596600e-02
C     6.298167239335018e+00   6.545852138577600e+00   3.003818969429325e+00  2.71969600e-02  -3.26211400e-02  -4.09271500e-02
C     7.558204762139162e+00   7.273371920352520e+00   2.999682946912487e+00 -9.91626000e-03   2.52665500e-02   2.68992400e-02
C     8.819263696300203e+00   6.547825000515513e+00   2.998194525739385e+00 -1.14159750e-01  -2.04079450e-01  -8.48493000e-03
C     1.007892170761030e+01   7.268497300650000e+00   2.995652038124363e+00 -1.07512380e-01   2.06522280e-01   1.65910500e-02
C     1.133339906185705e+01   6.546233063741569e+00   2.997470655378195e+00  1.43530710e-01  -1.35425120e-01   1.35988800e-02
C     1.259204345180170e+01   7.272378287561681e+00   3.001238936679960e+00  2.02511310e-01  -8.33587000e-02  -9.46008000e-03
