32
Lattice="9.86 0 0 4.93 8.53901048131456 0 0 0 30 " PBC="1 1 1" Properties=species:S:1:pos:R:3:force:R:3 Energy="-251.9474894"
C     1.297387131700000e+00   7.620845693028568e-01   3.596766300000000e+00 -4.71531310e+00  -3.54932451e+00  -1.71198160e-01
C     2.420672693800000e+00   1.443655833471051e+00   3.734359800000000e+00  2.46470493e+00   2.94268528e+00   6.51940180e-01
C     3.574355748499999e+00   7.567663027957032e-01   3.574350000000000e+00  6.18217993e+00   5.74436890e-01  -6.74166400e-01
C     5.002455470499999e+00   1.409429515494801e+00   3.546511200000000e+00 -4.69815840e+00   1.03945416e+00   2.99489750e-01
C     6.146459850599999e+00   6.659061932723199e-01   3.339121200000000e+00  2.28491511e+00   2.85965651e+00   5.24571310e-01
C     7.332281180900000e+00   1.472465173978999e+00   3.535848300000000e+00  2.12345146e+00   7.82787350e-01  -1.23372226e+00
C     8.647194511900000e+00   7.638015935301753e-01   3.633248100000000e+00 -1.08344642e+00  -7.53407600e-02  -1.93795842e+00
C     9.950922806800000e+00   1.423848403201224e+00   3.663302100000000e+00 -4.20212389e+00   2.52037060e+00   1.27509166e+00
C     2.451814123400000e+00   2.846991484136800e+00   3.976834500000000e+00 -2.49271705e+00   1.33269716e+00  -4.18772900e-01
C     3.627510614100000e+00   3.568190417360369e+00   3.946802400000000e+00  5.08740317e+00  -6.89630920e-01  -8.62863610e-01
C     4.999075807600000e+00   2.821735823620314e+00   3.689373600000000e+00 -2.83394397e+00   1.15534156e+00  -3.22453920e-01
C     6.142196189400000e+00   3.655209509189639e+00   3.402327300000000e+00 -3.28004135e+00  -3.15164841e+00   1.08656503e+00
C     7.317274458100000e+00   2.992177973795410e+00   3.380940900000000e+00  3.70215145e+00  -5.43688244e+00   1.69932365e+00
C     8.608846063200000e+00   3.560766516258952e+00   3.596344800000000e+00  1.00189240e-01   2.18902094e+00  -5.95215850e-01
C     9.852034155299998e+00   2.909724947040111e+00   3.856199400000000e+00 -1.36558115e+00  -3.18063876e+00  -1.46321458e+00
C     1.102650494940000e+01   3.604924642714595e+00   3.927491400000000e+00  3.04363477e+00   1.49293708e+00  -6.07378100e-01
C     3.769025426000000e+00   4.987535773384965e+00   3.900209700000000e+00 -2.38514795e+00   2.22123220e+00  -1.14662810e+00
C     4.981836386399999e+00   5.778430366316608e+00   3.571589700000000e+00 -4.79564645e+00  -2.24102160e+00   1.19125274e+00
C     6.047085791300000e+00   4.993818008785206e+00   3.409331100000000e+00  5.54622746e+00   3.25356850e+00  -5.21215810e-01
C     7.348791898800000e+00   5.692815514760774e+00   3.320655900000000e+00  7.73616600e-01  -1.56715018e+00  -4.30627200e-01
C     8.633464264699999e+00   4.991159302482153e+00   3.438252600000000e+00 -5.32592490e-01   1.55025538e+00   3.86694450e-01
C     9.845439885899999e+00   5.822993327259107e+00   3.505981500000000e+00  3.83223420e-01  -3.10953880e+00  -2.50417850e-01
C     1.109577692170000e+01   5.043799057267371e+00   3.660345300000000e+00  4.71015920e-01   7.23549730e-01   1.79108003e+00
C     1.238696728990000e+01   5.750399442004016e+00   3.791909400000000e+00 -1.71943044e+00  -1.63430800e-01  -1.40472453e+00
C     4.889053096200000e+00   7.164014438875695e+00   3.509319000000000e+00 -6.84697640e-01   6.41916270e-01  -3.14164620e-01
C     6.086839339300000e+00   7.855884091243188e+00   3.477948000000000e+00  3.82141936e+00  -1.61451560e-01  -1.38925485e+00
C     7.354329866400000e+00   7.062501828388406e+00   3.221595000000000e+00 -1.32612830e-01   4.85119777e+00   1.97927722e+00
C     8.593941046299999e+00   7.963911454386087e+00   3.305200800000000e+00 -2.84784280e-01  -5.17365547e+00   1.55756280e-01
C     9.900038896399998e+00   7.222717232662131e+00   3.374202900000000e+00 -3.11031461e+00  -8.44833160e-01  -8.99630890e-01
C     1.114435403580000e+01   7.817866111053398e+00   3.249247200000000e+00 -3.21015714e+00   2.27334931e+00   1.04207718e+00
C     1.231872346910000e+01   7.239294269877270e+00   3.481215000000000e+00  2.16059260e-01  -7.43836574e+00   5.66057050e-01
C     1.348124024570000e+01   7.843000603011173e+00   3.416648700000000e+00  5.32651710e+00   4.37845643e+00   1.99443153e+00
