32
Lattice="9.86 0 0 4.93 8.53901048131456 0 0 0 30 " PBC="1 1 1" Properties=species:S:1:pos:R:3:force:R:3 Energy="-254.54084415"
C     8.559801239999999e-01   1.152039915788362e+00   3.483575100000000e+00  1.78297300e-01   1.71748523e+00   9.18872860e-01
C     2.108097234900000e+00   1.910418212982479e+00   3.688181100000000e+00 -2.94253465e+00   1.82972680e-01  -5.08469300e-01
C     3.293464364300000e+00   1.253250843035391e+00   3.718069800000000e+00  2.65702139e+00  -3.72027303e+00  -4.67753000e-01
C     4.536597832000000e+00   1.916177519380925e+00   3.761293500000000e+00 -7.23069300e-02   7.80202440e-01   9.20273070e-01
C     5.730995784700000e+00   1.169922909266311e+00   3.784248600000000e+00  3.22691430e-01   1.69978331e+00  -9.53606360e-01
C     6.977017295700001e+00   1.920756051410196e+00   3.657544500000000e+00 -2.94209220e-01  -4.05697368e+00   1.08348642e+00
C     8.200178692500000e+00   1.180393614697097e+00   3.619930500000000e+00  1.53118442e+00   1.13176875e+00  -1.83101431e+00
C     9.452334109499999e+00   1.890376643045290e+00   3.468520500000000e+00  3.09554310e-01  -1.58867433e+00   1.25656222e+00
C     2.084276855300000e+00   3.331890380347329e+00   3.800599800000000e+00  1.65984537e+00  -1.33793042e+00  -4.42666440e-01
C     3.361818814300000e+00   4.025112014244121e+00   3.855181500000000e+00 -2.41211153e+00   1.01845090e+00   6.12471430e-01
C     4.579164092899999e+00   3.349675772935492e+00   3.899384100000000e+00 -7.01303680e-01  -1.51350545e+00  -4.00315750e-01
C     5.800023672700000e+00   4.038991151098103e+00   3.968933100000000e+00 -4.56763240e-01  -2.52868573e+00  -9.66678230e-01
C     6.990434980900000e+00   3.265527069479074e+00   3.799837200000000e+00  4.66155830e-01   3.54372099e+00   6.71080990e-01
C     8.195538083499999e+00   4.016551997798340e+00   3.801423000000000e+00  2.20528490e+00  -1.86345319e+00  -1.81279450e+00
C     9.457171671999999e+00   3.261940770467579e+00   3.638879400000000e+00 -4.36114370e-01   2.62345102e+00   4.12329970e-01
C     1.071637146740000e+01   3.989640537759676e+00   3.724784700000000e+00 -2.21948900e-01  -2.36814496e+00  -6.27147430e-01
C     3.323676045200000e+00   5.466329874833027e+00   3.889116900000000e+00 -2.31361973e+00   1.66958940e-01  -1.22810464e+00
C     4.496888752599999e+00   6.130386006094750e+00   3.745003500000000e+00  3.30432259e+00   2.42029306e+00   7.26136100e-01
C     5.774907491900001e+00   5.387354018535289e+00   3.868754100000000e+00  2.04318210e-01   4.37880780e+00   1.68016270e-01
C     7.037378983200000e+00   6.110045058450132e+00   3.865569900000000e+00 -1.37425428e+00   3.13208789e+00  -1.75846745e+00
C     8.228881201800000e+00   5.432647918774877e+00   3.658761900000000e+00  8.93989120e-01  -8.33678060e-01   2.17063588e+00
C     9.494656581899999e+00   6.095967389602491e+00   3.707229300000000e+00  7.59684650e-01  -5.31314500e-02  -5.98667590e-01
C     1.077817355300000e+01   5.325316826546517e+00   3.616891800000000e+00 -3.17060233e+00   6.85418331e+00   1.61406301e+00
C     1.189421704370000e+01   6.233456217483695e+00   3.760875300000000e+00  2.12931812e+00  -3.38387216e+00   8.18588400e-02
C     4.533284083200000e+00   7.640204654467985e+00   3.602918400000000e+00  2.54656088e+00  -4.18335264e+00   9.48729800e-02
C     5.805543793700000e+00   8.290379001782478e+00   3.599461800000000e+00  3.00414340e-01   6.20727800e-01  -5.04179100e-01
C     7.090815351799999e+00   7.639659182478523e+00   3.694866600000000e+00 -3.43251027e+00  -4.40200985e+00   4.16891300e-01
C     8.289969324799999e+00   8.265052894429530e+00   3.649492800000000e+00 -2.94049660e-01   3.02844084e+00   1.22656280e+00
C     9.484882314600000e+00   7.530148080874620e+00   3.826833000000000e+00 -6.85263020e-01  -4.09063330e-01  -1.52657998e+00
C     1.062264319480000e+01   8.320011161340279e+00   3.755595300000000e+00  3.63138809e+00  -9.66171920e-01   5.47354470e-01
C     1.190214438510000e+01   7.639568925137749e+00   3.751093800000000e+00  7.89441710e-01  -4.98594950e-01  -1.25884925e+00
C     1.322918684720000e+01   8.318212845733191e+00   3.516722700000000e+00 -5.08188087e+00   4.08180210e-01   1.96382471e+00
