2
Lattice="2.507 0 0 1.2535 2.17112568728759 0 0 0 30 " PBC="1 1 1" Properties=species:S:1:pos:R:3:force:R:3 Energy="-16.0932025"
C     0.000000000000000e+00   0.000000000000000e+00   3.000000000000000e+00 -0.00000000e+00   0.00000000e+00  -0.00000000e+00
C     1.253500000000000e+00   7.237085624291959e-01   3.000000000000000e+00  0.00000000e+00  -0.00000000e+00   0.00000000e+00
