26
Lattice="8.88768389401873 1.33226762955019e-15 0 4.44384194700937 7.69696003302603 0 0 0 30 " PBC="1 1 1" Properties=species:S:1:pos:R:3:force:R:3 Energy="-209.23273245"
C     2.381764191623292e-01   2.922412572030520e-01   3.590598900000000e+00  1.40646180e-01   4.06528450e-01  -6.71544170e-01
C     7.075182879515609e+00   7.413261936612646e+00   3.561454500000000e+00 -5.96333100e-02  -6.21615020e-01  -4.28339040e-01
C     3.998484015913792e+00   9.356378430707819e-02   3.552342000000000e+00  2.69278230e-01   3.46581470e-01   4.63329690e-01
C     9.486961043987900e+00   6.828865628158878e+00   3.590883600000000e+00 -7.41747700e-01  -8.97737680e-01   2.44152000e-01
C     1.084373642493476e+01   7.203754302167260e+00   3.627804300000000e+00  6.83785300e-02   1.27783999e+00  -2.95358600e-02
C     1.185264074740476e+01   6.231445293638347e+00   3.636874500000000e+00  1.09379940e+00  -7.07166210e-01  -7.41446800e-01
C     4.352546949365946e+00   6.617441219757221e+00   3.586325700000000e+00 -4.03602710e-01  -5.13929330e-01   2.12955480e-01
C     5.398339203859932e+00   5.620992158516619e+00   3.556851300000000e+00 -1.65629680e+00   8.58758420e-01   8.63710400e-02
C     6.728298887186781e+00   6.027902880185811e+00   3.560867100000000e+00  1.63087537e+00   4.28469200e-02   2.52767520e-01
C     7.778118195700173e+00   5.047507291510180e+00   3.622799400000000e+00 -1.27001637e+00  -8.74380000e-04  -3.36875680e-01
C     9.130809019325840e+00   5.426327187853884e+00   3.632453100000000e+00 -4.24873100e-02   1.34328411e+00  -6.77145300e-02
C     1.012912779921871e+01   4.461409800950581e+00   3.631554600000000e+00  1.53725751e+00  -1.51871295e+00  -8.55884560e-01
C     1.151380277529845e+01   4.841331055304979e+00   3.535216800000000e+00 -6.95417680e-01   7.22862280e-01   1.10830938e+00
C     3.653016101622229e+00   3.885288725133867e+00   3.549450600000000e+00  7.14984420e-01  -1.53390339e+00  -2.79988160e-01
C     5.030401843760174e+00   4.266112063203781e+00   3.556947600000000e+00  2.57546700e-01  -1.11566145e+00  -2.93298700e-01
C     6.072827088083333e+00   3.260520091021943e+00   3.528699600000000e+00 -1.52553992e+00   1.28083120e-01   7.52719330e-01
C     7.411185010550124e+00   3.670144452919311e+00   3.592401600000000e+00  1.33986088e+00  -3.46764430e-01  -9.52374200e-02
C     8.453566216406429e+00   2.675055213607209e+00   3.593325000000000e+00 -6.45653790e-01  -2.09516660e-01  -4.44684960e-01
C     9.813061228622301e+00   3.047900960484429e+00   3.558377100000000e+00 -9.23657900e-02   1.44278190e+00   8.72209860e-01
C     1.950803421066658e+00   2.086436352880984e+00   3.597258600000000e+00  6.30605890e-01  -9.77904350e-01  -1.15952211e+00
C     3.337844742981707e+00   2.465729381357732e+00   3.533025900000000e+00 -9.85992180e-01   9.43760750e-01   7.15151130e-01
C     4.337970300114036e+00   1.472269665453581e+00   3.595020000000000e+00  9.07750890e-01   4.01000720e-01  -4.74096570e-01
C     5.725202884997159e+00   1.868130092516503e+00   3.603130800000000e+00 -5.77443770e-01   8.08275700e-01  -4.13386770e-01
C     6.756159684255293e+00   9.156983293258648e-01   3.609205800000000e+00 -8.13783860e-01  -1.46856852e+00  -9.50238500e-02
C     8.100539812427870e+00   1.292628929860606e+00   3.550170600000000e+00  8.55065740e-01   1.80465440e-01   7.00250320e-01
C     1.605264224176071e+00   6.839039931744133e-01   3.516783600000000e+00  6.39314500e-02   1.00928512e+00   9.78363420e-01
