26
Lattice="8.88768389401873 1.33226762955019e-15 0 4.44384194700937 7.69696003302603 0 0 0 30 " PBC="1 1 1" Properties=species:S:1:pos:R:3:force:R:3 Energy="-207.44912413"
C     1.204723556399601e+01   6.082667135647262e+00  -2.876772000000010e-01  5.50308180e-01   1.04744463e+00  -4.24785710e-01
C     8.197186623003232e+00   5.774365709524014e+00  -2.424540000000022e-01  1.82032296e+00   1.64664293e+00  -1.23200479e+00
C     9.601182756800023e+00   5.409959602350090e+00  -4.453187999999990e-01  3.87228750e-01   1.13636721e+00   1.20228884e+00
C     9.953250044569012e+00   4.017505949985202e+00  -3.715223999999999e-01 -5.39367490e-01   2.85084455e+00  -8.33266010e-01
C     5.826823464956481e+00   5.252308773684423e+00  -3.095447999999976e-01  1.82017001e+00  -1.22153420e-01   5.87026950e-01
C     7.151207814741355e+00   4.795712635629575e+00  -3.156411000000006e-01  1.85637272e+00   9.01096410e-01   7.42614180e-01
C     7.503946300400933e+00   3.408211977043992e+00  -2.742560999999988e-01 -1.58544760e-01   2.48957363e+00  -1.24270930e+00
C     8.856364227242540e+00   3.093971961409597e+00  -4.208910000000010e-01  2.68571298e+00  -1.56574440e+00   1.26917825e+00
C     9.308994236224249e+00   1.742763393000669e+00  -3.471930000000008e-01 -1.18592350e-01  -2.01904770e-01   4.14922170e-01
C     3.542745230569245e+00   4.749272257592565e+00  -3.074784000000008e-01 -2.66863260e+00  -3.38734441e+00  -7.33190200e-02
C     4.874855821678391e+00   4.238824184748622e+00  -3.028881000000005e-01 -2.29748942e+00   2.52392772e+00  -9.91360480e-01
C     5.160450033058519e+00   2.892804675883119e+00  -4.923941999999997e-01  1.16581950e-01   1.49148880e-01   1.51621335e+00
C     6.468709591300652e+00   2.472581215176438e+00  -3.381794999999990e-01  2.28296832e+00  -8.58162610e-01  -2.07000600e-01
C     6.886453041346645e+00   1.132430715303410e+00  -2.900072999999992e-01 -2.69601130e-01  -1.78896776e+00  -8.12335530e-01
C     8.271339099417824e+00   7.411912351640986e-01  -2.812716000000002e-01  7.81914550e-01   3.94469020e-01   2.67559430e-01
C     2.457699541218323e+00   3.726772527252027e+00  -3.519542999999992e-01  6.20763550e-01   8.86949020e-01   2.68106500e-02
C     2.821672281530682e+00   2.375791711890387e+00  -3.117330000000003e-01  7.83584740e-01   4.99309670e-01  -1.62393560e-01
C     4.150467011156430e+00   1.958788659260258e+00  -3.857693999999974e-01  4.93161740e-01  -2.14759609e+00   6.38206200e-02
C     4.508992445549264e+00   5.694370357266620e-01  -3.168804000000023e-01 -9.55464970e-01  -2.23930968e+00  -1.43862840e-01
C     5.870352982063982e+00   9.613287562589160e-02  -3.969435000000026e-01 -1.16505990e-01   3.21129931e+00   5.34323120e-01
C     1.068406198435447e+01   6.476409436279530e+00  -4.518356999999966e-01 -1.75995756e+00  -3.50464481e+00   7.96638490e-01
C     1.857371910376547e+00   1.429110886325363e+00  -2.466977999999997e-01 -4.74996350e+00  -4.32974268e+00  -6.69785100e-02
C     6.548717236060764e+00   7.656669753935762e+00  -1.579239000000001e-01  1.85253500e+00   9.83757500e-01  -5.71384370e-01
C     7.913377458557788e+00   7.218594964740303e+00  -1.930569000000020e-01  1.86768380e-01   4.16650060e-01  -4.19926260e-01
C     4.201076508356040e+00   7.065608339913616e+00  -2.103065999999991e-01 -9.18454530e-01  -3.18480700e-02  -5.54606350e-01
C     5.563722692816455e+00   6.642473504075588e+00  -2.259174000000002e-01 -1.68581954e+00   1.03993817e+00   3.14537280e-01
