32
Lattice="9.86 0 0 4.93 8.53901048131456 0 0 0 30 " PBC="1 1 1" Properties=species:S:1:pos:R:3:force:R:3 Energy="-256.09701261"
C     9.874019293100000e+00   4.972370832332904e-01  -1.515611999999997e-01 -6.77528860e-01   5.19113830e-01   5.04726220e-01
C     1.219530106700000e+00   1.265892164930193e+00  -3.804419999999809e-02  4.57886150e-01  -8.09655470e-01  -8.76697000e-03
C     2.438401269600000e+00   5.129323822262640e-01  -6.732480000000152e-02  7.41993330e-01   2.45933353e+00   4.63018240e-01
C     3.697600522700000e+00   1.226732775209542e+00   5.906610000000000e-02 -1.68781195e+00  -3.49727770e-01  -5.95104820e-01
C     4.909402953000001e+00   5.020299444256096e-01   1.237410000000000e-02 -1.00198979e+00  -7.14318360e-01  -7.45275500e-02
C     6.113758273199999e+00   1.205336149699282e+00  -9.111390000000341e-02  7.92558640e-01   9.21485900e-02   5.60892340e-01
C     7.337354298799998e+00   4.807365555520528e-01  -8.146710000000112e-02  2.43309889e+00   1.21711837e+00  -4.07962210e-01
C     8.666305410400000e+00   1.193247984903374e+00  -1.544030999999997e-01 -3.28246607e+00   1.66179278e+00   3.28432180e-01
C     1.107234773760000e+01   2.694542993015474e+00   1.584396000000000e-01 -5.92518540e-01  -1.53733410e+00   7.96490000e-03
C     2.419767841600000e+00   3.405919246313584e+00   2.866089000000000e-01  1.05430392e+00  -1.95030902e+00  -2.61148570e-01
C     3.631361930100000e+00   2.629868783810268e+00   1.266414000000000e-01  1.84092358e+00   1.88366944e+00   5.52143420e-01
C     4.930068477700000e+00   3.357453274460886e+00   8.624849999999999e-02 -2.48500868e+00  -1.13514507e+00   1.22772390e-01
C     6.103582555999999e+00   2.629517061968597e+00  -7.576080000000118e-02  1.61801418e+00   5.25296950e-01  -1.36118660e-01
C     7.344723514899999e+00   3.370121750409013e+00  -1.362633000000031e-01  1.32646177e+00  -1.19715770e-01   1.90245420e-01
C     8.610671543600001e+00   2.695641451323620e+00  -9.593489999999960e-02 -4.98577300e-01  -3.06050257e+00   1.61461170e-01
C     9.823573807599999e+00   3.358235874771378e+00   1.497210000000000e-01  2.44643000e-01   1.59794993e+00  -7.03788790e-01
C     1.232686255400000e+01   4.810243885173127e+00   4.070193000000000e-01 -1.14578377e+00  -1.24345679e+00  -5.80863260e-01
C     3.657724414900000e+00   5.435305173446148e+00   1.961973000000000e-01  3.09872711e+00   3.20633416e+00  -2.04577490e-01
C     4.911694712799999e+00   4.759564345633697e+00   1.355970000000000e-01  8.98043320e-01   8.04738290e-01  -1.02247120e+00
C     6.146347693100000e+00   5.493979276157372e+00  -9.886470000000003e-02  7.41350720e-01   5.28530990e-01   3.35437850e-01
C     7.434467065700000e+00   4.805917253953015e+00  -1.483926000000011e-01 -3.34638246e+00  -1.32844368e+00   1.12462930e-01
C     8.639126566899998e+00   5.497928739284581e+00  -9.238050000000086e-02  7.22015850e-01   2.34614900e-02   7.76181110e-01
C     9.856688025999999e+00   4.794623131741644e+00   1.668390000000000e-01  7.57233290e-01   9.44815600e-02   2.36530840e-01
C     1.112499126360000e+01   5.512246012766293e+00   3.621669000000000e-01 -3.43554614e+00   6.00557940e-01  -9.43101420e-01
C     1.357397946170000e+01   6.885611871399862e+00  -5.555699999998609e-03 -3.65812623e+00  -5.52333280e-01   1.14150032e+00
C     4.890996600799999e+00   7.596486970172901e+00  -9.723840000000195e-02  2.16885878e+00   1.02003431e+00  -5.85186420e-01
C     6.159980474199999e+00   6.938026452478722e+00  -1.527770999999980e-01 -7.49433770e-01  -1.11184719e+00   1.97479380e-01
C     7.378660895399999e+00   7.685999367672226e+00  -1.679163000000017e-01  1.93671000e-03  -3.25207864e+00   2.46603210e-01
C     8.614767732699999e+00   6.908015331635819e+00  -7.118939999999796e-02 -2.67208286e+00   2.29895300e-01  -3.25880870e-01
C     9.773665938600001e+00   7.581913440986685e+00   5.577720000000000e-02  3.05909942e+00   2.95883578e+00   1.56237190e-01
C     1.102168602230000e+01   6.942470751263247e+00   1.998057000000000e-01  1.56174564e+00  -1.82543385e+00   3.29824000e-03
C     1.225969376900000e+01   7.622963709188028e+00   6.005129999999999e-02  1.71436216e+00  -4.32991710e-01  -2.47889130e-01
