32
Lattice="9.86 0 0 4.93 8.53901048131456 0 0 0 30 " PBC="1 1 1" Properties=species:S:1:pos:R:3:force:R:3 Energy="-252.66721729"
C     1.146326360800000e+00   7.996375149819056e-01   3.524255700000000e+00 -1.54206730e+00   7.10211360e-01  -1.24641980e-01
C     2.278423755600000e+00   1.550139172738957e+00   3.712094100000000e+00  2.43204737e+00   1.55376333e+00   1.39843617e+00
C     3.529677672800000e+00   8.321398921323488e-01   3.686763000000000e+00 -1.45565524e+00   8.46919340e-01   6.70151900e-02
C     4.784684651099999e+00   1.403889917836006e+00   3.750692400000000e+00  2.13912440e+00   4.18379148e+00  -3.73998550e-01
C     5.993255417100000e+00   7.249002527062296e-01   3.566189700000000e+00  3.93093074e+00   2.77569613e+00  -1.05687690e-01
C     7.319784863400000e+00   1.455898895917066e+00   3.446456100000000e+00 -2.44837277e+00   3.22940314e+00  -4.28334670e-01
C     8.595348906400000e+00   8.561683260626496e-01   3.354317100000000e+00 -2.72317316e+00  -5.06248290e-01   7.48953930e-01
C     9.798415179499999e+00   1.541979379714373e+00   3.543903300000000e+00 -9.22903800e-01   1.39553490e-01  -5.30386270e-01
C     2.258245660000000e+00   3.013643765290558e+00   4.109815200000000e+00  1.33402192e+00  -4.17161799e+00  -1.01577079e+00
C     3.545040883900000e+00   3.601335781999956e+00   4.117002000000000e+00  2.24680764e+00   1.00933142e+00  -1.70440186e+00
C     4.914761567199999e+00   2.869635744468293e+00   3.818625000000000e+00 -6.40510523e+00  -8.01453800e-01   1.47346329e+00
C     6.031204338599999e+00   3.614813841531693e+00   3.652874100000000e+00  2.96282866e+00  -4.70550730e-01  -1.56885242e+00
C     7.269851161200000e+00   2.921252184237587e+00   3.389435700000000e+00  1.13858209e+00  -9.63556840e-01   1.31580519e+00
C     8.533541545700000e+00   3.672568036643906e+00   3.509231700000000e+00 -1.88994377e+00   1.34143560e-01  -1.81322190e-01
C     9.701427190900000e+00   2.939346091274393e+00   3.714964800000000e+00  2.26788436e+00   8.99621550e-01   1.15386870e+00
C     1.089397235100000e+01   3.669369579488413e+00   4.185056400000000e+00 -7.12890160e-01   1.96672940e-01  -1.23495754e+00
C     3.543929908400000e+00   5.023841425803200e+00   3.926881500000000e+00  2.23570801e+00   1.58642400e+00   7.02281510e-01
C     4.871076738600000e+00   5.779934086062136e+00   3.724697100000000e+00 -2.46684560e+00  -1.14512325e+00  -3.51016410e-01
C     6.113581582000000e+00   5.004247983136002e+00   3.510585000000000e+00 -2.92066974e+00   2.77838495e+00   1.01426343e+00
C     7.311401250499999e+00   5.737927704857348e+00   3.376744200000000e+00 -6.87715440e-01   2.40803316e+00  -4.52085920e-01
C     8.536346469200000e+00   5.136223001170061e+00   3.509758500000000e+00  2.53263446e+00  -2.48527215e+00   1.77030538e+00
C     9.773245360299999e+00   5.844320189053746e+00   3.898621200000000e+00 -2.90004007e+00   9.85366940e-01  -2.57962774e+00
C     1.091181485910000e+01   5.091299523205095e+00   4.255865100000000e+00  1.29319957e+00   1.99705249e+00  -2.15954590e+00
C     1.219644053790000e+01   5.826809069482201e+00   3.983403300000000e+00  2.25219900e-01  -2.34813375e+00   1.10533629e+00
C     4.728166490200000e+00   7.211356079218492e+00   3.637867500000000e+00  3.11554923e+00   1.00584991e+00  -2.33116305e+00
C     6.021444121799999e+00   7.941777570710984e+00   3.345366600000000e+00  3.22472460e-01  -2.70176783e+00   1.35445343e+00
C     7.291660445900000e+00   7.189405784268708e+00   3.296209800000000e+00 -1.72386027e+00   1.40251688e+00   1.55397409e+00
C     8.470462836599999e+00   8.002749691922586e+00   3.558335100000000e+00  3.20621670e-01  -3.44821358e+00  -2.04918563e+00
C     9.745385930299999e+00   7.323819714476065e+00   3.510747600000000e+00 -1.21994490e-01  -4.21722529e+00   3.05782007e+00
C     1.100862438170000e+01   7.907203544227988e+00   3.612727800000000e+00 -2.09097089e+00  -5.89629130e-01  -7.01968500e-02
C     1.221319982640000e+01   7.214350197853198e+00   3.758144100000000e+00  3.75306470e-01   1.24231676e+00  -1.15591313e+00
C     1.338673288520000e+01   8.023836607522735e+00   3.490663800000000e+00  2.13926897e+00  -5.23626017e+00   1.70111190e+00
