32
Lattice="9.876 0 0 4.938 8.55286688777512 0 0 0 30 " PBC="1 1 1" Properties=species:S:1:pos:R:3:force:R:3 Energy="-258.08244163"
C    -2.985057407040216e-04   1.656653747664671e-04   3.000236017913751e+00 -1.30973000e-02  -4.70495700e-02  -1.36693100e-02
C     1.234376201621274e+00   7.126327892634925e-01   2.999534966313754e+00 -2.24810800e-02   3.88920000e-04   1.63342200e-02
C     2.468539129944797e+00  -5.064919907870978e-04   3.000075977206791e+00  2.62991000e-02   6.08023300e-02  -1.50317000e-03
C     3.703243772171329e+00   7.132790019835176e-01   3.000118739140469e+00  3.23590000e-03  -6.57118400e-02  -2.05583000e-03
C     4.938202643379204e+00  -8.205698345939021e-04   2.998837785400868e+00 -5.81785000e-02   4.39758500e-02   1.63175700e-02
C     6.171780883795330e+00   7.115601460675032e-01   3.000332511197759e+00  2.33781500e-02   4.04058600e-02  -1.01976300e-02
C     7.406319646654084e+00  -2.510729302266039e-04   3.000295047471279e+00  1.48279100e-02  -4.33382300e-02  -3.45241000e-03
C     8.640270310840167e+00   7.115924764674671e-01   2.999695793405170e+00  5.09138600e-02   5.90808100e-02   2.26984000e-03
C     1.233799901307727e+00   2.137981785440945e+00   3.000903639515753e+00  1.34156500e-02   3.94021300e-02  -1.16733900e-02
C     2.468396881124495e+00   2.851206071975178e+00   2.999325719410561e+00  1.12524700e-02  -1.67747600e-02   1.66769200e-02
C     3.702774331142286e+00   2.137416568266078e+00   3.000959451736418e+00  2.68475000e-02   6.57645500e-02  -2.48145300e-02
C     4.938423636689743e+00   2.850649029745545e+00   2.998809912333729e+00 -3.45473500e-02  -8.57010000e-04   2.50779100e-02
C     6.172135916104263e+00   2.137737792144453e+00   2.999810732510645e+00  9.96734000e-03  -1.12778400e-02  -1.62001000e-03
C     7.406738548179195e+00   2.851126023814146e+00   3.000185614159130e+00  7.26085000e-03  -5.45784000e-02  -8.46485000e-03
C     8.641804385243509e+00   2.137598895472502e+00   2.999088804349068e+00 -4.03819800e-02   2.85692700e-02   2.08509100e-02
C     9.875370585634524e+00   2.852163785158601e+00   3.001128232495755e+00  1.35573900e-02  -6.61351300e-02  -2.40533600e-02
C     2.469522382164988e+00   4.277094176863868e+00   2.998980171987171e+00  8.94204000e-03  -3.64444200e-02   3.80894000e-03
C     3.704494542447743e+00   4.989264942360473e+00   2.999009793793057e+00 -2.94729400e-02  -4.65270000e-03   6.69903000e-03
C     4.938771795941256e+00   4.276507645760956e+00   3.000481629942241e+00 -3.48498300e-02  -3.44878000e-03  -2.51919000e-02
C     6.172084891098332e+00   4.990321806899317e+00   2.999383041152791e+00  5.73374400e-02  -9.83601000e-02   1.64375300e-02
C     7.406361473336796e+00   4.275438358054000e+00   3.000276965702248e+00  2.42040300e-02   6.54408800e-02   8.22960000e-04
C     8.641544039214788e+00   4.989086739875904e+00   3.000849924134725e+00 -4.10083800e-02  -1.84286700e-02  -1.73846100e-02
C     9.875851600692860e+00   4.277282214137799e+00   2.998925638453469e+00  2.61675800e-02  -2.26328400e-02   2.69694000e-02
C     1.111134929188302e+01   4.988749552275006e+00   2.999832148633495e+00 -4.55491200e-02   7.79439400e-02  -5.98568000e-03
C     3.702914216103838e+00   6.415022220642086e+00   2.998958734160321e+00  6.09492900e-02  -5.72919800e-02   1.32077000e-03
C     4.937031018161615e+00   7.126859630159502e+00   2.998878091193863e+00  8.66248200e-02   2.08066900e-02   1.39909300e-02
C     6.173637758511590e+00   6.413455575111129e+00   3.000255545880466e+00 -7.97725600e-02   1.21411370e-01  -1.07072300e-02
C     7.407427892942013e+00   7.128479657685607e+00   3.000518596805906e+00 -1.76922500e-02  -9.69057800e-02  -6.06248000e-03
C     8.641069308109794e+00   6.413666411633717e+00   2.999931842301871e+00  1.54458100e-02   6.46077800e-02   6.98247000e-03
C     9.875523485398485e+00   7.127530348387134e+00   2.999581171459900e+00  2.48957000e-03  -3.51019700e-02   2.38224000e-03
C     1.111006658009566e+01   6.415833969519460e+00   3.000733053557722e+00  4.23433200e-02  -8.49552600e-02  -1.27481700e-02
C     1.234620641532804e+01   7.126350636291020e+00   2.999898364992231e+00 -1.08428740e-01   7.53449200e-02   2.64293000e-03
