32
Lattice="9.86 0 0 4.93 8.53901048131456 0 0 0 30 " PBC="1 1 1" Properties=species:S:1:pos:R:3:force:R:3 Energy="-252.62514808"
C     9.621441737000000e+00   1.032042909315018e+00   3.173130900000000e+00 -2.22662091e+00   6.95519640e-01  -4.39380450e-01
C     1.081431109390000e+01   1.743444523474254e+00   3.277977300000000e+00  3.40280189e+00  -2.37949249e+00   6.47061540e-01
C     2.278139935500000e+00   1.005960416413753e+00   3.511521900000000e+00 -1.99483233e+00  -7.21143940e-01  -3.48341541e+00
C     3.499653824900000e+00   1.773560247195537e+00   3.367226400000000e+00  2.54669660e-01  -2.46784840e+00   1.78673450e-01
C     4.791485635400000e+00   1.092769790145633e+00   3.233024700000000e+00 -1.76365297e+00   1.16741899e+00  -4.95293290e-01
C     6.034118806700000e+00   1.791589684703218e+00   3.250805100000000e+00 -1.14450912e+00  -4.20000100e-02   6.06024250e-01
C     7.212810716100000e+00   1.078085509993492e+00   3.376185000000000e+00  1.36750841e+00  -9.43761950e-01  -2.52237822e+00
C     8.391154025199999e+00   1.854959303887290e+00   3.101478600000000e+00  1.22563860e+00  -1.97624168e+00   1.95650337e+00
C     1.089905739950000e+01   3.103781474527334e+00   3.167426100000000e+00 -2.33904984e+00   3.53931796e+00  -7.18140500e-02
C     2.265070702700000e+00   3.801524514473286e+00   3.282178500000000e+00 -7.19464330e-01   3.73701220e-01  -2.81489760e-01
C     3.503109853500000e+00   3.164005066080259e+00   3.305959200000000e+00  5.43520190e-01  -1.91090469e+00   2.46798760e-01
C     4.769782937300000e+00   3.765049789647546e+00   3.267390900000000e+00 -9.48479620e-01   4.33359258e+00  -1.91425990e-01
C     6.059481832600000e+00   3.205439333582886e+00   3.270052200000000e+00 -1.33269467e+00   7.85134930e-01   6.37236810e-01
C     7.211955114599999e+00   4.071662686046155e+00   3.367836000000000e+00 -2.48237020e-01  -3.29803935e+00  -9.18921920e-01
C     8.422790919800001e+00   3.296358106108267e+00   3.175591200000000e+00 -1.58811926e+00  -1.41965208e+00  -2.09831420e-01
C     9.606737173900001e+00   3.955289208669999e+00   3.048424200000000e+00  2.53939479e+00  -7.84866530e-01   1.10495124e+00
C     1.208133662340000e+01   5.182433905745095e+00   3.266777100000000e+00 -6.94311460e-01   4.57628204e+00  -1.13263176e+00
C     1.329119939450000e+01   6.009194648225568e+00   3.153711600000000e+00  5.05108110e-01  -6.48327285e+00   1.21048481e+00
C     4.656933068100000e+00   5.215934578610756e+00   3.243535500000000e+00  1.60858123e+00   2.16655673e+00   1.16380351e+00
C     5.839305222500000e+00   6.070222785345919e+00   3.525513300000000e+00  5.86488880e-01  -3.48635637e+00  -2.45778474e+00
C     7.162516187200000e+00   5.461979761334096e+00   3.449031000000000e+00 -1.19672266e+00  -7.19828160e-01   1.21500236e+00
C     8.419937386499999e+00   6.132924397740140e+00   3.475664700000000e+00 -1.10761350e+00  -1.54816019e+00  -1.55975638e+00
C     9.527030067799998e+00   5.373401873141702e+00   3.177788400000000e+00  5.41538903e+00  -1.55738830e+00   5.75638860e-01
C     1.086865280770000e+01   5.963144789388187e+00   3.211232100000000e+00 -2.00183102e+00   2.45870858e+00  -4.11762900e-01
C     1.333445743300000e+01   7.333308860652175e+00   3.281331900000000e+00 -2.16109848e+00   5.81231110e+00  -8.33110800e-01
C     1.450481862840000e+01   8.124759513946275e+00   3.205090500000000e+00  1.99806040e-01   1.29995988e+00   4.73372300e-01
C     5.830510743400001e+00   7.423076062224222e+00   3.290127600000000e+00  2.74428454e+00   9.65315440e-01   4.13962550e-01
C     7.146641932300000e+00   8.041916681362563e+00   3.217224600000000e+00  5.68405350e-01   5.12011932e+00   2.67185043e+00
C     8.462373939100001e+00   7.488787931982958e+00   3.324269700000000e+00 -1.92572618e+00   1.63165446e+00  -1.36776809e+00
C     9.667520376399999e+00   8.248777198894231e+00   3.032176200000000e+00 -1.95483021e+00  -8.10886110e-01   2.44710034e+00
C     1.080745045660000e+01   7.520251196948090e+00   3.157368300000000e+00  5.52272828e+00  -3.65325297e+00   1.84696630e-01
C     1.212189716310000e+01   8.169167064898039e+00   3.253043100000000e+00 -1.13653142e+00  -7.22496800e-01   6.43603990e-01
