32
Lattice="9.86 0 0 4.93 8.53901048131456 0 0 0 30 " PBC="1 1 1" Properties=species:S:1:pos:R:3:force:R:3 Energy="-256.8334355"
C     9.757033104600000e+00   1.504162920171912e+00   3.411114600000000e+00  1.08864837e+00  -6.32598210e-01   4.42427640e-01
C     1.101745277920000e+01   2.162692262290560e+00   3.409098000000000e+00  1.62150150e-01   2.43607074e+00  -5.23338300e-02
C     2.425404064100000e+00   1.478494398498718e+00   3.489436800000000e+00 -2.52788238e+00  -1.88589460e-01   1.09334560e-01
C     3.597564413700000e+00   2.207411999465473e+00   3.427779000000000e+00  1.35580013e+00   1.81448149e+00  -7.74593050e-01
C     4.838456456899999e+00   1.560903022399521e+00   3.332521200000000e+00  1.75282818e+00  -1.73982667e+00   9.66790890e-01
C     6.128742909600000e+00   2.191268573202509e+00   3.413282100000000e+00 -1.16926958e+00   9.66766040e-01  -7.39357630e-01
C     7.349919636299999e+00   1.491312990251084e+00   3.375085200000000e+00 -1.01531541e+00   5.38958490e-01   3.69370290e-01
C     8.530929286599999e+00   2.234061141102190e+00   3.420351900000000e+00  1.79527768e+00   8.45737700e-02   2.29662170e-01
C     1.101527830410000e+01   3.636223958678511e+00   3.295306800000000e+00  1.02825446e+00  -8.37218670e-01   4.28680040e-01
C     1.229591004200000e+01   4.342406188071952e+00   3.200588100000000e+00 -2.59502074e+00   8.13141800e-02   9.63687000e-03
C     3.626479751100000e+00   3.648498273902882e+00   3.286155300000000e+00  1.43355934e+00  -1.31935420e+00   3.03476230e-01
C     4.912114403700000e+00   4.312954543195699e+00   3.310971300000000e+00 -5.62866650e-01  -2.97462020e-01   3.30881970e-01
C     6.151573739600000e+00   3.605128725065067e+00   3.405068400000000e+00 -6.69935260e-01   5.27816900e-01  -3.88653200e-02
C     7.354154604900000e+00   4.359952232196361e+00   3.441531600000000e+00 -6.26244410e-01   7.71147610e-01   7.19889530e-01
C     8.582410860900000e+00   3.662243177512119e+00   3.504798300000000e+00 -6.66747670e-01  -3.05900600e-01  -8.79626670e-01
C     9.793886875899998e+00   4.382210358473948e+00   3.393627300000000e+00  1.03228371e+00  -1.27018025e+00  -4.97177330e-01
C     1.226521556620000e+01   5.758480334571765e+00   3.104712300000000e+00 -2.59642750e-01   5.82378420e-01   4.56802740e-01
C     1.348519055610000e+01   6.456395435578889e+00   3.206139900000000e+00  1.06353349e+00  -8.83397400e-02   6.20680830e-01
C     4.913674551500000e+00   5.713485299698977e+00   3.365910300000000e+00 -2.79850883e+00   2.07522126e+00  -8.43185760e-01
C     6.058216005799999e+00   6.507988563849572e+00   3.471968100000000e+00  2.03956587e+00  -9.87769150e-01   3.95039250e-01
C     7.300423915300000e+00   5.806966116928777e+00   3.503460300000000e+00  1.59175065e+00  -7.50213740e-01  -7.56086860e-01
C     8.585087900200000e+00   6.494881011982563e+00   3.391476900000000e+00 -1.59151264e+00   3.50523450e-01   5.63289900e-01
C     9.797521567699999e+00   5.787499563957311e+00   3.275031000000000e+00  5.44661700e-02   1.72303770e-01   1.19264320e-01
C     1.102075242820000e+01   6.499443917622656e+00   3.137877600000000e+00  4.41410920e-01  -7.37785300e-01   2.36214350e-01
C     1.345636312060000e+01   7.888335490501065e+00   3.314292300000000e+00  2.61844198e+00  -4.76675800e-02   2.17888230e-01
C     9.810332616400000e+00   7.371112938629441e-02   3.455641200000000e+00 -2.26394892e+00   1.68352780e-01  -3.94778500e-01
C     6.102897976200000e+00   7.923003019148817e+00   3.540586800000000e+00 -1.15757955e+00  -5.38296390e-01  -1.64532570e-01
C     2.396333382400000e+00   5.763678371811360e-02   3.591692100000000e+00  1.24740640e+00   7.30180900e-01  -8.43097300e-01
C     8.567978532400000e+00   7.918924446183151e+00   3.446321100000000e+00  8.18432770e-01   2.05048280e-01  -1.32506490e-01
C     4.878092966699999e+00   1.393107965473224e-01   3.323771400000000e+00 -1.12555269e+00  -1.75640241e+00  -3.60850000e-02
C     1.102143636710000e+01   7.905347163349636e+00   3.210524700000000e+00  2.92516580e-01   1.79139744e+00   3.82641240e-01
C     7.340527739800000e+00   9.615250282878240e-02   3.319434000000000e+00 -7.86299350e-01  -1.79893113e+00  -7.49744730e-01
