32
Lattice="9.86 0 0 4.93 8.53901048131456 0 0 0 30 " PBC="1 1 1" Properties=species:S:1:pos:R:3:force:R:3 Energy="-257.55992809"
C     9.809624914899999e+00   2.505872531778616e-01   3.758644200000000e+00  1.37019249e+00  -9.02164210e-01   3.35896400e-02
C     1.224415638100000e+00   9.381014124698216e-01   3.739048200000000e+00 -5.43308040e-01   7.06497670e-01   7.61972600e-02
C     2.455008319700000e+00   2.172133846178296e-01   3.808984500000000e+00 -6.02589270e-01   6.29255000e-03   1.87278830e-01
C     3.687690483200000e+00   9.206762807338096e-01   3.823257600000000e+00 -5.62261810e-01   8.78928700e-01  -2.85597620e-01
C     4.916312841000000e+00   2.548372040838624e-01   3.835377900000000e+00  7.11886430e-01  -1.51625155e+00   1.36085790e-01
C     6.172712544299999e+00   9.380462504621208e-01   3.834123300000000e+00 -1.63882337e+00   3.43689650e-01  -2.16301360e-01
C     7.372304794300000e+00   2.097704415230424e-01   3.833560799999999e+00  3.75670360e-01   1.80564580e-01  -3.53077650e-01
C     8.573613275900000e+00   9.423985841037767e-01   3.735438900000000e+00  1.42024515e+00  -1.09659200e-02   5.22469030e-01
C     1.111699608540000e+01   2.391566092669354e+00   3.707169600000000e+00 -2.17455901e+00  -1.85036248e+00   1.11472850e-01
C     2.461593172800000e+00   3.068769567586923e+00   3.739610700000000e+00  2.05061320e-01   6.96877270e-01   1.23282560e-01
C     3.670958358999999e+00   2.337770497425563e+00   3.772680600000000e+00  8.35888110e-01   8.25888710e-01   2.02194050e-01
C     4.901639139700000e+00   3.072142903677047e+00   3.808543200000000e+00  2.07266370e-01   2.47290000e-04  -7.02877100e-02
C     6.139390477099999e+00   2.371891956353119e+00   3.791965800000000e+00  3.08936850e-01  -8.18403940e-01   3.99822020e-01
C     7.368867598300000e+00   3.060606358958148e+00   3.804686100000000e+00  6.09156760e-01   1.33318093e+00  -1.88595400e-02
C     8.624995017700000e+00   2.353988896200542e+00   3.753688800000000e+00 -8.47928020e-01   9.49470770e-01  -1.46933100e-01
C     9.857155389999999e+00   3.088140654421223e+00   3.719800500000000e+00  3.39737670e-01  -3.06663830e-01  -3.07318800e-02
C     1.228600503110000e+01   4.489352055449862e+00   3.782990400000000e+00  1.57712931e+00   6.93268730e-01  -2.17606560e-01
C     3.682157544200000e+00   5.204660096123488e+00   3.784400700000000e+00 -3.52760540e-01  -7.75502060e-01   5.15815890e-01
C     4.913868448400000e+00   4.502571382964055e+00   3.839688300000000e+00  2.66303900e-02  -2.03083400e-02  -4.54145880e-01
C     6.145325506899999e+00   5.254625005875845e+00   3.844591800000000e+00 -1.35959340e-01  -2.46267353e+00   1.68469300e-01
C     7.365451897100000e+00   4.506888962833057e+00   3.853215600000000e+00  6.97299860e-01  -4.36810360e-01  -5.16789800e-01
C     8.627632469100000e+00   5.198683386518222e+00   3.798033600000000e+00 -1.15230366e+00   1.95174010e-01   4.16199920e-01
C     9.860432607500000e+00   4.517157122935257e+00   3.737131500000000e+00 -5.48241130e-01  -8.59660780e-01   3.22853540e-01
C     1.107828907780000e+01   5.230127524099878e+00   3.792073200000000e+00  7.27432800e-02  -1.04028305e+00  -3.74723520e-01
C     1.357106647260000e+01   6.609638140064960e+00   3.822138000000000e+00 -1.06649442e+00   8.67817130e-01  -7.95470400e-02
C     4.909286112000000e+00   7.346440834089157e+00   3.827951099999999e+00  2.88708400e-01   7.42892830e-01  -3.28414440e-01
C     6.144992189600000e+00   6.643546038340411e+00   3.832512300000000e+00 -6.21349540e-01   8.15716500e-01   3.58517310e-01
C     7.356222246900000e+00   7.341046655778836e+00   3.884983200000000e+00  1.35912181e+00  -1.01350740e-01  -4.45767510e-01
C     8.596268844399999e+00   6.610921382559894e+00   3.874026600000000e+00  5.54141340e-01   1.27797755e+00  -3.53765570e-01
C     9.832447215999998e+00   7.358251310264254e+00   3.832319700000000e+00  4.16248350e-01  -5.94099680e-01   1.02930330e-01
C     1.108394659790000e+01   6.628000684371466e+00   3.800155500000000e+00 -8.83758700e-02   1.40233512e+00   3.73427960e-01
C     1.233979774010000e+01   7.330085298805869e+00   3.833772000000000e+00 -1.04111023e+00  -2.21319520e-01  -1.58057080e-01
