32
Lattice="9.86 0 0 4.93 8.53901048131456 0 0 0 30 " PBC="1 1 1" Properties=species:S:1:pos:R:3:force:R:3 Energy="-251.94289455"
C     4.928139911000000e+00   8.269541169118028e+00   9.278760000000000e-02  3.53228774e+00   1.49361183e+00   4.55872810e-01
C     1.322000008800000e+00   5.548071772795552e-01   2.057892000000000e-01 -2.21275933e+00  -3.05104745e+00  -6.80263470e-01
C     7.441856938499999e+00   8.295655427138279e+00   1.960773000000000e-01 -1.79557951e+00  -1.90106690e-01  -5.90702700e-01
C     3.689874916900000e+00   3.977068894190392e-01  -1.606494000000005e-01  2.68056387e+00   7.48024970e-01   2.42341851e+00
C     9.884083641600000e+00   8.244513841741778e+00   7.595100000000000e-03  1.50108040e-01  -8.09794290e-01  -1.30090224e+00
C     6.177350934800000e+00   3.829628361935376e-01   6.929850000000000e-02  6.04308130e-01   1.39206447e+00  -1.46867418e+00
C     1.237986217390000e+01   8.176794109058775e+00  -1.281329999999983e-01 -8.62031480e-01   2.63662619e+00   1.61183782e+00
C     8.661018774199999e+00   3.874950013959024e-01   5.626170000000000e-02 -7.50228210e-01   2.68151447e+00   4.10171590e-01
C     1.302669873200000e+00   1.932866503023456e+00  -6.041250000000176e-02  7.88656960e-01  -3.18860650e-01  -6.88732130e-01
C     2.557916597400000e+00   2.616530422489984e+00  -2.917524000000000e-01 -1.79784488e+00  -4.99670840e-01  -1.33438018e+00
C     3.739017354100000e+00   1.797930241545038e+00  -2.326665000000006e-01  9.56351800e-01   3.80964160e+00  -8.77506420e-01
C     5.037184461100000e+00   2.627494084995780e+00  -2.534163000000014e-01 -2.43636450e+00  -3.83961540e+00   2.80090100e-02
C     6.162232301000000e+00   1.878240915961010e+00   2.656200000000000e-03  4.21162043e+00  -1.43612712e+00   1.75240303e+00
C     7.492664039500000e+00   2.586565070743254e+00   2.752509000000000e-01 -2.22094092e+00   1.23588976e+00  -2.46090746e+00
C     8.747198822400000e+00   1.945278808657184e+00   1.977810000000000e-01 -3.00522071e+00  -4.10551686e+00  -9.76015880e-01
C     9.895625116699998e+00   2.587060333351094e+00  -1.841781000000005e-01  1.84490371e+00   2.26017366e+00   1.52565084e+00
C     2.495240176300000e+00   4.040117788140835e+00  -7.696689000000028e-01 -1.82718379e+00  -3.09190344e+00   1.71252326e+00
C     3.712962057600000e+00   4.603351175571948e+00  -6.718890000000002e-01  4.67583821e+00   5.90599974e+00   1.48613836e+00
C     5.017147560700000e+00   4.005310390501420e+00  -3.719706000000009e-01 -3.30086844e+00  -5.34070820e-01   2.56980550e-01
C     6.131690753800000e+00   4.697813466666320e+00   7.337489999999999e-02  2.89290768e+00  -2.81006700e-01  -1.67026583e+00
C     7.430462475999999e+00   4.034934523389369e+00   8.347410000000000e-02  2.89428520e-01  -1.04752924e+00   1.50878289e+00
C     8.660034894099999e+00   4.799929016683601e+00  -1.849799999999746e-02  7.25664980e-01  -4.30431967e+00  -9.78620180e-01
C     9.922356513400000e+00   4.036931285600013e+00  -2.754447000000013e-01 -1.43494395e+00   6.04389270e-01  -1.01084474e+00
C     1.107518500190000e+01   4.760513798208969e+00  -7.449534000000000e-01  7.12695850e-01  -1.98769940e-01   1.01717440e+00
C     3.792737887900000e+00   6.152120605639809e+00  -4.056864000000004e-01 -1.37051715e+00  -2.62647985e+00  -6.79873470e-01
C     4.967552894600000e+00   6.880519974060532e+00  -4.478910000000269e-02  8.42130890e-01  -2.83700602e+00  -6.62779200e-01
C     6.203274205900000e+00   6.064589087791634e+00   5.210070000000000e-02  1.01865320e-01   5.26040071e+00   1.60778699e+00
C     7.444973832399999e+00   6.874920944888796e+00   2.878446000000000e-01 -9.33363200e-02  -2.18201629e+00  -2.32791480e+00
C     8.715781115599999e+00   6.155636030864319e+00  -5.994719999999987e-02 -3.22031622e+00   1.37512951e+00   1.67809605e+00
C     9.925902958200000e+00   6.785827300463411e+00  -1.869627000000023e-01 -5.27129300e-02   4.27764985e+00  -6.99514900e-01
C     1.108691292960000e+01   6.242117591983873e+00  -7.040400000000027e-01  1.65533359e+00  -4.42213289e+00   2.09153724e+00
C     1.238836800150000e+01   6.783045888579761e+00  -3.798908999999995e-01 -2.83817370e-01   2.09485815e+00  -1.15848558e+00
