26
Lattice="8.88768389401873 1.33226762955019e-15 0 4.44384194700937 7.69696003302603 0 0 0 30 " PBC="1 1 1" Properties=species:S:1:pos:R:3:force:R:3 Energy="-208.17792034"
C     4.053180691957609e-01   4.667312641135517e-01   3.232015800000000e+00 -8.29693580e-01   2.44199836e+00   1.32282505e+00
C     7.215936507250763e+00   7.578125432583224e+00   3.321360600000000e+00 -7.50883000e-01  -5.44938310e-01   9.78670270e-01
C     4.125524569525603e+00   2.292641144807896e-01   3.409070100000000e+00 -1.09233511e+00   2.95428445e+00  -8.20131000e-02
C     9.560554532896973e+00   6.987660840841805e+00   3.474485700000000e+00  1.31798785e+00  -4.04946373e+00   7.40436280e-01
C     1.092863998038276e+01   7.310654532148719e+00   3.461778000000000e+00  2.39459042e+00   1.13298451e+00  -6.40315880e-01
C     1.206801576900879e+01   6.369628586148136e+00   3.401499300000000e+00 -3.24087381e+00   2.90901650e-01   5.74971000e-02
C     4.513211699782875e+00   6.820155671219330e+00   3.326241000000000e+00 -2.56699570e-01  -2.32520454e+00  -8.91179980e-01
C     5.491993750643461e+00   5.764464648019824e+00   3.234438300000000e+00  1.01436425e+00   1.51320319e+00   5.79113130e-01
C     6.857458086900205e+00   6.188100171107803e+00   3.369984000000000e+00 -7.80613700e-02  -1.28617620e+00  -1.64829990e-01
C     7.835967641369917e+00   5.128090229696263e+00   3.539830800000000e+00  1.78420629e+00   1.25411994e+00  -7.77422990e-01
C     9.261069936298306e+00   5.531165479212906e+00   3.598723500000000e+00 -9.80325590e-01   1.59114183e+00  -1.24280252e+00
C     1.034075039624645e+01   4.600322688301614e+00   3.446499300000000e+00 -2.26847685e+00  -1.22752310e-01   1.23718729e+00
C     1.169749795874088e+01   4.972363487098896e+00   3.377261700000000e+00 -7.14399000e-03   2.15690904e+00  -2.32893290e-01
C     3.813426086542785e+00   4.030022207598786e+00   3.241590900000000e+00 -5.12453520e-01  -1.27123641e+00   5.58617330e-01
C     5.142557393265898e+00   4.395724097993762e+00   3.183573000000000e+00  1.39885147e+00   1.30046550e-01   4.33592060e-01
C     6.138697179660622e+00   3.371021189814236e+00   3.251913300000000e+00  1.07745498e+00   6.42588020e-01   3.98341460e-01
C     7.500877650001888e+00   3.743268036231521e+00   3.406787700000000e+00  7.02853690e-01   1.42447949e+00   8.49594000e-03
C     8.585123979789264e+00   2.803846983366793e+00   3.388335600000000e+00 -1.31280764e+00   8.25909710e-01   3.27019310e-01
C     9.942493991256779e+00   3.224907796355138e+00   3.492411300000000e+00  7.45761180e-01   1.62340920e-01  -1.38953245e+00
C     2.101693141230198e+00   2.283283257773022e+00   3.355054500000000e+00 -2.93964550e-01  -4.89406320e-01   9.37379010e-01
C     3.472609849334555e+00   2.665653607839365e+00   3.364328400000000e+00 -9.94819430e-01  -4.99586000e-01  -6.17841320e-01
C     4.433006481824922e+00   1.659210813695811e+00   3.386403000000000e+00  1.75896972e+00  -1.69077563e+00  -1.96115830e-01
C     5.828069071744006e+00   2.004717651272873e+00   3.343366500000000e+00 -1.62423128e+00  -1.35535670e-01  -2.58914410e-01
C     6.825949199977672e+00   1.007758050673481e+00   3.352188900000000e+00  9.76078540e-01   3.16525080e-01   8.39849900e-02
C     8.194471566090805e+00   1.465162985288282e+00   3.282665700000000e+00  1.61606568e+00  -2.66685760e+00   1.78441290e-01
C     1.769536841009159e+00   9.141012101196399e-01   3.365018700000000e+00 -5.44414800e-01  -1.75550002e+00  -1.34773876e+00
