32
Lattice="9.86 0 0 4.93 8.53901048131456 0 0 0 30 " PBC="1 1 1" Properties=species:S:1:pos:R:3:force:R:3 Energy="-257.42597182"
C     1.283767168600000e+00   1.443603403946704e-01   3.555971100000000e+00 -1.08245540e-01  -4.89559380e-01  -5.88120910e-01
C     2.509326172300000e+00   8.623595356111736e-01   3.483898800000000e+00 -1.81406730e-01  -7.95256820e-01   2.43103080e-01
C     3.750910535400000e+00   1.622499089106896e-01   3.476630400000000e+00 -3.96401020e-01  -9.36148530e-01   1.20401200e-01
C     4.978880407700000e+00   8.486725264929912e-01   3.475905000000000e+00  4.06873720e-01   6.52362410e-01  -1.65616420e-01
C     6.210998776399999e+00   1.235698992383856e-01   3.461524200000000e+00  2.00716260e-01   1.17073734e+00   1.92167700e-01
C     7.432165544499999e+00   8.941639340449815e-01   3.496219800000000e+00  2.80323350e-01  -2.12511178e+00  -2.45140410e-01
C     8.677857287800000e+00   1.225366789703056e-01   3.477530100000000e+00 -1.03564662e+00   7.98124470e-01   3.64364310e-01
C     9.903155050799999e+00   8.570253011544224e-01   3.517854900000000e+00  1.23276320e-01  -2.75936884e+00   5.12525100e-02
C     2.481508795200000e+00   2.259450693303003e+00   3.442000800000000e+00  1.59448984e+00   1.56672597e+00   2.58795290e-01
C     3.757012445700000e+00   2.981625806204645e+00   3.477480900000000e+00 -1.57477794e+00   1.63764800e-01  -6.67933620e-01
C     4.975356493000000e+00   2.301913655398157e+00   3.467242200000000e+00  3.96338200e-02  -1.36703128e+00   4.68567200e-02
C     6.176767863700000e+00   3.037930675068089e+00   3.444096600000000e+00  1.13996917e+00  -1.65568273e+00   7.60652770e-01
C     7.414526941200000e+00   2.310147140083183e+00   3.506772000000000e+00  3.25745190e-01  -6.01955390e-01  -5.28353060e-01
C     8.680042263799999e+00   2.950463626749039e+00   3.470987700000000e+00 -8.00263320e-01   9.92599860e-01   6.10089560e-01
C     9.894303383700001e+00   2.217912932993358e+00   3.494987400000000e+00  6.86650060e-01   3.46927633e+00  -4.03556690e-01
C     1.113476725640000e+01   2.991543269146432e+00   3.429847800000000e+00 -7.78636170e-01  -1.12140021e+00   4.55206960e-01
C     3.764954232000000e+00   4.407420164504157e+00   3.413559300000000e+00 -1.73071373e+00  -5.33407120e-01   3.85845720e-01
C     4.960302885899999e+00   5.118269987806175e+00   3.489142200000000e+00  6.94535940e-01   4.34615810e-01  -1.51311630e-01
C     6.204017107600000e+00   4.424019659316857e+00   3.513210600000000e+00 -7.64291200e-01   3.34603990e-01  -5.28053470e-01
C     7.429639165999999e+00   5.092493362260304e+00   3.477958200000000e+00  7.75050290e-01   1.68866451e+00   5.22283290e-01
C     8.662719673500000e+00   4.383984423291273e+00   3.506952900000000e+00  7.05062610e-01   1.17844030e-01  -9.60952080e-01
C     9.899952917200000e+00   5.108129315130442e+00   3.402112200000000e+00 -4.66562230e-01   5.17787030e-01   6.03596040e-01
C     1.113842127380000e+01   4.411861986975643e+00   3.431171400000000e+00 -4.44390620e-01  -5.02267830e-01  -5.94064000e-01
C     1.236212008990000e+01   5.111802370488413e+00   3.381660300000000e+00  8.45513290e-01  -3.23081200e-01   3.81184080e-01
C     4.933750546800000e+00   6.527952770351813e+00   3.501430500000000e+00  2.26027286e+00   3.95137730e-01   3.79869800e-02
C     6.210570852400000e+00   7.253568506746162e+00   3.526628100000000e+00 -1.31716541e+00   1.35761640e-01   9.91319200e-02
C     7.430342923500000e+00   6.554896678630301e+00   3.496780800000000e+00  4.32586720e-01  -1.30224223e+00  -2.77006100e-02
C     8.666984271400000e+00   7.256656042155520e+00   3.478767300000000e+00  2.34274700e-02   6.21941060e-01  -3.03198100e-01
C     9.892338828000000e+00   6.546278340742941e+00   3.397483800000000e+00  6.11590960e-01  -4.48313950e-01   4.49529580e-01
C     1.115313249240000e+01   7.247345446688547e+00   3.436965900000000e+00 -1.12784926e+00  -1.37323610e-01  -2.87978440e-01
C     1.236387181750000e+01   6.519926698231346e+00   3.424740600000000e+00 -1.23086010e-01   1.76486120e-01  -7.48930100e-02
C     1.358907300180000e+01   7.216045703774107e+00   3.471101400000000e+00 -2.96282070e-01   1.86171781e+00  -5.55752700e-02
