32
Lattice="9.86 0 0 4.93 8.53901048131456 0 0 0 30 " PBC="1 1 1" Properties=species:S:1:pos:R:3:force:R:3 Energy="-256.2865429"
C     1.126508894700000e+00   5.970302785703255e-01   3.620417400000000e+00 -1.12132688e+00   1.62222810e+00  -4.83167110e-01
C     2.307576226000000e+00   1.430183324296126e+00   3.504480000000000e+00 -8.00292100e-01  -1.55750978e+00   7.26518010e-01
C     3.509943770200000e+00   7.403709757235791e-01   3.496813200000000e+00  2.13819884e+00  -3.63489030e+00  -4.73635640e-01
C     4.799512414899999e+00   1.349743710821906e+00   3.431661300000000e+00 -1.00000133e+00  -2.82333620e-01   6.84378800e-02
C     6.032922049200001e+00   5.785657784786880e-01   3.422866500000000e+00 -1.79736312e+00   2.08215163e+00  -2.21219900e-02
C     7.190361566699999e+00   1.336652553855018e+00   3.510092400000000e+00  3.45961749e+00   3.66002850e-01   3.22740820e-01
C     8.499144196200000e+00   6.677220992409968e-01   3.647158800000000e+00 -1.84902136e+00  -9.77550340e-01  -3.60853490e-01
C     9.750045519800000e+00   1.317096768224037e+00   3.724617000000000e+00 -6.85028090e-01   1.50140434e+00  -7.66270510e-01
C     2.294759162700000e+00   2.834422829221183e+00   3.532340700000000e+00  6.35361400e-02  -4.36573370e-01   7.26178280e-01
C     3.564283068300000e+00   3.488010816755265e+00   3.510253500000000e+00 -1.52671956e+00  -6.64220980e-01  -1.12500861e+00
C     4.760850221000000e+00   2.762907677160030e+00   3.409620300000000e+00  1.79937288e+00   2.34570060e-01   5.07746520e-01
C     6.005511939400000e+00   3.487781031983248e+00   3.407934000000000e+00 -1.06761886e+00  -1.71349740e-01  -5.75062820e-01
C     7.214991600199999e+00   2.771619858772564e+00   3.463434300000000e+00 -1.08115453e+00  -7.50397550e-01   3.74413000e-01
C     8.400604933800000e+00   3.478364211225904e+00   3.558791400000000e+00  4.19233403e+00   3.12560870e-01  -8.61269390e-01
C     9.691772180299999e+00   2.769407315767092e+00   3.628491000000000e+00 -6.06098100e-01  -1.57556510e-01   8.89986790e-01
C     1.090894387360000e+01   3.524737698560478e+00   3.657536400000000e+00 -4.50077300e-02  -1.47379529e+00  -1.45324342e+00
C     3.547927990499999e+00   4.873924324338669e+00   3.380101800000000e+00  8.02383000e-02   1.98357116e+00   6.29968330e-01
C     4.759608994900000e+00   5.612928204484401e+00   3.440033400000000e+00  3.03080780e-01   7.51816630e-01   7.38972300e-02
C     6.009556955099999e+00   4.899849101716368e+00   3.360426900000000e+00 -1.89449110e-01   6.19603180e-01   1.00219284e+00
C     7.255493177100000e+00   5.595796046197957e+00   3.439628100000000e+00 -1.11823890e-01   1.05641865e+00  -1.32099611e+00
C     8.510171521600000e+00   4.920604105979161e+00   3.377797200000000e+00 -2.28863116e+00  -7.93865130e-01   1.48948655e+00
C     9.698644600300000e+00   5.672345201107385e+00   3.407551800000000e+00  8.52399650e-01  -2.11019314e+00  -4.68546870e-01
C     1.091905944480000e+01   4.886528843098302e+00   3.441031200000000e+00  4.59912820e-01   3.28075601e+00  -1.66717300e-02
C     1.218020279410000e+01   5.607559728595625e+00   3.334443600000000e+00 -6.40407640e-01  -1.23581240e-01   1.11875540e+00
C     4.715849624700000e+00   7.066746485107910e+00   3.616418400000000e+00  2.65418375e+00  -2.22286602e+00  -1.65465655e+00
C     5.993018974300000e+00   7.726530549426489e+00   3.478026600000000e+00  1.80421210e-01   7.18030180e-01   1.18736729e+00
C     7.235787227599999e+00   7.036014330220075e+00   3.397418700000000e+00  1.46713540e-01  -6.54941140e-01   8.87914100e-01
C     8.457419634199999e+00   7.764929540263895e+00   3.487328400000000e+00 -2.52258960e-01   1.96213799e+00  -1.19264606e+00
C     9.700151158999999e+00   7.074679140453725e+00   3.340962900000000e+00 -7.59444130e-01  -2.19960270e-01   7.43385120e-01
C     1.094512327020000e+01   7.727193432810051e+00   3.359026200000000e+00 -8.91851200e-02   4.62242230e-01   5.17399190e-01
C     1.216567359110000e+01   7.052734993591487e+00   3.451840800000000e+00  5.48346240e-01  -1.58193369e+00  -7.99926610e-01
C     1.339130674200000e+01   7.770777566981229e+00   3.580772100000000e+00 -9.67524010e-01   8.60024210e-01   3.07689540e-01
