26
Lattice="8.88768389401873 1.33226762955019e-15 0 4.44384194700937 7.69696003302603 0 0 0 30 " PBC="1 1 1" Properties=species:S:1:pos:R:3:force:R:3 Energy="-206.9809762"
C     1.405787003494532e+00   1.781360414827906e+00   3.859269600000000e+00  1.03279825e+00  -1.12697922e+00   5.62250420e-01
C     3.817599607720215e+00   1.163587855565650e+00   3.966430500000000e+00 -1.27088330e+00  -9.39540280e-01  -1.10201206e+00
C     5.149928169833095e+00   1.509553970747702e+00   3.634737000000000e+00  2.24540410e-01   1.52518767e+00  -1.06063250e-01
C     6.165953571265906e+00   5.366723083925569e-01   3.335583300000000e+00 -9.61538120e-01   1.32521820e-01   1.45664057e+00
C     7.523257102868526e+00   9.740582196653309e-01   3.433224300000000e+00  9.09803030e-01  -2.11532052e+00  -2.43653670e-01
C     8.625273512277557e+00   5.552433026441400e-02   3.548547600000000e+00 -1.57279876e+00  -2.17477264e+00   1.85622100e-01
C     1.074560488340168e+00   4.376138182592623e-01   3.936553800000000e+00 -1.46096771e+00  -2.06301349e+00  -1.68479078e+00
C     6.497916034507448e+00   7.149245508809204e+00   3.908263499999999e+00  1.10700396e+00  -4.30119739e+00   2.30690440e-01
C     7.890749682131904e+00   7.414928405428741e+00   3.937246500000001e+00 -7.10048480e-01   2.88585473e+00  -4.94959670e-01
C     8.839834870474327e+00   6.432646830636959e+00   3.641670000000000e+00  3.43746775e+00   3.82921570e-01  -1.18669260e-01
C     1.023719434902738e+01   6.851827661137976e+00   3.383086500000000e+00 -2.35620000e-01   5.66817530e-01   6.23464970e-01
C     1.131448175564935e+01   5.920411369734848e+00   3.401265000000000e+00 -9.45741950e-01  -8.48062910e-01  -3.61102530e-01
C     3.793900779755752e+00   6.358334220939314e+00   3.409523400000000e+00  2.15907742e+00  -2.16752898e+00   1.28543833e+00
C     4.864324183542822e+00   5.229521461698006e+00   3.573706500000000e+00 -1.87410889e+00   3.65303037e+00   3.98239230e-01
C     6.221390991664457e+00   5.635233381842526e+00   3.753647100000000e+00 -1.78599110e+00   3.07720837e+00  -3.71682300e-01
C     7.233305039425000e+00   4.690689001473030e+00   3.673852200000000e+00 -6.24397500e-02  -2.03792595e+00   4.63625920e-01
C     8.596083117613180e+00   5.035458778157619e+00   3.657201600000000e+00 -2.11066652e+00   1.68339201e+00  -5.12784970e-01
C     9.560916437491498e+00   4.072861793794559e+00   3.539427300000000e+00  2.26419209e+00  -1.40092362e+00   3.65602860e-01
C     1.091640657051536e+01   4.516003876625769e+00   3.508885200000000e+00  2.21786458e+00  -1.45901440e-01   5.05633400e-01
C     3.096419031921254e+00   3.549152320636527e+00   3.723878700000000e+00 -2.00664667e+00  -4.79701950e-01  -1.80617240e-01
C     4.446930328805836e+00   3.896047227985400e+00   3.700528500000000e+00  1.67588730e+00   3.72662320e-01  -8.65788530e-01
C     5.497068616306636e+00   2.935040281625338e+00   3.614386200000000e+00  2.97539350e-01  -2.00028711e+00   6.75598870e-01
C     6.891319671807577e+00   3.277243583957524e+00   3.605881800000000e+00 -1.06444171e+00   1.77870014e+00  -4.96701790e-01
C     7.899194711596131e+00   2.289320214433352e+00   3.522773100000000e+00 -1.17078940e-01   1.47060933e+00   4.57499160e-01
C     9.279116687621663e+00   2.630607116704367e+00   3.623926500000000e+00 -2.21511166e+00   4.77010859e+00  -3.95592530e-01
C     2.732864944193803e+00   2.183522881854592e+00   3.938752500000001e+00  3.06790941e+00  -4.97858960e-01  -2.75887720e-01
