2
Lattice="2.425 0 0 1.2125 2.10011160417726 0 0 0 30 " PBC="1 1 1" Properties=species:S:1:pos:R:3:force:R:3 Energy="-16.09233768"
C     0.000000000000000e+00   0.000000000000000e+00   3.000000000000000e+00  0.00000000e+00   0.00000000e+00   0.00000000e+00
C     1.212500000000000e+00   7.000372013924211e-01   3.000000000000000e+00  0.00000000e+00  -0.00000000e+00  -0.00000000e+00
