2
Lattice="2.399 0 0 1.1995 2.07759494367887 0 0 0 30 " PBC="1 1 1" Properties=species:S:1:pos:R:3:force:R:3 Energy="-16.02449098"
C     0.000000000000000e+00   0.000000000000000e+00   3.000000000000000e+00  0.00000000e+00   0.00000000e+00   0.00000000e+00
C     1.199500000000000e+00   6.925316478929561e-01   3.000000000000000e+00 -0.00000000e+00   0.00000000e+00  -0.00000000e+00
