26
Lattice="8.88768389401873 1.33226762955019e-15 0 4.44384194700937 7.69696003302603 0 0 0 30 " PBC="1 1 1" Properties=species:S:1:pos:R:3:force:R:3 Energy="-208.98056618"
C     1.327432986128234e+01   7.607250729336744e+00  -7.470389999999938e-02  7.83487450e-01   2.03843729e+00  -1.48877420e-01
C     9.523592566748331e+00   7.446140655924796e+00  -6.589290000000148e-02 -8.83966400e-02  -1.75823465e+00  -1.33891700e-01
C     1.087971305819006e+01   7.024095401748614e+00   6.539760000000000e-02  3.89086700e-01   1.30764299e+00  -2.18227000e-01
C     1.122533997473113e+01   5.671865446743705e+00   4.535430000000000e-02  1.69707550e-01  -2.11105790e+00  -3.63362280e-01
C     7.117941437460805e+00   6.839445099720113e+00  -2.723507999999981e-01  6.62773030e-01  -9.73266870e-01   5.28312990e-01
C     8.512260083315013e+00   6.438560712906408e+00  -1.105617000000017e-01 -1.34563627e+00   6.76860890e-01  -3.00698390e-01
C     8.810072327030060e+00   5.055711481206156e+00  -2.937749999999895e-02  1.72913003e+00   4.49301540e-01  -4.83448220e-01
C     1.020407905960900e+01   4.640741272689551e+00  -6.236850000000160e-02 -2.11494350e-01   9.72756420e-01   2.88671130e-01
C     1.053978963170934e+01   3.261879374163240e+00  -2.022654000000017e-01  7.85912810e-01   1.72179111e+00   3.90198980e-01
C     4.742789595290394e+00   6.250073322363752e+00  -5.392080000000021e-02 -4.72968220e-01  -5.51515710e-01  -1.73510890e-01
C     6.083710325314009e+00   5.841856503547070e+00  -1.627067999999987e-01  9.56985820e-01   1.12196307e+00   1.25119260e-01
C     6.433469570477667e+00   4.486445241022560e+00  -6.844590000000039e-02  1.15234690e-01  -5.25388460e-01   2.54031900e-02
C     7.788971923533563e+00   4.108604705873073e+00  -5.944470000000024e-02  6.55074680e-01  -2.33895845e+00   1.22199820e-01
C     8.175120412746061e+00   2.679668155692389e+00  -5.679029999999941e-02 -2.49914186e+00   1.82314432e+00  -1.26354100e-02
C     9.509504828998169e+00   2.317842531338122e+00  -1.844831999999990e-01  5.87434740e-01  -1.46119356e+00  -5.54578100e-02
C     3.726960565954332e+00   5.254379178962893e+00   9.399600000000001e-03 -1.16725795e+00   8.84091990e-01  -2.19937290e-01
C     4.054995912013903e+00   3.895464568111128e+00  -1.016627999999997e-01  6.03018000e-03  -9.69967980e-01   2.40446690e-01
C     5.429013843587319e+00   3.494133295798083e+00  -4.358159999999955e-02 -9.59311700e-01  -6.11346410e-01  -5.21839960e-01
C     5.744072815638334e+00   2.101658553762714e+00  -6.937980000000010e-02  3.04962790e-01   5.44151200e-02   1.14971700e-02
C     7.111140445102786e+00   1.713066443025721e+00  -3.513300000001607e-03  1.04102871e+00  -4.70014990e-01  -1.66122780e-01
C     7.476937204754644e+00   3.232224449590056e-01   3.923250000000000e-02 -7.02002420e-01  -1.10093110e-01  -2.51339380e-01
C     3.030488548176304e+00   2.891200090625665e+00  -2.192766000000006e-01  1.53804040e-01  -4.41663900e-02   4.30666000e-02
C     3.378003031005740e+00   1.514045377834008e+00  -2.866398000000032e-01 -6.78202140e-01  -7.45580960e-01  -2.82425690e-01
C     4.726913699957375e+00   1.086969621491019e+00  -1.962899999999976e-01  3.55894770e-01   1.99542207e+00   6.17405170e-01
C     9.790488604307017e-01   9.451158796517239e-01  -2.448456000000014e-01 -8.98808480e-01  -1.90603747e+00   1.84915050e-01
C     2.331315696564178e+00   5.046447958901251e-01  -3.636341999999999e-01  3.26672050e-01   1.53099608e+00   7.54538180e-01
