32
Lattice="9.86 0 0 4.93 8.53901048131456 0 0 0 30 " PBC="1 1 1" Properties=species:S:1:pos:R:3:force:R:3 Energy="-257.00852935"
C     9.772372405199999e+00   1.238738880114736e-01   3.860987700000000e+00  2.61229152e+00  -1.07334570e-01  -3.25553740e-01
C     1.207349605000000e+00   8.232796440780912e-01   3.792227100000000e+00 -7.21277600e-01  -3.44170860e-01  -1.06510490e-01
C     2.463807285100000e+00   8.151399177281360e-02   3.826231200000000e+00 -2.22666242e+00   7.89341960e-01   2.13796380e-01
C     3.656192170900000e+00   8.287004641011096e-01   3.833880300000000e+00  3.03620010e-01  -4.80200250e-01  -1.17829660e-01
C     4.884357172600000e+00   1.344668720723328e-01   3.882192900000000e+00  1.45351449e+00  -1.22796411e+00   4.76180300e-02
C     6.172195732400000e+00   7.982287490329153e-01   3.864703800000000e+00 -2.27936268e+00   9.58646380e-01  -5.28453140e-01
C     7.378751903200000e+00   1.383847408607664e-01   3.771364200000000e+00 -7.22619670e-01  -2.15867406e+00   3.61735280e-01
C     8.556548278100001e+00   8.584606234260056e-01   3.754037100000000e+00  2.23221553e+00  -6.01713460e-01   3.43439870e-01
C     1.107234142720000e+01   2.253726653017840e+00   3.658152000000000e+00 -6.19394660e-01  -7.28246580e-01   3.55595860e-01
C     2.446940226800000e+00   2.952554659635381e+00   3.618123900000000e+00 -8.46888710e-01   4.93554700e-01   4.24503470e-01
C     3.637088667400000e+00   2.232810688407499e+00   3.757764600000000e+00  2.17272223e+00   6.41014540e-01   1.81350520e-01
C     4.930398541199999e+00   2.918549416640457e+00   3.868289100000000e+00 -1.13448674e+00   3.04753800e-01  -4.09129250e-01
C     6.176610103700000e+00   2.220203607944722e+00   3.836315100000000e+00 -1.46865043e+00  -1.01399560e-01   3.94131690e-01
C     7.356164911000000e+00   2.954593433777586e+00   3.798655200000000e+00  1.04106295e+00   1.71260453e+00   4.73917180e-01
C     8.609751556299999e+00   2.262459925986260e+00   3.743214600000000e+00 -1.06713691e+00   5.71026000e-01  -1.69684100e-02
C     9.823484919700000e+00   2.969498361960531e+00   3.703402800000000e+00  9.81543090e-01  -3.03144600e-01  -2.40156550e-01
C     1.227226497320000e+01   4.379796977941986e+00   3.626439900000000e+00  1.07614623e+00  -1.62719460e-01   3.97952140e-01
C     3.661046643300000e+00   5.078638049245561e+00   3.713339100000000e+00  4.73474190e-01  -3.67496810e-01   5.24552300e-01
C     4.920638373699999e+00   4.336335207790987e+00   3.889765800000000e+00 -1.11495156e+00   1.42940130e+00  -8.58086460e-01
C     6.129370991600000e+00   5.124448388838980e+00   3.913107600000000e+00 -4.56581240e-01  -2.28006028e+00   2.07953030e-01
C     7.340678548499999e+00   4.418817779522546e+00   3.911238300000000e+00  1.64807925e+00  -1.97190949e+00  -9.74960460e-01
C     8.627838247300001e+00   5.076064391486889e+00   3.829021200000000e+00 -2.47874098e+00   7.25945390e-01   5.05729650e-01
C     9.826616357100001e+00   4.392835961554841e+00   3.719088900000000e+00 -1.12107470e-01  -1.43712041e+00   3.30067320e-01
C     1.103538289340000e+01   5.077920174634508e+00   3.733134900000000e+00  1.68794100e+00   5.71852220e-01  -7.91963580e-01
C     1.353381322340000e+01   6.515740619123736e+00   3.753235500000000e+00  5.99676170e-01  -4.81392420e-01   7.27409210e-01
C     4.914933870700001e+00   7.223025063989935e+00   3.928571400000000e+00 -1.65545821e+00   7.42407740e-01  -1.13424952e+00
C     6.130363992200000e+00   6.506567160165072e+00   3.898628100000000e+00 -5.55424660e-01   1.45372315e+00   4.32042580e-01
C     7.341890638299999e+00   7.207388257218749e+00   3.898898100000000e+00  1.75582087e+00  -5.75442200e-02  -2.02262600e-02
C     8.589993250199999e+00   6.485565805449931e+00   3.904657200000000e+00  4.43266270e-01   1.25657964e+00  -3.09864850e-01
C     9.815897501799999e+00   7.234122788960267e+00   3.881820900000000e+00  7.55479800e-01  -5.53928840e-01  -3.91801460e-01
C     1.108470355010000e+01   6.485278638527490e+00   3.761234400000000e+00 -1.18985184e+00   2.21201926e+00   6.59372050e-01
C     1.231722879170000e+01   7.235596365998801e+00   3.767815800000000e+00 -5.87257830e-01  -4.97850660e-01  -3.55412730e-01
