32
Lattice="9.88 0 0 4.94 8.55633098939025 0 0 0 30 " PBC="1 1 1" Properties=species:S:1:pos:R:3:force:R:3 Energy="-258.07919284"
C    -6.949467261364011e-04  -1.157435282828626e-03   2.999474199435029e+00 -2.14494500e-02   8.71185000e-02  -3.55361000e-03
C     1.234191432299221e+00   7.125419221099575e-01   2.999167487049593e+00  2.81973200e-02  -2.87097000e-03   1.02846200e-02
C     2.470492304970473e+00   6.706317542204373e-04   3.000035944545642e+00 -8.20473600e-02  -4.45704000e-02   6.20490000e-04
C     3.704347443013650e+00   7.123607803268868e-01   3.000014116460914e+00  4.32893000e-02   5.55673600e-02   1.66648000e-03
C     4.939096436858579e+00   1.518117895728598e-04   2.999955540501670e+00  5.06962800e-02  -2.32602300e-02  -3.85670000e-03
C     6.175443781826447e+00   7.136171894602558e-01   2.999172897419508e+00 -9.53310800e-02  -1.34101000e-02   1.25804400e-02
C     7.409013713456945e+00   1.056141306820230e-03   2.999309070681504e+00  4.62534100e-02  -2.61282200e-02  -5.17010000e-04
C     8.644012513936607e+00   7.137514314908798e-01   2.999030343273909e+00  3.58344500e-02  -5.48892400e-02   7.13346000e-03
C     1.234890680036936e+00   2.138112324187288e+00   3.000080454268862e+00 -4.65603300e-02   5.28691700e-02  -7.25200000e-04
C     2.469866804783569e+00   2.851319238733383e+00   3.001198050102108e+00  1.66219000e-02   4.46149200e-02  -2.23061800e-02
C     3.705403169437132e+00   2.139404164458331e+00   3.000124168495142e+00 -6.29943600e-02  -6.08928600e-02   2.89324000e-03
C     4.938838945292740e+00   2.851136633995398e+00   2.999629027445295e+00  3.93571300e-02   8.72836000e-02   1.64449900e-02
C     6.173889498015205e+00   2.139210333999676e+00   3.000757974121640e+00  5.47032700e-02   2.68560800e-02  -2.24155900e-02
C     7.409695289187756e+00   2.853175653923202e+00   2.999515787415252e+00 -9.20850000e-03  -6.50094900e-02   1.28127600e-02
C     8.644779652669081e+00   2.138370692414946e+00   2.999779321375591e+00 -2.49115500e-02   8.39391300e-02  -8.77835000e-03
C     9.878994365209161e+00   2.853025682807892e+00   2.999584509287333e+00  6.72666600e-02  -7.02683500e-02   2.63684000e-03
C     2.471075894736581e+00   4.278512705267097e+00   2.998919416282833e+00 -8.64895500e-02  -5.44869000e-02   2.92468300e-02
C     3.704892493906699e+00   4.991681617423474e+00   3.000435700507747e+00 -1.31920600e-02  -2.97777700e-02  -5.06895000e-03
C     4.938888143266072e+00   4.278709417997697e+00   3.000950289933755e+00  4.72536700e-02  -3.91438900e-02  -1.92014400e-02
C     6.173840881682914e+00   4.991963151768183e+00   2.999031540682688e+00  6.94594400e-02  -4.77748000e-02   2.32839200e-02
C     7.411118090311565e+00   4.278406469850075e+00   3.000076447154180e+00 -1.05686440e-01   1.03481300e-02  -1.33721900e-02
C     8.644639884837574e+00   4.990663066265932e+00   2.999453229912834e+00  5.16778400e-02   6.23093000e-02   3.28902000e-03
C     9.880975003914516e+00   4.278594076269240e+00   2.999550198975714e+00 -9.50296400e-02  -4.15507100e-02   5.23566000e-03
C     1.111411868082838e+01   4.990062038837566e+00   3.000433983280406e+00  1.03413520e-01   6.86936200e-02  -2.00243900e-02
C     3.704162681273373e+00   6.416249454927629e+00   3.000310560491308e+00  2.41217300e-02   1.14458190e-01  -1.84506000e-03
C     4.939079762341688e+00   7.131362704879871e+00   2.999918476719896e+00  3.38605700e-02  -1.15784500e-01   3.10191000e-03
C     6.176065299345573e+00   6.417330888953686e+00   3.000251075530723e+00 -1.27095140e-01   2.86708400e-02  -6.16210000e-03
C     7.408806631838720e+00   7.130505804107377e+00   3.000622708458141e+00  9.40492300e-02   1.29033400e-02  -8.85745000e-03
C     8.644728712678104e+00   6.417547775210114e+00   2.999640889016477e+00 -3.77775900e-02  -3.65679400e-02   6.22773000e-03
C     9.879382286017302e+00   7.129509636944243e+00   2.999915593762259e+00  1.07169100e-02   4.95233700e-02  -5.80723000e-03
C     1.111422663801240e+01   6.416807573422854e+00   2.999339322702963e+00  3.57224500e-02   1.37562300e-02   1.22972900e-02
C     1.234991114236970e+01   7.131460643971496e+00   3.000017478985921e+00 -4.47220500e-02  -7.25254200e-02  -7.26425000e-03
