32
Lattice="9.86 0 0 4.93 8.53901048131456 0 0 0 30 " PBC="1 1 1" Properties=species:S:1:pos:R:3:force:R:3 Energy="-256.98145272"
C     4.960468336700000e+00   8.453982514634458e+00  -4.504017000000005e-01 -1.05185385e+00  -2.22443318e+00  -3.55287800e-02
C     1.226614861800000e+00   6.215836054748319e-01  -4.661009999999983e-01  1.76528733e+00  -1.28011459e+00   2.98161050e-01
C     7.393792297899999e+00   8.433509383107609e+00  -4.644722999999971e-01  1.00461571e+00  -4.64272250e-01  -1.51623080e-01
C     3.724274977900000e+00   5.846649374942376e-01  -4.964718000000019e-01  1.20196010e-01   7.74183380e-01   6.61391130e-01
C     9.910101322199999e+00   8.437203102870942e+00  -4.208586000000025e-01 -2.15520983e+00  -1.68128208e+00   6.58282800e-02
C     6.173718461500000e+00   5.664794068749817e-01  -3.855200999999973e-01  2.35119264e+00   1.82033311e+00  -6.87672490e-01
C     1.234839403320000e+01   8.393949599185550e+00  -4.286730000000034e-01  4.03549260e-01   1.57510536e+00   2.95443460e-01
C     8.649997808500000e+00   5.938800668240440e-01  -4.781477999999986e-01 -2.01240270e-01  -6.62540180e-01   2.28980880e-01
C     1.283791966500000e+00   2.011307304924518e+00  -3.999227999999988e-01 -2.12285512e+00   4.71247500e-01  -8.71897460e-01
C     2.482337528200000e+00   2.679108048452035e+00  -3.927084000000001e-01  2.68129839e+00   3.28479245e+00  -1.66322110e-01
C     3.765927512600000e+00   2.027657204460888e+00  -4.521485999999975e-01 -1.62556886e+00  -1.67917264e+00   1.62860630e-01
C     4.996872048299999e+00   2.710570801076538e+00  -4.291784999999990e-01 -2.69222370e-01   1.95546280e-01  -2.13419430e-01
C     6.244846726700001e+00   2.026372510334172e+00  -4.440351000000007e-01 -2.39799938e+00  -2.10778211e+00   4.02569070e-01
C     7.427972825999999e+00   2.722612769825749e+00  -4.279637999999970e-01  1.35689246e+00  -7.18446040e-01  -6.25313850e-01
C     8.659260440399999e+00   1.991325422670584e+00  -4.967766000000005e-01  3.10493000e-03   1.06789503e+00   3.08974060e-01
C     9.884691559899998e+00   2.717482446939260e+00  -4.907391000000025e-01  5.71220700e-02  -9.61123030e-01   6.61173360e-01
C     2.513968605400000e+00   4.172997685115459e+00  -3.883350000000014e-01 -1.38604574e+00  -2.08430884e+00   7.61760900e-02
C     3.746268348800000e+00   4.855334471573186e+00  -3.462110999999979e-01 -2.81221390e-01  -4.16747280e-01  -8.29036760e-01
C     4.962296430000000e+00   4.113827295115137e+00  -4.307628000000001e-01  8.03849920e-01   1.25815581e+00   4.67291700e-01
C     6.209033678399999e+00   4.825322582219338e+00  -4.438865999999990e-01 -1.73446238e+00   1.20794007e+00  -1.33810840e-01
C     7.408250558199999e+00   4.117785126472618e+00  -4.491390000000024e-01  7.46791300e-01   9.44584240e-01   4.04478250e-01
C     8.627592092400000e+00   4.826288344304627e+00  -3.854645999999988e-01  4.36455940e-01   1.78642465e+00  -5.75456400e-01
C     9.829366951999999e+00   4.107613286408632e+00  -4.282973999999982e-01  2.42596070e+00   1.62368535e+00  -7.78615300e-02
C     1.111324371450000e+01   4.856826663654566e+00  -4.306164000000017e-01 -5.61612220e-01  -7.49329110e-01   3.86059190e-01
C     3.742898595200000e+00   6.270459934008670e+00  -4.027041000000011e-01  4.72032000e-02   5.32481410e-01   4.54959250e-01
C     4.959926874800000e+00   6.976450291836626e+00  -4.029747000000015e-01  5.57448860e-01   1.66567440e+00  -6.29994840e-01
C     6.182136781600000e+00   6.277833198777941e+00  -4.650227999999998e-01  1.18111461e+00  -8.22393700e-01   5.55114170e-01
C     7.435578435600000e+00   6.992306209616729e+00  -4.425561000000009e-01 -1.18782849e+00   7.62378690e-01  -1.10758820e-01
C     8.669097910300000e+00   6.308518389108134e+00  -3.998418000000008e-01 -9.87722350e-01  -2.20088046e+00   9.64631000e-02
C     9.887690429599999e+00   6.989515831772073e+00  -3.713307000000015e-01  5.06783810e-01   8.48843460e-01  -4.93905610e-01
C     1.109493187040000e+01   6.263565366166908e+00  -4.096043999999992e-01  2.09075290e+00   1.07350542e+00   4.12280570e-01
C     1.240186244680000e+01   7.019786282363254e+00  -3.850533000000027e-01 -2.57677781e+00  -2.83995112e+00  -3.35602220e-01
