32
Lattice="9.86 0 0 4.93 8.53901048131456 0 0 0 30 " PBC="1 1 1" Properties=species:S:1:pos:R:3:force:R:3 Energy="-257.50936473"
C     4.950669912400000e+00   8.239675638403810e+00  -2.311247999999999e-01  3.07461820e-01   7.09013480e-01   1.27718490e-01
C     1.257741205600000e+00   4.240932003131824e-01  -2.487861000000002e-01  2.74080600e-02   3.82059500e-02   1.01366160e-01
C     7.414453336299999e+00   8.238207013991355e+00  -2.655251999999990e-01 -4.09084040e-01  -9.53777170e-01   3.88291380e-01
C     3.704443609200000e+00   3.723338175084528e-01  -1.986041999999983e-01  1.11053890e+00   2.14684360e+00  -6.48164220e-01
C     9.891035286699999e+00   8.238432443868026e+00  -2.169476999999986e-01 -7.52630770e-01  -2.29990330e-01   4.82631620e-01
C     6.181331613999999e+00   4.106092488642144e-01  -2.109104999999971e-01  6.39460780e-01  -4.13758270e-01   2.48261580e-01
C     1.235245733920000e+01   8.216954697758206e+00  -1.821027000000015e-01 -4.82133550e-01   3.10174940e-01  -2.58365570e-01
C     8.633412647600000e+00   3.933708652874000e-01  -2.341413000000010e-01  9.84819290e-01   4.02906860e-01  -8.13243600e-02
C     1.283486553000000e+00   1.851082593129370e+00  -1.816176000000027e-01 -1.25589207e+00  -4.01602360e-01  -3.01146140e-01
C     2.509425906200000e+00   2.552341485250357e+00  -1.673477999999982e-01 -2.54165290e-01  -8.21414350e-01   1.18867420e-01
C     3.742020463600000e+00   1.833160234813107e+00  -2.136897000000033e-01 -1.02382502e+00  -1.02577352e+00   5.40965820e-01
C     4.951805291399999e+00   2.537124968574997e+00  -1.707257999999996e-01  5.75355020e-01   6.62059400e-01  -5.78849700e-02
C     6.184465122000000e+00   1.828850767004061e+00  -1.800354000000013e-01  3.16580590e-01   9.83387000e-02  -4.57451170e-01
C     7.418683029799999e+00   2.542319077869772e+00  -2.261142000000014e-01  4.44067800e-01  -6.47727280e-01  -1.53100780e-01
C     8.670377294600000e+00   1.817172474711193e+00  -2.869337999999999e-01 -1.07947528e+00   7.16295830e-01   9.35998460e-01
C     9.878398316299998e+00   2.561834559371287e+00  -1.815393000000007e-01  1.04177514e+00  -7.78143620e-01  -6.06593650e-01
C     2.467942667700000e+00   3.946037190814919e+00  -8.058360000000064e-02  6.94939520e-01   1.43911346e+00  -1.86783460e-01
C     3.704512678500000e+00   4.659873191471898e+00  -6.724709999999945e-02  4.72276120e-01   3.55397670e-01  -6.32292760e-01
C     4.948594086600000e+00   3.978857646105742e+00  -1.556366999999987e-01  3.25294240e-01  -7.86978450e-01  -9.43078700e-02
C     6.192865053199999e+00   4.679429489443509e+00  -2.572104000000017e-01 -4.71102110e-01   3.46045140e-01   7.34963480e-01
C     7.421522167500000e+00   3.954536409506082e+00  -2.266674000000002e-01  3.75176000e-01   7.43743160e-01  -4.54019000e-02
C     8.672739849199999e+00   4.681900508296211e+00  -1.738965000000015e-01 -1.62696918e+00  -3.01679800e-02  -4.32094900e-01
C     9.887733862899999e+00   3.984837429754782e+00  -1.844301000000002e-01 -4.83396200e-02  -4.35074160e-01   5.25395540e-01
C     1.111056795700000e+01   4.693375913700074e+00  -1.114637999999992e-01  2.38686150e-01  -6.08038270e-01   1.27178220e-01
C     3.723134767499999e+00   6.076517914651984e+00  -1.426271999999997e-01  1.37741900e+00   9.36010680e-01   3.79144150e-01
C     4.992868395299999e+00   6.844959179526469e+00  -1.724709000000004e-01 -1.97882411e+00  -1.82466053e+00  -4.47423570e-01
C     6.200228550499999e+00   6.126507502144629e+00  -2.383340999999994e-01 -5.76540750e-01  -1.71088456e+00   3.87745200e-02
C     7.417588323300000e+00   6.785886988146666e+00  -2.523116999999999e-01 -1.64384320e-01   2.22701486e+00   5.20266400e-02
C     8.618878761100000e+00   6.103193441831086e+00  -1.815327000000018e-01  2.33703771e+00  -2.91635830e-01   8.23600000e-03
C     9.873705350700000e+00   6.830469844983584e+00  -1.426052999999996e-01  1.81379920e-01  -9.91278800e-01  -2.73292230e-01
C     1.111490946290000e+01   6.106730129191692e+00  -9.624780000000044e-02 -3.45362000e-03   1.79350860e-01  -2.76235230e-01
C     1.237765318880000e+01   6.789448182467351e+00  -1.397648999999994e-01 -1.32285636e+00   6.40390870e-01   1.42043290e-01
