32
Lattice="9.86 0 0 4.93 8.53901048131456 0 0 0 30 " PBC="1 1 1" Properties=species:S:1:pos:R:3:force:R:3 Energy="-257.15306548"
C     9.845421990000000e+00   6.866730667596800e-02  -1.553147999999993e-01 -1.94949636e+00  -1.80225651e+00   1.82168320e-01
C     1.185151540500000e+00   7.520129772219064e-01  -1.813565999999973e-01  1.62975213e+00  -6.77076310e-01   5.09638100e-02
C     2.419315957800000e+00   6.632078659606399e-03  -9.515009999999791e-02  9.60597770e-01   1.31489410e+00  -6.00706900e-02
C     3.682856716800000e+00   7.287773904146736e-01  -1.127844000000024e-01 -6.77255130e-01  -9.80406700e-02  -5.88513640e-01
C     4.912331964600000e+00   2.388122138962560e-02  -1.104330000000004e-01 -2.66124780e-01   4.31973050e-01   4.99138800e-01
C     6.140848869700000e+00   7.367547901754040e-01  -1.000928999999999e-01 -2.04435750e-01   3.85851570e-01  -1.07554600e-01
C     7.353660816100000e+00   8.637123710415201e-03  -1.036697999999987e-01  8.06603570e-01   3.60419150e-01  -9.08157980e-01
C     8.571559388599999e+00   7.360162511589888e-01  -2.146845000000006e-01  8.18366160e-01  -1.28608010e-01   6.09201720e-01
C     1.106487228000000e+01   2.155567141165838e+00  -2.719266000000005e-01  3.74523750e-01   5.59440500e-02   3.40674180e-01
C     2.439849605000000e+00   2.842044493805317e+00  -3.033234000000000e-01  7.30285910e-01   1.41413237e+00  -3.64222700e-01
C     3.711787041400000e+00   2.152174592302134e+00  -2.726729999999975e-01 -2.36829868e+00  -3.31316100e-01   7.61646710e-01
C     4.884474013599999e+00   2.896934790192643e+00  -2.088821999999979e-01  1.98067219e+00  -1.25146791e+00   2.77476080e-01
C     6.156085281199999e+00   2.177492758375335e+00  -1.088661000000002e-01 -2.28249545e+00  -1.25844664e+00  -3.29957240e-01
C     7.356505081000000e+00   2.840755103222837e+00  -1.040063999999994e-01  9.60911900e-01   1.65990777e+00  -3.12285400e-01
C     8.571695357999999e+00   2.143884237807312e+00  -2.297055000000015e-01  1.25683304e+00   1.39386700e-01   9.61633680e-01
C     9.843751459500000e+00   2.851314016631881e+00  -1.926144000000001e-01 -1.34203048e+00  -1.85357140e-01  -1.04768400e+00
C     1.228811265540000e+01   4.302786887246848e+00  -3.536652000000018e-01  3.34213900e-01  -9.02243570e-01   3.13068420e-01
C     3.669555280999999e+00   5.016759853631926e+00  -2.497632000000003e-01 -3.08526000e-03  -2.27166650e-01  -2.94154580e-01
C     4.887088934900000e+00   4.290759434815453e+00  -1.935089999999988e-01  9.10216910e-01   1.03219845e+00  -4.40211670e-01
C     6.164734867600000e+00   4.989639956347446e+00  -1.821870000000025e-01 -1.81859642e+00   7.25815620e-01   1.16949975e+00
C     7.370055432499999e+00   4.279983374369903e+00  -6.252419999999859e-02 -6.25087970e-01  -9.82642430e-01  -5.79438540e-01
C     8.584938718400000e+00   4.945709309130990e+00  -6.817080000000075e-02  1.32482206e+00   2.39330481e+00  -3.52729070e-01
C     9.809574283799998e+00   4.255436195552942e+00  -2.366202000000008e-01  1.20927153e+00   9.44873760e-01   3.95424650e-01
C     1.105357326230000e+01   5.004238504834369e+00  -3.488262000000013e-01 -4.82310890e-01   2.20870160e-01   8.11498260e-01
C     1.356082370740000e+01   6.439546174709649e+00  -2.063966999999991e-01 -6.72267400e-01  -3.09132380e-01   2.46466300e-01
C     4.894942474199999e+00   7.163451547304852e+00  -5.998530000000102e-02  1.55790994e+00  -3.25805500e-02  -1.08921227e+00
C     6.136867796100000e+00   6.425721602132633e+00  -9.530760000000171e-02 -9.05910000e-03  -7.41304500e-02   2.02824760e-01
C     7.374772209999999e+00   7.134983852606209e+00  -3.666390000000064e-02  2.61284070e-01  -6.46552230e-01  -1.17908380e-01
C     8.626664710100000e+00   6.406791982140149e+00  -3.350939999999980e-02 -6.78325930e-01   2.23218100e-02  -2.14181030e-01
C     9.853281346699999e+00   7.157797953856150e+00  -7.997549999999976e-02 -2.79249970e-01  -1.43021101e+00  -4.47998480e-01
C     1.108187511050000e+01   6.447044023641822e+00  -2.281187999999972e-01  1.54922100e-02  -1.09457816e+00  -7.94775000e-02
C     1.233522112250000e+01   7.131395333451990e+00  -2.222138999999999e-01 -1.47363747e+00   3.29913330e-01   5.12072340e-01
