32
Lattice="9.86 0 0 4.93 8.53901048131456 0 0 0 30 " PBC="1 1 1" Properties=species:S:1:pos:R:3:force:R:3 Energy="-253.88348254"
C     1.068669247300000e+00   1.303781803792468e+00   3.414903900000000e+00  2.48171160e+00  -4.80236749e+00  -5.68699520e-01
C     2.350366259600000e+00   1.905095420799771e+00   3.662162400000000e+00 -2.28036124e+00   2.49460207e+00  -4.12947220e-01
C     3.556158872000000e+00   1.251000045262968e+00   3.514335300000000e+00  8.67149120e-01  -4.04274819e+00  -8.33357510e-01
C     4.785205209799999e+00   1.899399217688773e+00   3.458183100000000e+00  8.30233230e-01   2.47436550e-01   2.32065140e-01
C     6.024885606899999e+00   1.196630201564397e+00   3.289994400000000e+00 -5.05612160e-01  -2.61167003e+00   6.22581290e-01
C     7.259371953200000e+00   1.843236950300346e+00   3.451416600000000e+00  6.10215900e-01   7.72628370e-01  -2.27907530e-01
C     8.518755686900001e+00   1.141732390847849e+00   3.564654900000000e+00 -2.13515286e+00   9.36757670e-01  -1.78061161e+00
C     9.690566105099998e+00   1.921622077853077e+00   3.494880300000000e+00  6.56926020e-01  -2.33845110e+00   1.01370030e+00
C     2.365249781700000e+00   3.357633789142433e+00   3.857641200000000e+00 -2.15452892e+00  -1.48168913e+00  -2.06278240e-01
C     3.594341475500000e+00   4.062646088710009e+00   3.821306100000000e+00 -1.54737838e+00  -1.06213113e+00  -2.91846300e-02
C     4.785360356899999e+00   3.288746005215871e+00   3.609406200000000e+00  8.68805090e-01   2.04271514e+00   1.47948330e-01
C     6.024226465900000e+00   3.970666258742383e+00   3.490085400000000e+00  5.76657930e-01   2.61383135e+00  -1.34336816e+00
C     7.258303671499999e+00   3.270330604434494e+00   3.391432800000000e+00  5.64092100e-02   1.66602772e+00   1.34557701e+00
C     8.456773705600000e+00   4.095586090147552e+00   3.552482400000000e+00 -5.27327300e-02  -2.35950820e+00  -4.76346130e-01
C     9.680680764900000e+00   3.249025431726474e+00   3.721495800000000e+00 -9.15566850e-01   6.28321661e+00  -3.08160790e-01
C     1.088220892730000e+01   4.014760001059007e+00   3.845700000000000e+00  3.16052756e+00  -1.59474177e+00  -3.73557990e-01
C     3.462047144000000e+00   5.459356918875059e+00   3.776406900000000e+00  6.49861553e+00   4.93574720e-01  -2.05430751e+00
C     4.788813969800000e+00   6.191499533319901e+00   3.363224400000000e+00 -5.26715790e-01  -2.61353108e+00   1.37791658e+00
C     6.043985708699999e+00   5.488670061001327e+00   3.288289800000000e+00 -8.54679510e-01  -1.02203447e+00   2.86481010e-01
C     7.255467541100000e+00   6.300620999875603e+00   3.116302200000000e+00  5.00859050e-01  -6.58048829e+00   1.38638488e+00
C     8.470377301099999e+00   5.531463141241638e+00   3.405690000000000e+00  4.61808230e-01  -1.75125393e+00   9.87499600e-02
C     9.770592034299998e+00   6.119596197842327e+00   3.513667500000000e+00 -2.66836821e+00   1.34183256e+00  -8.00461310e-01
C     1.095914606360000e+01   5.400396417752336e+00   3.689006400000000e+00 -1.37027301e+00   9.46421570e-01  -8.07020000e-04
C     1.216695238380000e+01   6.130868630967080e+00   3.609881100000000e+00 -1.19657345e+00   1.10672967e+00   6.14327380e-01
C     4.869357647599999e+00   7.566554322836309e+00   3.278971200000000e+00 -2.88778328e+00   1.67498210e+00  -1.10623660e-01
C     6.072053529800000e+00   8.260520900007375e+00   3.111929700000000e+00 -2.33042412e+00   5.44221652e+00   1.40549019e+00
C     7.283064103499999e+00   7.639970258630309e+00   3.071451000000000e+00  1.42187524e+00   2.19431435e+00   8.19667500e-01
C     8.514349252900001e+00   8.335508013729697e+00   3.322486200000000e+00 -1.20855310e-01  -2.76216400e-02  -6.24101830e-01
C     9.721252052000001e+00   7.534402045115546e+00   3.337050600000000e+00  3.10347330e-01   1.42876571e+00   4.53372200e-02
C     1.094175874240000e+01   8.230522160729668e+00   3.255117900000000e+00  1.05495231e+00   2.43907484e+00   1.32062332e+00
C     1.218743594220000e+01   7.555049543236396e+00   3.451777800000000e+00 -4.87811100e-02   7.78765560e-01  -7.64789670e-01
C     1.342719630390000e+01   8.313423229364854e+00   3.421466400000000e+00  1.23869357e+00  -2.61565662e+00   1.98660220e-01
