32
Lattice="9.86 0 0 4.93 8.53901048131456 0 0 0 30 " PBC="1 1 1" Properties=species:S:1:pos:R:3:force:R:3 Energy="-254.49610737"
C     9.789882384799999e+00   4.429953246919200e-01   3.791979299999999e+00 -5.78127830e-01  -2.24148845e+00   1.24840216e+00
C     1.174943236000000e+00   1.115481337879709e+00   3.953136300000000e+00 -3.83728670e-01  -1.37498927e+00  -4.89668100e-02
C     2.390025200900000e+00   4.066791692907944e-01   3.816859200000000e+00  5.87318640e-01  -1.24484592e+00  -4.08844790e-01
C     3.562124862200000e+00   1.194447203535186e+00   3.875837100000000e+00  1.72881923e+00  -1.18081645e+00  -3.07211940e-01
C     4.797446153299999e+00   4.267111755362456e-01   3.672175800000000e+00  4.28491080e-01  -1.83372660e-01   1.53047958e+00
C     6.044873256600000e+00   1.059054702726821e+00   3.781001400000000e+00  6.36493450e-01   3.86518326e+00   4.79274270e-01
C     7.299702212600000e+00   4.423284279734320e-01   3.869982300000000e+00  7.91658550e-01  -3.09000616e+00   1.42017460e+00
C     8.582349087999999e+00   1.112075809720075e+00   4.064604900000000e+00 -2.00418175e+00   1.52298566e+00  -1.89262988e+00
C     1.102659664740000e+01   2.455583054237914e+00   4.279454400000000e+00  4.22347440e-01   3.58390455e+00   5.28731000e-02
C     2.401642795200000e+00   3.296991529905673e+00   4.337054100000000e+00 -4.49636670e-01  -4.89872910e-01  -1.39744784e+00
C     3.617076614200000e+00   2.635017550959394e+00   4.081763400000000e+00  1.10889300e-01  -2.51198196e+00  -8.91921160e-01
C     4.869107450100000e+00   3.286377625269138e+00   3.782658300000000e+00 -1.61460585e+00  -1.18479537e+00   1.64126624e+00
C     6.085509915500000e+00   2.548963367314364e+00   3.864993600000000e+00 -5.93314020e-01  -1.44091127e+00  -1.61910827e+00
C     7.291384020800000e+00   3.261887487042184e+00   3.826751100000000e+00  1.35944786e+00   2.07210160e-01   1.26972861e+00
C     8.571025765400000e+00   2.585400093543467e+00   4.082046000000000e+00 -2.93052457e+00  -3.17589222e+00  -4.88464970e-01
C     9.769693837600000e+00   3.174644246187814e+00   4.257312300000000e+00  2.07437345e+00   3.39419292e+00  -5.83068000e-02
C     1.229578368610000e+01   4.731751336868556e+00   4.181992200000000e+00 -2.60302505e+00  -5.61934160e-01   1.29009844e+00
C     3.641598286299999e+00   5.443565641404290e+00   4.039153200000000e+00 -4.88277720e-01  -3.34830523e+00  -9.89520740e-01
C     4.780405756200000e+00   4.659552893188794e+00   3.749686500000000e+00  3.34934907e+00   2.52389108e+00  -2.47849290e-01
C     6.063895217900000e+00   5.381809297470205e+00   3.535177800000000e+00 -1.42598889e+00  -1.02215208e+00   1.03118390e+00
C     7.259656315600000e+00   4.690834533401016e+00   3.726248400000000e+00  2.43993391e+00  -8.30364900e-01  -7.33719430e-01
C     8.576410064899999e+00   5.361882833394287e+00   3.748206300000000e+00 -4.56296700e-01  -1.56955435e+00   1.26520397e+00
C     9.745429905899998e+00   4.648896464280067e+00   4.176309900000000e+00  1.83447902e+00   1.07583600e-01  -1.25924004e+00
C     1.101970924020000e+01   5.432274764016901e+00   4.149340500000000e+00 -1.03192054e+00  -4.63799437e+00   2.85490780e-01
C     1.348232997290000e+01   6.798355138908933e+00   3.924576300000000e+00 -8.77842610e-01   3.16837806e+00   1.16322130e-01
C     4.809895685100000e+00   7.514273633441776e+00   3.677603700000000e+00  2.65345860e+00   9.21199440e-01   1.24363950e-01
C     6.105190081100000e+00   6.769674652069130e+00   3.533520300000000e+00 -8.40079690e-01   2.57185060e+00   3.48458840e-01
C     7.381104252700000e+00   7.466483353488360e+00   3.591746100000000e+00 -8.36360030e-01   1.38919284e+00   3.28038300e-02
C     8.663765572999999e+00   6.752922223578731e+00   3.609721500000000e+00 -3.55369751e+00   1.70952774e+00   4.99353440e-01
C     9.802959456300000e+00   7.536988084439414e+00   3.777655500000000e+00 -4.41662020e-01  -6.80428230e-01  -9.09558990e-01
C     1.098618814890000e+01   6.759533723223081e+00   3.944881500000000e+00  1.36338303e+00   4.77281838e+00   4.30568410e-01
C     1.221127530230000e+01   7.507323391251684e+00   4.040733899999999e+00  1.32882748e+00   1.03178768e+00  -1.81325532e+00
