32
Lattice="10.048 0 0 5.024 8.70182325722604 0 0 0 30 " PBC="1 1 1" Properties=species:S:1:pos:R:3:force:R:3 Energy="-257.2422387"
C    -2.863670088638044e-03  -1.235578249275236e-02   2.997567287028582e+00  5.00934980e-01   5.65835760e-01   8.93310000e-02
C     1.266171932288834e+00   7.240185531452569e-01   2.992845153672870e+00 -9.73554530e-01   1.10943390e-01   2.85033000e-02
C     2.501748986007105e+00   1.066916666292950e-02   2.990243773909050e+00  8.78570210e-01  -4.46078550e-01   5.84407000e-03
C     3.770619214629515e+00   7.193313336622307e-01   2.993764081834011e+00 -1.53719070e-01   6.84257480e-01   6.91524200e-02
C     5.024280416581172e+00   1.032060042857376e-02   3.003944825786699e+00 -3.24233900e-02  -4.71002100e-01  -7.59444400e-02
C     6.278639015323772e+00   7.394533774182753e-01   3.010050204522350e+00  1.19829470e-01  -2.56105010e-01  -7.57069500e-02
C     7.529917383656652e+00   1.055460978188793e-02   3.009870745607973e+00  1.49809030e-01  -4.05428390e-01  -8.76357500e-02
C     8.792309542607127e+00   7.208832638436280e-01   3.009080271017337e+00 -1.13756410e-01  -6.16965400e-02   4.11155000e-03
C     1.256255599413640e+00   2.174531599949104e+00   3.002125089421157e+00  1.85069100e-01   1.49657070e-01  -3.09961900e-02
C     2.510409866346524e+00   2.902490522516497e+00   3.007782002381480e+00  2.29317540e-01  -6.99979800e-02  -4.42132900e-02
C     3.778246061627477e+00   2.181092624005823e+00   3.001345440248376e+00 -4.18049320e-01  -2.82244410e-01  -5.88981400e-02
C     5.027705221450230e+00   2.903121119550712e+00   2.991366126953229e+00  2.44760000e-01   4.77328800e-02   7.32014900e-02
C     6.291925668989351e+00   2.182019660293787e+00   2.996373937107320e+00 -3.79691960e-01   1.05070900e-01   7.95586000e-03
C     7.546960428267750e+00   2.904238766658559e+00   2.990917793556161e+00 -2.75661380e-01  -2.45879450e-01   2.31309830e-01
C     8.786340140004889e+00   2.164902062616937e+00   3.014385508599719e+00  7.88048320e-01   5.91671980e-01  -2.47635310e-01
C     1.005746959833381e+01   2.909093177402848e+00   2.997045108920273e+00 -7.17857490e-01  -7.66738660e-01   1.31712110e-01
C     2.503785596209356e+00   4.353967308546779e+00   3.009898197129345e+00  4.17894280e-01  -3.90781920e-01  -1.04707610e-01
C     3.774760940099867e+00   5.064231236957274e+00   2.991570825318770e+00 -4.92427410e-01   9.05786370e-01   2.23786580e-01
C     5.027882074476679e+00   4.352999240849234e+00   2.993624719792465e+00  1.06143370e-01  -1.40349810e-01   3.37272900e-02
C     6.291168878159859e+00   5.073679854611890e+00   3.006368409433183e+00 -2.55147510e-01   1.30150920e-01  -1.27624690e-01
C     7.539626152304708e+00   4.350247180583595e+00   3.006676446598122e+00  2.61301940e-01  -3.20544200e-02  -1.73080940e-01
C     8.799231772372655e+00   5.069397799212819e+00   2.994162916660342e+00 -7.01342560e-01   3.10236990e-01   1.83229640e-01
C     1.003878674810059e+01   4.349753005969951e+00   2.997351712051287e+00  5.43562290e-01  -1.70968610e-01   3.71900900e-02
C     1.129573327740917e+01   5.062997075547464e+00   3.009453266646455e+00  1.28997830e-01   6.90105870e-01  -6.35068000e-02
C     3.762810355980521e+00   6.537531840266007e+00   3.012769418373479e+00  5.48248990e-01  -7.42244370e-01  -2.32916630e-01
C     5.035403452785953e+00   7.251445313857018e+00   3.009838210832989e+00 -4.59764600e-01  -2.57200590e-01  -1.43647470e-01
C     6.290702880498992e+00   6.522620104678237e+00   2.992616390045109e+00 -3.28726200e-02   2.04374910e-01   1.54612400e-01
C     7.543407311438708e+00   7.260713056592932e+00   2.990546384482912e+00 -5.16742430e-01  -3.92856760e-01   9.94307400e-02
C     8.780420403139335e+00   6.518650526883801e+00   3.010123664596873e+00  7.42805960e-01   4.72167190e-01  -2.60004490e-01
C     1.004390972956685e+01   7.253164435950126e+00   2.995870160617546e+00  7.99646400e-02  -1.42194150e-01   1.78177250e-01
C     1.129913635957310e+01   6.518294493326200e+00   3.005546827683897e+00  5.22678100e-02   2.34891920e-01  -1.31463570e-01
C     1.256262092495770e+01   7.253959164613112e+00   2.990583573778843e+00 -4.54515050e-01   7.09381100e-02   3.06706670e-01
