26
Lattice="8.88768389401873 1.33226762955019e-15 0 4.44384194700937 7.69696003302603 0 0 0 30 " PBC="1 1 1" Properties=species:S:1:pos:R:3:force:R:3 Energy="-208.5385473"
C     1.265674194947221e+01   6.990292739354463e+00  -1.315314000000001e-01  2.48065311e+00  -1.54069528e+00  -6.03909000e-03
C     8.957592238373023e+00   6.737664117854607e+00  -3.222807000000003e-01 -8.75729290e-01   6.68212720e-01  -6.92317090e-01
C     1.029957149155378e+01   6.338437194413763e+00  -3.668858999999998e-01  2.97434300e-01   1.87731562e+00   1.11441093e+00
C     1.061703911485059e+01   4.999486188791811e+00  -3.219861000000002e-01  5.73391280e-01  -5.49237100e-01   2.89800160e-01
C     6.539662107263473e+00   6.205324813110939e+00  -2.492285999999986e-01  1.56414920e-01  -2.26264269e+00  -6.66107600e-02
C     7.924634642471578e+00   5.772024217313287e+00  -3.842508000000002e-01 -1.37559149e+00   4.73981340e-01   8.42718490e-01
C     8.236355267140897e+00   4.383624938644203e+00  -3.605333999999978e-01  7.36398700e-01   6.78572300e-01  -1.70162970e-01
C     9.617270530269753e+00   4.034917551147466e+00  -3.897545999999998e-01 -4.21695360e-01  -2.95833153e+00   5.51015900e-01
C     9.978609494287424e+00   2.605847689619063e+00  -2.842055999999999e-01 -4.54178460e-01   1.91013685e+00  -3.31000900e-01
C     4.110400134701166e+00   5.588953100574142e+00  -1.069964999999975e-01  1.13325409e+00   7.06494120e-01   3.36399480e-01
C     5.501988084112240e+00   5.178288109680716e+00  -1.338083999999995e-01 -6.12094700e-02   8.22980770e-01  -1.12151630e-01
C     5.858887472301315e+00   3.792533814356342e+00  -9.828089999999889e-02 -4.20213310e-01  -1.10490670e-01   6.52389000e-02
C     7.231161240370431e+00   3.423059874759464e+00  -2.129036999999983e-01 -7.25408450e-01  -2.63349652e+00   1.67395000e-03
C     7.568296463703964e+00   1.958061989263826e+00  -1.954845000000027e-01  2.00033530e-01   3.52730475e+00  -3.98471400e-01
C     8.941765714164919e+00   1.637532402740916e+00  -2.781173999999993e-01  3.71746600e-02  -6.34705370e-01   8.41989480e-01
C     3.068110559612708e+00   4.655096411023902e+00  -7.815090000000069e-02  1.65734155e+00  -2.71333538e+00  -1.20244436e+00
C     3.456405202297937e+00   3.234463264353982e+00  -1.332032999999981e-01  4.83910510e-01   5.76310170e-01   9.74076730e-01
C     4.814593057865991e+00   2.776505534069826e+00  -2.168849999999978e-02  1.03435558e+00   1.06870491e+00  -1.61299883e+00
C     5.195193588190443e+00   1.388530819715997e+00  -2.296392000000012e-01 -2.79833760e-01   1.74127520e+00   1.33367083e+00
C     6.561240689347557e+00   9.927535198213985e-01  -1.891800000000003e-01 -7.96535160e-01   4.14139980e-01  -4.57767200e-02
C     1.133136520082173e+01   7.319964775001006e+00  -1.703985000000010e-01 -1.74875186e+00   4.33974530e-01  -9.16068850e-01
C     2.466484749153513e+00   2.249636150941078e+00  -1.953612000000007e-01 -9.01775970e-01  -1.33553316e+00  -8.06614900e-02
C     2.814387223805388e+00   8.451125107051466e-01  -1.780881000000001e-01 -6.95606950e-01   2.19509810e-01  -5.52225120e-01
C     4.178540448395148e+00   4.381983254039405e-01  -2.368379999999988e-01 -8.36733020e-01  -1.04247376e+00  -1.17691220e-01
C     3.686711265720491e-01   2.624245425300371e-01  -1.680650999999997e-01  9.43946120e-01  -2.86672580e-01  -4.41338580e-01
C     6.200619053634869e+00   7.560651332105517e+00  -2.201874000000004e-01 -1.41045800e-01   9.48700980e-01   3.94964150e-01
