26
Lattice="8.88768389401873 1.33226762955019e-15 0 4.44384194700937 7.69696003302603 0 0 0 30 " PBC="1 1 1" Properties=species:S:1:pos:R:3:force:R:3 Energy="-205.48738375"
C     1.216303013113834e+01   6.067983721967632e+00   1.683006000000000e-01 -1.61428638e+00  -1.18739515e+00   4.99882000e-02
C     8.403366491337549e+00   5.980980595481325e+00  -5.832209999999804e-02 -5.60659430e-01  -4.57817690e-01   1.67121630e+00
C     9.706018765357905e+00   5.534350019455719e+00   4.270863000000000e-01  1.11177351e+00  -3.94685730e-01  -2.77338834e+00
C     1.008509736869996e+01   4.157039289284254e+00   2.167797000000000e-01 -9.90374710e-01  -7.25701130e-01   5.57258250e-01
C     5.960194182487372e+00   5.303753099376134e+00  -3.592025999999997e-01  2.68800250e-01   2.23100971e+00   2.84913800e-01
C     7.383503608944529e+00   5.031769625215239e+00  -2.331465000000001e-01 -1.54072228e+00  -3.22261296e+00   6.46522160e-01
C     7.716091315519834e+00   3.596557512613296e+00  -6.261899999998377e-03 -2.44116323e+00   2.48016761e+00  -2.52991040e-01
C     9.022619464071107e+00   3.188269573885935e+00   4.247640000000000e-02  2.48205069e+00  -4.66588490e-01  -1.02361669e+00
C     9.306004330540917e+00   1.826047887187682e+00  -3.185810999999994e-01  3.15385793e+00  -1.96681395e+00   2.38027381e+00
C     3.649250568187360e+00   4.617496068550949e+00   1.892031000000000e-01 -2.45934141e+00   4.10462068e+00  -7.60450360e-01
C     4.964325380261066e+00   4.306634710491323e+00  -9.230610000000183e-02  7.48754650e-01  -4.59461700e-01  -2.60094160e-01
C     5.265706651203468e+00   2.935563059150576e+00  -2.560529999999872e-02  3.22261986e+00  -4.15660000e-02   1.01774347e+00
C     6.699908245306935e+00   2.617675300218763e+00   1.388283000000000e-01 -1.09332783e+00   8.90864780e-01  -7.97034380e-01
C     7.114305082441893e+00   1.307275013284091e+00   3.156258000000000e-01 -4.73460630e+00  -4.36545403e+00  -1.95737213e+00
C     8.335111875305380e+00   7.818481174345646e-01  -1.292934000000017e-01 -6.89793800e-02   1.26899598e+00   3.20047320e-01
C     2.553133357766359e+00   3.698062250583325e+00   2.018454000000000e-01  8.59533560e-01   4.58264160e-01   2.05979020e-01
C     2.939067476095991e+00   2.350038299386809e+00   7.889159999999999e-02 -3.64428743e+00  -2.24919773e+00  -1.16961023e+00
C     4.279359091422672e+00   1.952936275701448e+00   4.883310000000000e-02 -4.19161540e-01   7.03027910e-01   3.12245800e-01
C     4.601894338739144e+00   5.844884410653270e-01   1.222773000000000e-01 -1.32139295e+00   2.65566620e-01  -1.16219790e-01
C     5.923863060561475e+00   2.515659022285140e-01   2.441205000000000e-01  4.80753285e+00  -1.99065962e+00   1.25839910e+00
C     1.078383978972814e+01   6.461776822536097e+00   3.556557000000000e-01 -6.15615210e-01   2.86963642e+00  -1.14463450e-01
C     1.818867175244904e+00   1.310387125133021e+00  -1.911738000000014e-01  5.12990170e-01   3.97016516e+00  -5.34479270e-01
C     6.592410956484696e+00   7.667561260256614e+00  -3.969993000000009e-01  1.14564806e+00   4.80079560e-01   1.41529696e+00
C     7.987778215757894e+00   7.320903573215866e+00  -3.043590000000052e-02 -1.65314400e-02  -1.33423480e-01  -1.52129580e+00
C     4.165800313356858e+00   7.074007724515954e+00  -2.327888999999992e-01  1.61999431e+00   8.54242730e-01   2.25549340e-01
C     5.523082380694948e+00   6.729481094798713e+00  -4.890273000000001e-01  1.58689368e+00  -2.91526366e+00   9.35582090e-01
