32
Lattice="9.708 0 0 4.854 8.40737461993933 0 0 0 30 " PBC="1 1 1" Properties=species:S:1:pos:R:3:force:R:3 Energy="-257.53695527"
C    -7.075662758300890e-04  -4.446006310031098e-05   2.999807145811708e+00  7.50201500e-02  -8.47570000e-03  -2.95610000e-03
C     1.214371734710411e+00   6.998164607522265e-01   2.999608922832385e+00 -9.57219900e-02   6.72507000e-02   1.59310000e-03
C     2.426443083186414e+00   4.636573575411698e-04   2.999321421761880e+00  7.59601800e-02  -6.51070100e-02   4.13260000e-03
C     3.641257104884147e+00   6.994266003855761e-01   3.000148541371801e+00 -4.14638600e-02   1.19324520e-01  -1.75208800e-02
C     4.854761413456857e+00   5.948584185347941e-04   2.999245473259217e+00 -6.05835900e-02  -4.95264700e-02   9.82662000e-03
C     6.066301403882622e+00   7.012748021376068e-01   3.001111158671963e+00  1.29553330e-01  -6.21200200e-02  -1.53823300e-02
C     7.281490103244697e+00  -4.912775463185225e-04   3.000650418384726e+00 -4.43971700e-02   3.69779700e-02  -5.01104000e-03
C     8.494956805874514e+00   7.003407459684956e-01   3.000279604537501e+00 -4.15562600e-02   3.24811000e-03  -5.20359000e-03
C     1.213324176567102e+00   2.102048225948775e+00   3.000491796404286e+00  1.09715800e-02  -2.69092800e-02  -4.80746000e-03
C     2.426058069582162e+00   2.803485482756468e+00   3.001186526986666e+00  5.38489600e-02  -6.71070000e-02  -2.40512900e-02
C     3.640930575947256e+00   2.102560019894868e+00   2.998857068299844e+00 -5.86428400e-02  -5.13639900e-02   3.08791800e-02
C     4.853217921265403e+00   2.803368156284233e+00   3.000594450151774e+00  8.21202000e-02  -5.35472900e-02  -2.07267900e-02
C     6.067519634826155e+00   2.100941621364569e+00   2.999961857846726e+00 -4.74385900e-02   9.38998800e-02   6.82875000e-03
C     7.281038282255011e+00   2.802000145984575e+00   2.998897320563887e+00  1.25675500e-02  -3.26010500e-02   4.93658000e-03
C     8.494348750962020e+00   2.100862866933104e+00   2.998896224941600e+00  3.40664200e-02   6.85423800e-02   3.63755000e-03
C     9.708448579300205e+00   2.803305692585063e+00   2.999090377833610e+00 -4.82557600e-02  -1.01273590e-01   1.22301600e-02
C     2.426099738345503e+00   4.203621926594703e+00   2.999265974501744e+00  4.62264000e-02   5.53147900e-02   2.35048700e-02
C     3.641183498411403e+00   4.904562555077122e+00   2.999862874728810e+00 -3.94818500e-02  -6.12772100e-02  -6.37514000e-03
C     4.855169884646523e+00   4.204194444758973e+00   2.999317358718229e+00 -8.97648300e-02  -1.68362200e-02   8.81944000e-03
C     6.066692994099592e+00   4.904395945434490e+00   2.999547172253037e+00  1.16990020e-01  -1.25834800e-02   2.85427000e-03
C     7.281998800292655e+00   4.202683152504465e+00   2.999548757670438e+00 -9.28729700e-02   7.21780800e-02   7.15280000e-04
C     8.493818346377244e+00   4.904876250570316e+00   3.000797367465727e+00  7.85227300e-02  -8.11230900e-02  -6.09360000e-04
C     9.708593557951586e+00   4.202904692360736e+00   3.000869965906337e+00 -8.58777900e-02   7.83644600e-02  -4.97101000e-03
C     1.092029987862369e+01   4.903956361604239e+00   3.001099790800165e+00  7.11822100e-02   6.84088800e-02  -1.11204800e-02
C     3.641572191289017e+00   6.304373404908265e+00   3.000419909824785e+00 -5.80324000e-02   5.60707200e-02  -1.46829500e-02
C     4.853184805487256e+00   7.006310873878840e+00   2.999374132415910e+00  4.56424600e-02  -6.09104000e-03   1.26096500e-02
C     6.066669616303686e+00   6.305539611922317e+00   3.000174246820381e+00  4.49641300e-02   1.42928100e-02  -9.84239000e-03
C     7.280927074507091e+00   7.006165338508772e+00   2.999572245157256e+00  3.19631000e-03  -1.94337400e-02   8.56711000e-03
C     8.495438031508217e+00   6.304928669739197e+00   3.000878787120846e+00 -6.57654500e-02   7.04231600e-02  -1.47715200e-02
C     9.708328121151984e+00   7.006624177273853e+00   2.998860410871851e+00  2.05371400e-02  -8.00024000e-03   1.62975300e-02
C     1.092188179453140e+01   6.306742820471816e+00   3.000015885869144e+00 -1.18866300e-02  -7.50422900e-02  -4.87262000e-03
C     1.213605003123912e+01   7.006001845177985e+00   2.999271969537137e+00 -1.96278200e-02  -5.87776000e-03   1.54722500e-02
