32
Lattice="10.124 0 0 5.062 8.76764118791366 0 0 0 30 " PBC="1 1 1" Properties=species:S:1:pos:R:3:force:R:3 Energy="-256.62994293"
C     2.435832950592421e-03  -2.408931634516723e-03   2.996584505107858e+00 -1.16930860e-01   6.12624700e-02   8.21899000e-02
C     1.263686882893267e+00   7.342106061435461e-01   3.002538673690423e+00  1.41310280e-01  -2.17723510e-01  -6.57542500e-02
C     2.531096220509336e+00  -1.762270397711590e-03   3.003211482950474e+00 -6.30076100e-02   1.53303960e-01  -5.87224300e-02
C     3.799169577484764e+00   7.284002914877574e-01   2.996971075701206e+00 -1.78168130e-01   2.77341900e-02   4.38302700e-02
C     5.059119076026543e+00   4.763539303654732e-04   2.998833475137378e+00  2.44130710e-01  -9.46927800e-02  -9.50291000e-03
C     6.327296599862385e+00   7.290867301744859e-01   2.999784422651230e+00 -9.11886000e-03   1.22870640e-01   1.46463800e-02
C     7.595746689063479e+00   1.290622068831169e-03   3.001748542309130e+00 -6.82329200e-02  -7.32050000e-02  -2.99779300e-02
C     8.861660046767483e+00   7.275451446396707e-01   3.003074911803039e+00 -3.70820900e-02   2.16637680e-01  -7.57320500e-02
C     1.263827659312259e+00   2.191528490625211e+00   2.995988553155364e+00  6.55015000e-02   7.20139200e-02   7.30684500e-02
C     2.532595963086310e+00   2.921963987221807e+00   2.998209684768968e+00 -1.03984340e-01  -2.64581200e-02  -1.23075000e-02
C     3.797451509361049e+00   2.188531843496946e+00   2.997582901949486e+00  1.73312100e-02   1.56711530e-01   2.80613100e-02
C     5.062390353179002e+00   2.924397346583825e+00   3.002867096957700e+00 -4.77282100e-02  -8.99570000e-02  -6.76922400e-02
C     6.327128230681142e+00   2.194424583061415e+00   3.001225755421920e+00 -1.42966300e-02  -1.69808130e-01   1.59888500e-02
C     7.590956949749041e+00   2.920305433637320e+00   3.002458068859549e+00  1.43296250e-01   2.53264870e-01  -4.27848000e-02
C     8.859603582544169e+00   2.194886434212261e+00   2.997528484028517e+00 -7.69121500e-02  -2.30312250e-01   8.55213700e-02
C     1.012292096967232e+01   2.922698737555370e+00   3.001481026111414e+00  4.91714100e-02   7.60057100e-02  -4.79086500e-02
C     2.527448003724040e+00   4.383867289492792e+00   2.999621801989417e+00  2.19734160e-01  -3.66128200e-02  -3.54577100e-02
C     3.798658744424282e+00   5.113864121997665e+00   2.997409928158326e+00 -2.06091360e-01  -8.27493000e-03   2.96487900e-02
C     5.061968092172473e+00   4.384328851403244e+00   2.996865172346631e+00  2.47496000e-03  -6.13013000e-03   3.53360900e-02
C     6.327300631068629e+00   5.115800850817945e+00   2.997150989360609e+00  7.31690200e-02  -6.85687500e-02   8.81185000e-03
C     7.595605089749198e+00   4.388499805427631e+00   2.999514360772785e+00 -1.63130260e-01  -2.78027970e-01   1.98270200e-02
C     8.858928705445635e+00   5.114047474978966e+00   3.001729648587418e+00  2.48539700e-02   5.30719900e-02  -2.36228100e-02
C     1.012497533540934e+01   4.384919154214078e+00   3.003149444498286e+00 -6.75743300e-02  -9.85987700e-02  -4.14655000e-02
C     1.138700540924103e+01   5.113154547996738e+00   2.997267762193629e+00  4.39453500e-02   1.10899010e-01   8.14957100e-02
C     3.794147627905009e+00   6.575329931982983e+00   3.001474922567612e+00  6.57293700e-02  -1.60299500e-02  -6.67174600e-02
C     5.057284006009486e+00   7.305005259404197e+00   2.998783116859209e+00  2.22645700e-01  -3.20896100e-02  -3.77520000e-04
C     6.326103223717401e+00   6.572312552401756e+00   2.997989932567094e+00 -9.35213800e-02   2.03169070e-01  -1.06557000e-03
C     7.589189883962379e+00   7.308322924572983e+00   2.998609313744958e+00  1.50177680e-01  -1.95888610e-01   1.26723500e-02
C     8.858265959282654e+00   6.572733549487727e+00   2.997437345710317e+00 -3.11283300e-02   1.87232170e-01   3.24958900e-02
C     1.012604487146322e+01   7.304993692273164e+00   2.999383673516708e+00 -2.25548760e-01   4.15769500e-02   1.14682000e-02
C     1.138556163866313e+01   6.576882073850983e+00   3.003171420635779e+00  2.65363850e-01  -4.19503800e-02  -8.91630900e-02
C     1.265753932613013e+01   7.307463747600965e+00   2.996578800923520e+00 -2.26379190e-01  -5.14254600e-02   9.31899900e-02
