32
Lattice="9.86 0 0 4.93 8.53901048131456 0 0 0 30 " PBC="1 1 1" Properties=species:S:1:pos:R:3:force:R:3 Energy="-249.05485101"
C     7.501711822000000e-01   1.076374890024034e+00   3.976472400000000e+00  1.55146411e+00   3.34620686e+00  -1.63637452e+00
C     1.990978922400000e+00   1.851510397554418e+00   3.685155000000000e+00  2.26741990e-01  -2.57089734e+00   1.15966564e+00
C     3.228433523100000e+00   1.145051504221425e+00   3.773019900000000e+00  9.69014040e-01   4.77583340e-01   6.43679900e-02
C     4.512987963400001e+00   1.877475479061582e+00   3.512113500000000e+00 -1.08823329e+00  -1.39564090e+00   2.53866792e+00
C     5.800175319499999e+00   1.211420792397015e+00   3.836434800000000e+00 -2.72268145e+00   1.09439943e+00  -1.05541194e+00
C     7.001517374400001e+00   2.007463298576736e+00   3.870867899999999e+00 -2.24770545e+00  -1.75771153e+00  -3.27988010e-01
C     8.114962064899998e+00   1.132791705314870e+00   3.914430600000000e+00  4.74496167e+00   2.83406290e-01   1.82046092e+00
C     9.419238181400001e+00   1.781034016118157e+00   4.056941400000000e+00 -1.40216082e+00   2.83412766e+00  -2.90029276e+00
C     2.016665208400000e+00   3.221391400620994e+00   3.481998300000000e+00 -2.69989676e+00   1.88520050e+00  -1.73459580e-01
C     3.152615595399999e+00   3.945051532835213e+00   3.639010800000000e+00  4.10630524e+00   2.28187366e+00  -1.05324822e+00
C     4.392725050399999e+00   3.294455614573323e+00   3.539676300000000e+00  2.71875205e+00  -5.21437430e-01  -4.01087200e-01
C     5.655561460300000e+00   4.070177154392949e+00   3.519633600000000e+00  4.10765330e-01  -4.65747890e-01   3.19218271e+00
C     6.934705620000000e+00   3.509577710134496e+00   3.824770800000000e+00  2.17650171e+00  -6.49241203e+00  -1.56575382e+00
C     8.304768938300001e+00   3.930935096879991e+00   3.776735400000000e+00 -3.82428945e+00   7.14112672e+00   1.79702541e+00
C     9.481617865799999e+00   3.291195591152269e+00   3.686338500000000e+00  1.45881305e+00  -3.34362920e+00   4.72508710e-01
C     1.068773393550000e+01   4.019809801076669e+00   3.312339600000000e+00 -1.64811414e+00  -7.64042790e-01   2.19223136e+00
C     3.327995908400000e+00   5.400896803766464e+00   3.689477400000000e+00 -7.41881568e+00  -5.19538430e-01  -4.65582100e-01
C     4.417899355899999e+00   6.044582527797413e+00   4.052782199999999e+00  4.99275559e+00   3.92806965e+00  -2.06143616e+00
C     5.670208588900000e+00   5.389904962526084e+00   3.970623600000000e+00  1.89154425e+00   1.10895078e+00  -5.88277130e-01
C     7.017658786000000e+00   6.090062578465465e+00   4.064496000000000e+00 -1.17596895e+00   1.45092792e+00   3.26521240e-01
C     8.340702032099999e+00   5.504705127221301e+00   4.056411900000001e+00 -3.18762220e+00  -4.20131265e+00  -3.57714813e+00
C     9.449172796299999e+00   6.200864180723212e+00   3.597973500000000e+00 -1.54583000e-03   1.68773160e-01   2.01739391e+00
C     1.065399483960000e+01   5.470511599045293e+00   3.351478200000000e+00  2.20868549e+00   5.10898970e-01   3.14339790e-01
C     1.189994023140000e+01   6.246566928784583e+00   3.533514900000000e+00 -5.54165400e-01  -3.32311167e+00   4.60420510e-01
C     4.496131701800000e+00   7.563506920776206e+00   3.771519899999999e+00  2.77285543e+00  -5.69148441e+00   2.06332637e+00
C     5.672949619599999e+00   8.277375882013638e+00   3.808506300000000e+00  3.57500286e+00  -3.32924801e+00   1.40346238e+00
C     6.973901880800000e+00   7.548161123482179e+00   4.017839700000000e+00 -3.33191397e+00  -1.54318047e+00  -1.71353010e-01
C     8.134718990600000e+00   8.256416710010269e+00   4.121696100000000e+00  2.09397177e+00   2.06017978e+00  -2.32223716e+00
C     9.361919881500000e+00   7.588623310031764e+00   3.875281500000000e+00  3.20787615e+00   8.65328860e-01   2.69275630e-01
C     1.065599957480000e+01   8.313124961728787e+00   3.936498000000000e+00 -1.51678949e+00   1.67078715e+00  -6.91913360e-01
C     1.184967656430000e+01   7.628941785034971e+00   3.872251200000000e+00  2.87763909e+00  -4.19825365e+00  -5.95144310e-01
C     1.321486988070000e+01   8.105486711122600e+00   3.963200400000000e+00 -9.16374694e+00   9.00980766e+00  -5.05143070e-01
