32
Lattice="9.86 0 0 4.93 8.53901048131456 0 0 0 30 " PBC="1 1 1" Properties=species:S:1:pos:R:3:force:R:3 Energy="-250.69521224"
C     9.740098653200000e+00   6.364792261363537e-01   4.638037200000000e+00 -2.51096843e+00   2.91163659e+00  -5.32489450e-01
C     1.007289514800000e+00   1.488494348281741e+00   4.738407599999999e+00  3.12573152e+00  -4.48853026e+00  -1.19672210e+00
C     2.392659940800000e+00   5.780215019506929e-01   4.412445900000000e+00 -3.53074752e+00   6.26618634e+00  -4.64713100e-02
C     3.592027530699999e+00   1.326378416445482e+00   4.229749800000000e+00 -2.25766052e+00   3.80766250e-01   3.05318940e+00
C     4.734733545999999e+00   6.012052569643119e-01   4.432611300000000e+00  3.13538738e+00  -1.33134333e+00  -1.23220209e+00
C     6.013134261699999e+00   1.307497981153364e+00   4.424671200000000e+00 -4.30274179e+00   1.75168273e+00   4.55188620e-01
C     7.217215424600000e+00   7.153375002597824e-01   4.512878100000000e+00 -2.85733471e+00  -6.39698731e+00  -1.62666738e+00
C     8.342917919200000e+00   1.299484546768408e+00   4.638601800000000e+00  8.25355257e+00   4.60189069e+00   1.42694654e+00
C     1.089882554160000e+01   2.881667551795032e+00   4.956516000000001e+00  3.38921340e-01  -3.93218805e+00   2.07590430e-01
C     2.347395737400000e+00   3.458670520575670e+00   4.820130300000000e+00 -1.22749965e+00   2.15734100e-01  -5.22381520e-01
C     3.555571659700000e+00   2.713056848587685e+00   4.570245300000001e+00 -5.69411400e-02   1.44644258e+00   2.01867100e-01
C     4.799721545500000e+00   3.447709590553228e+00   4.647969300000000e+00 -2.19067031e+00  -9.49435310e-01  -1.91952678e+00
C     5.953030856900000e+00   2.717904274056972e+00   4.407741000000000e+00  2.15918690e+00   7.76637670e-01   8.78062150e-01
C     7.211028669000000e+00   3.475762545512858e+00   4.453621200000001e+00 -1.49958271e+00  -1.76803345e+00  -1.29263935e+00
C     8.346437495499998e+00   2.760141293934825e+00   4.743846300000000e+00  3.05144440e+00  -2.11771838e+00   1.28901170e+00
C     9.590062139100000e+00   3.419869342344655e+00   5.127491700000000e+00  5.40138810e-01   1.62921393e+00  -2.77413208e+00
C     1.214595383760000e+01   4.867353128823785e+00   4.711894800000000e+00  2.76519469e+00   1.26394108e+00   4.23694860e-01
C     3.590794488400000e+00   5.610077285055444e+00   4.605833400000000e+00 -2.46495633e+00   1.33658107e+00  -7.68384180e-01
C     4.802576607100000e+00   4.856471611598807e+00   4.513025100000000e+00  1.76645730e-01   1.22403901e+00  -2.58689300e-02
C     6.020310862699999e+00   5.508200314990973e+00   4.184052600000000e+00  5.58066570e-01   3.70988487e+00  -8.30947490e-01
C     7.300876341400000e+00   4.807830931591688e+00   4.045794300000000e+00 -1.77345938e+00   6.52290650e-01   3.33197874e+00
C     8.522987648199999e+00   5.435933730007580e+00   4.363824900000000e+00 -2.51824551e+00   5.50689392e+00  -1.49762603e+00
C     9.659424478299998e+00   4.809807797907913e+00   4.834138500000000e+00  4.27002030e-01   7.92311080e-01  -6.16194870e-01
C     1.090151475800000e+01   5.518942475564918e+00   4.662417300000000e+00  5.49211400e-01   3.57654885e+00   1.58779273e+00
C     1.337058393070000e+01   7.086921263608587e+00   4.429669800000000e+00  2.13605773e+00  -1.00892570e+00  -5.34979170e-01
C     4.836410704100000e+00   7.833262886239991e+00   4.279017000000001e+00 -1.98148761e+00  -3.33203078e+00   1.01713863e+00
C     6.007962100099999e+00   7.045183946624023e+00   4.117681500000000e+00  1.16664080e-01  -1.12826810e+00   8.67525690e-01
C     7.254765311900000e+00   7.801856747254970e+00   4.198586400000000e+00 -1.59290906e+00  -4.39994436e+00  -5.99523370e-01
C     8.423878822900001e+00   7.031863090275223e+00   4.220485500000000e+00  2.37166805e+00  -4.10676494e+00   1.09817156e+00
C     9.630843099099998e+00   7.667128923022369e+00   4.463392199999999e+00  1.01579444e+00   3.23985144e+00   1.26601470e-01
C     1.089945776480000e+01   7.095406051372038e+00   4.664982000000000e+00  1.10929364e+00  -4.12226378e+00  -2.23285916e+00
C     1.215036875120000e+01   7.816359146483888e+00   4.387095299999999e+00 -1.06475661e+00  -2.20009911e+00   2.28485564e+00
