32
Lattice="9.86 0 0 4.93 8.53901048131456 0 0 0 30 " PBC="1 1 1" Properties=species:S:1:pos:R:3:force:R:3 Energy="-257.0940188"
C     9.825799899800000e+00   1.235904611756214e+00   3.546025800000000e+00 -7.81443400e-02  -2.52656860e-01   5.41940370e-01
C     1.199461851500000e+00   1.920027844596462e+00   3.637738800000000e+00 -8.88380100e-02  -4.82772440e-01  -9.14818130e-01
C     2.433899735900000e+00   1.208979489300783e+00   3.475670100000000e+00 -4.01545140e-01  -2.66197800e-02   9.28891840e-01
C     3.625641305999999e+00   1.948958097492806e+00   3.485112300000000e+00  9.06906350e-01  -1.81043050e-01  -3.37444800e-02
C     4.860037186800000e+00   1.216459747871368e+00   3.536044200000000e+00 -4.63286760e-01   1.38845930e-01   3.70471900e-02
C     6.062080337000000e+00   1.934909888231320e+00   3.576513000000000e+00  2.43074570e+00  -1.75119152e+00   1.70696400e-01
C     7.350448181600000e+00   1.191999581571198e+00   3.633817800000000e+00 -1.17010486e+00   2.00369183e+00  -2.47025230e-01
C     8.591379566200001e+00   1.941381091933483e+00   3.595554000000000e+00 -1.17492601e+00  -1.73576415e+00   2.05558580e-01
C     1.101470144480000e+01   3.312580859778590e+00   3.721800300000000e+00  1.67344116e+00   2.74067200e+00  -5.87872070e-01
C     2.423363389200000e+00   4.093098334834309e+00   3.684180600000000e+00 -9.47680480e-01  -1.04079929e+00  -7.54718800e-02
C     3.642659370200000e+00   3.388967261148269e+00   3.509153700000000e+00 -4.24610320e-01  -7.64238180e-01   5.82987580e-01
C     4.879839320600000e+00   4.071927736931454e+00   3.514234500000000e+00  3.47485100e-02   2.73400250e-01   4.63832760e-01
C     6.089268005200000e+00   3.319494896564247e+00   3.562313400000000e+00  2.74297840e-01   2.01673682e+00  -1.63417220e-01
C     7.328883129100001e+00   4.051933558502430e+00   3.603009000000000e+00 -7.69371570e-01  -1.24409390e-01   9.21571500e-02
C     8.544324293799999e+00   3.332013769048765e+00   3.631434900000000e+00  1.07510570e+00   1.47736621e+00  -2.97303270e-01
C     9.792064600000000e+00   4.058524564521627e+00   3.634620900000000e+00 -2.54278920e-01  -1.12389919e+00   8.02893400e-01
C     1.230599943490000e+01   5.517655561295477e+00   3.741084000000000e+00 -2.32513056e+00  -7.99534010e-01  -5.51221900e-01
C     3.629931835700000e+00   6.228294727208954e+00   3.599900100000000e+00  1.81672605e+00   5.06723970e-01   3.35580870e-01
C     4.893091259200000e+00   5.503387984854760e+00   3.586680600000000e+00 -2.04891349e+00  -2.46707670e-01  -8.19597180e-01
C     6.075559252800000e+00   6.206857626789019e+00   3.490309200000000e+00  2.12112642e+00   1.04268329e+00   1.09762327e+00
C     7.311622410300000e+00   5.482556641838277e+00   3.591450300000000e+00  2.76862670e-01  -4.50492000e-02  -1.12068280e+00
C     8.557118383299999e+00   6.181514270634904e+00   3.506944500000000e+00  2.63219890e-01   7.14321000e-03   1.09095796e+00
C     9.779873498799999e+00   5.469109151964058e+00   3.645074100000000e+00  9.95204180e-01   4.27610530e-01  -2.89713440e-01
C     1.102885024900000e+01   6.195393492878990e+00   3.714377400000000e+00  8.00740400e-02  -3.04427000e-02  -6.35520390e-01
C     1.349196038280000e+01   7.667189293826462e+00   3.564861300000000e+00  1.51279635e+00  -1.37591784e+00   3.50503730e-01
C     4.916322109399999e+00   8.360382919768879e+00   3.522316800000000e+00 -1.61674244e+00   1.48139100e-02   5.06810300e-02
C     6.142405319999999e+00   7.662974438253534e+00   3.524434200000000e+00 -6.30079790e-01  -2.05691733e+00  -4.90675530e-01
C     7.395655985799999e+00   8.304862785968549e+00   3.495837600000000e+00 -1.02711645e+00   1.73679984e+00  -4.01880200e-02
C     8.607868986500000e+00   7.606685708119898e+00   3.526090500000000e+00 -3.38642120e-01  -4.73891680e-01  -1.42564120e-01
C     9.819902633799998e+00   8.330924870634767e+00   3.592130700000000e+00 -4.00213590e-01   5.56029100e-02  -7.71135660e-01
C     1.103351491640000e+01   7.612639533177078e+00   3.579512400000000e+00  1.13802000e-02  -2.45320470e-01   1.34149686e+00
C     1.225404226350000e+01   8.330991560306614e+00   3.660575700000000e+00  6.86989760e-01   3.15084030e-01  -9.11897660e-01
