32
Lattice="9.86 0 0 4.93 8.53901048131456 0 0 0 30 " PBC="1 1 1" Properties=species:S:1:pos:R:3:force:R:3 Energy="-254.18327956"
C     5.062265244500000e+00   7.514977931026166e+00   3.801564000000000e-01 -2.56969620e-01  -1.62912582e+00  -5.64314750e-01
C     6.297987739000000e+00   8.206696442908163e+00   2.919186000000000e-01  2.38098340e-01   8.67463900e-02   4.30180230e-01
C     7.536591917099999e+00   7.436825491509014e+00   2.283186000000000e-01 -1.38979960e+00   3.41827200e+00   1.93998980e-01
C     8.699354799300000e+00   8.202244288233997e+00   7.196760000000001e-02  3.45751700e+00  -2.59669875e+00   4.26341900e-01
C     1.000679572930000e+01   7.473754662472499e+00   1.446360000000000e-02 -3.29682420e-01  -1.15981740e-01   2.61711640e-01
C     1.123144919060000e+01   8.211541135894096e+00   1.757154000000000e-01 -1.11129000e-03  -3.12793024e+00  -1.53121389e+00
C     1.244789474420000e+01   7.398272798482966e+00   8.381550000000000e-02 -1.47807420e-01   2.69022939e+00   2.00765723e+00
C     1.363219452860000e+01   8.158063362620371e+00   3.971001000000000e-01  2.52395188e+00  -1.66431941e+00  -1.33970993e+00
C     1.358010651500000e+00   1.102681104999874e+00   1.148499000000000e-01  4.73250330e-01  -6.06796040e-01  -2.57629657e+00
C     2.600833529200000e+00   1.752754862770912e+00  -2.709618000000020e-01 -6.33999200e-02   9.47245750e-01   1.84839383e+00
C     3.840391169300000e+00   1.047036984767374e+00  -6.149099999998242e-03 -3.24036410e-01   1.79520593e+00  -1.81459644e+00
C     5.091270998100000e+00   1.754974236984769e+00  -1.459247999999995e-01  8.84605160e-01   4.62290000e-04   9.59166030e-01
C     6.383812827200000e+00   1.070386994315038e+00   9.885480000000001e-02 -3.18580313e+00   5.22096700e-01  -5.79536910e-01
C     7.580384909899999e+00   1.747628297049034e+00   4.178820000000000e-02  1.13992705e+00   1.85752234e+00  -1.77785110e-01
C     8.842323862600001e+00   9.961218539288016e-01   2.022648000000000e-01 -5.84258481e+00   1.69347212e+00  -6.53608720e-01
C     9.923009787699998e+00   1.703153885645212e+00  -1.533377999999992e-01  4.81286804e+00   3.58911117e+00   3.03859060e-01
C     2.642187305900000e+00   3.199684638250100e+00  -4.566978000000006e-01 -1.70082097e+00  -9.47791440e-01   9.62542000e-01
C     3.864481811500000e+00   3.865651800057247e+00  -1.982073000000000e-01 -2.54262020e-01   2.80896375e+00  -1.21066933e+00
C     5.091570002599999e+00   3.200519497304730e+00  -2.325465000000015e-01 -8.88782400e-02  -1.89593958e+00   1.83855945e+00
C     6.292208447900000e+00   3.881850644498226e+00   5.239380000000000e-02  5.89667020e-01   2.56118597e+00  -1.43388103e+00
C     7.520715887400000e+00   3.232364029087794e+00  -1.376532000000026e-01  3.82261080e-01  -2.43320178e+00   1.11666124e+00
C     8.699764482299999e+00   3.986406045979958e+00  -2.908472999999994e-01  1.99508597e+00  -1.86406750e+00  -4.58824600e-02
C     9.946427682100000e+00   3.201053441630044e+00  -4.925670000000011e-01 -3.90523270e-01  -5.06325790e-01   1.61970146e+00
C     1.121363655830000e+01   3.916714741167228e+00  -5.075967000000006e-01  4.22909170e-01  -1.87884981e+00   1.82155400e-02
C     3.901706121600000e+00   5.343397498117079e+00  -5.914860000000033e-02 -6.27697490e-01  -1.00717528e+00   1.21054920e-01
C     5.129832915800000e+00   6.081612202914248e+00   1.680678000000000e-01 -1.52397455e+00  -3.51786920e-01   4.50329270e-01
C     6.346594334500000e+00   5.366536252545468e+00   1.755405000000000e-01 -1.08369867e+00  -2.07690217e+00   4.36590900e-02
C     7.563768936499999e+00   6.065089303025553e+00   2.477730000000000e-01 -9.01910300e-02  -1.14454329e+00  -1.05556245e+00
C     8.742924906799999e+00   5.382537248113626e+00  -8.868269999999967e-02  2.24366782e+00  -1.12346747e+00  -4.70856490e-01
C     1.006500285890000e+01   5.986949842804330e+00  -1.922967000000000e-01 -3.98706793e+00   4.28233504e+00   1.04103072e+00
C     1.123383797280000e+01   5.321714901145843e+00  -3.623739000000015e-01  2.35991803e+00  -7.52033670e-01   4.64911660e-01
C     1.249511758730000e+01   6.015077343325450e+00  -9.258330000000115e-02 -2.35418100e-01  -5.29912130e-01  -6.54060150e-01
