32
Lattice="9.86 0 0 4.93 8.53901048131456 0 0 0 30 " PBC="1 1 1" Properties=species:S:1:pos:R:3:force:R:3 Energy="-255.11937794"
C     4.979203372000000e+00   8.413501542261816e+00  -3.127101000000003e-01 -1.31885353e+00   1.14983322e+00   2.69092490e-01
C     1.296624066300000e+00   6.009151867783064e-01  -2.883486000000026e-01 -2.76094321e+00  -3.86994470e-01  -1.60903940e-01
C     7.378299674299999e+00   8.411755400008760e+00  -2.676380999999992e-01  3.83089936e+00   7.41293720e-01  -6.56323100e-02
C     3.711337129600000e+00   6.098388796804305e-01  -3.582926999999998e-01 -1.06150935e+00  -5.69973140e-01  -4.82060920e-01
C     9.865958447299999e+00   8.425618654303252e+00  -4.579208999999977e-01 -7.92601220e-01   7.84703170e-01  -1.59517970e-01
C     6.130964466200000e+00   6.215757495851905e-01  -4.885076999999995e-01  1.78449010e+00   6.41652420e-01   1.50364831e+00
C     1.227600137090000e+01   8.426447450660440e+00  -3.698690999999990e-01  2.56134413e+00  -4.30319440e-01  -1.48579950e+00
C     8.641364096700000e+00   5.690554555565880e-01  -2.444670000000002e-01 -6.58702390e-01   2.00345351e+00  -5.52505620e-01
C     1.301493476600000e+00   1.998538324823040e+00  -4.318172999999987e-01 -9.28748460e-01   2.29248908e+00   6.94792070e-01
C     2.474328398100000e+00   2.794341397148902e+00  -5.167142999999967e-01  1.69249717e+00  -2.26013766e+00  -5.77150090e-01
C     3.687219520299999e+00   2.021786378585574e+00  -4.806419999999996e-01  1.38274879e+00   1.00740739e+00   1.88837540e-01
C     4.944412362000000e+00   2.747861257573432e+00  -4.831547999999977e-01 -1.51883632e+00   1.73558058e+00   6.95815260e-01
C     6.169233640500000e+00   2.077670445012562e+00  -3.499304999999993e-01  2.50454320e-01  -1.04626802e+00  -7.75036340e-01
C     7.409353596399999e+00   2.795043047640043e+00  -2.899503000000010e-01  5.55771840e-01  -6.47951600e-02   3.83362510e-01
C     8.649158673200001e+00   2.079276376713536e+00  -2.235939000000009e-01  1.51977478e+00  -1.46964422e+00  -5.57953120e-01
C     9.978112989299998e+00   2.763164615985374e+00  -3.512082000000021e-01 -3.72133247e+00   1.70898110e-01  -3.71173590e-01
C     2.496321916900000e+00   4.174857908548527e+00  -7.277205000000002e-01 -1.90411755e+00   1.46686366e+00   5.93108500e-01
C     3.690783022900000e+00   4.968730054434547e+00  -6.982755000000012e-01  1.25213425e+00  -3.08742290e+00   7.50253930e-01
C     4.882702713900000e+00   4.228862367988659e+00  -4.357013999999992e-01  1.72425157e+00  -1.47097314e+00  -1.04844872e+00
C     6.151168542899999e+00   4.918540824876879e+00  -3.393359999999994e-01  3.84367400e-01  -7.19819640e-01   3.91549180e-01
C     7.423869734899999e+00   4.244174863141813e+00  -2.910488999999998e-01 -1.30816014e+00  -2.18667995e+00  -3.75873990e-01
C     8.650192937899998e+00   4.888907042907087e+00  -4.154249999999990e-01  8.14850580e-01   1.65344417e+00  -2.17541070e-01
C     9.909549901700000e+00   4.249084452607394e+00  -5.181477000000001e-01 -2.37685031e+00  -4.94592282e+00   8.51459430e-01
C     1.106781918750000e+01   4.868773422436925e+00  -6.874824000000004e-01  5.15941927e+00   3.46572053e+00  -5.67723420e-01
C     3.774882857600000e+00   6.355058301756965e+00  -6.700106999999988e-01 -2.58439747e+00  -1.39860204e+00  -1.36657900e-02
C     4.945536401999999e+00   6.998278222766230e+00  -4.253111999999994e-01  2.81644214e+00   1.87249126e+00   7.15522850e-01
C     6.191209164800000e+00   6.309843216584108e+00  -2.602416000000005e-01  2.65230910e-01   5.35424410e-01  -7.14657980e-01
C     7.460145266500000e+00   7.023804826085247e+00  -2.202756000000008e-01 -8.69459640e-01  -1.40048616e+00  -1.10338300e+00
C     8.715536587599999e+00   6.318245090555798e+00  -4.719096000000000e-01 -2.79527632e+00  -6.02780520e-01   1.44263328e+00
C     9.900892920299999e+00   7.011864044610225e+00  -5.311686000000009e-01  2.28459651e+00   9.86528430e-01  -2.22823520e-01
C     1.120467145190000e+01   6.354990928964278e+00  -6.611888999999991e-01 -6.45898316e+00  -4.68334971e+00  -3.56961160e-01
C     1.236158834010000e+01   6.954394113156891e+00  -6.734805000000001e-01  2.77949844e+00   6.21638534e+00   1.32873669e+00
