26
Lattice="8.88768389401873 1.33226762955019e-15 0 4.44384194700937 7.69696003302603 0 0 0 30 " PBC="1 1 1" Properties=species:S:1:pos:R:3:force:R:3 Energy="-207.2583834"
C     1.318497881994150e+01   7.504283953809017e+00  -3.474419999999974e-01  1.03498073e+00   7.59900300e-02   6.25837040e-01
C     9.394495447477457e+00   7.240653451581480e+00  -3.402908999999994e-01  1.46358082e+00   1.63271658e+00   5.10438510e-01
C     1.081142507217577e+01   6.860129217378332e+00  -5.316425999999979e-01 -1.39393840e+00   8.45240800e-01   3.79312290e-01
C     1.115016047862295e+01   5.499318691331979e+00  -4.942223999999982e-01  2.81685870e-01  -1.01565692e+00  -5.33011200e-02
C     7.013760717794443e+00   6.650880508668356e+00  -8.568449999999928e-02  6.13786750e-01   2.88275696e+00   3.52418980e-01
C     8.375008203021023e+00   6.255998519164446e+00  -1.940495999999996e-01  2.19957190e-01   3.22376710e-01  -6.04266590e-01
C     8.656697832647740e+00   4.866204474368326e+00  -3.143649000000011e-01  3.91905741e+00   2.07428726e+00  -3.69847800e-02
C     1.011877506951615e+01   4.461209218172200e+00  -3.753122999999974e-01 -1.38994940e+00   2.97389344e+00   1.29881760e-01
C     1.044386241529581e+01   3.145362254441898e+00  -1.727604000000014e-01  4.34422990e-01  -2.40893395e+00   2.65007600e-01
C     4.668281697042942e+00   6.119975840304678e+00  -2.926862999999997e-01 -1.99264881e+00   2.06414379e+00  -1.19992891e+00
C     5.975346795047592e+00   5.759656049210681e+00  -2.211086999999985e-01  1.18186400e+00  -2.50077779e+00   1.04824330e-01
C     6.273215653301657e+00   4.365476584467868e+00  -3.282962999999981e-01  1.88570066e+00   1.05902933e+00  -2.17810190e-01
C     7.626909629314451e+00   3.984552647130362e+00  -3.397025999999990e-01  6.45347310e-01  -3.27624580e+00   3.21949360e-01
C     8.026579085352859e+00   2.569157897517659e+00  -3.176972999999990e-01 -1.10697950e+00  -4.30654600e-02  -1.87406550e-01
C     9.370138479840151e+00   2.151044481433602e+00  -1.149543000000008e-01  1.65659027e+00   8.99567270e-01  -6.43483370e-01
C     3.697311430171264e+00   5.131680399732657e+00  -4.844429999999988e-01 -4.16921620e+00   2.24363070e+00   9.17988170e-01
C     3.960177212012749e+00   3.839285226548162e+00  -2.818688999999992e-01  2.95373300e-02  -6.21862767e+00  -2.13392450e-01
C     5.310784317613564e+00   3.391695917181219e+00  -3.759869999999985e-01 -1.63412577e+00   2.64630290e-01   1.11145690e+00
C     5.646336822277976e+00   2.046787387526446e+00  -3.193577999999988e-01 -8.26562430e-01  -3.48703765e+00  -5.85710970e-01
C     6.967031983365461e+00   1.603292399077861e+00  -4.554092999999995e-01  2.59687772e+00  -9.79099160e-01   5.06301850e-01
C     7.393714265871218e+00   1.845998869403044e-01  -5.325093000000010e-01 -1.66722386e+00   9.64385530e-01   6.96719610e-01
C     2.951819036359226e+00   2.720228287175278e+00  -1.159794000000005e-01 -4.89260770e-01   3.59476775e+00  -2.02351670e-01
C     3.318030450940479e+00   1.388119879019995e+00   4.100250000000000e-02 -1.86662530e+00  -1.82996644e+00  -6.29322940e-01
C     4.639707967749533e+00   9.772741635050654e-01  -1.813706999999987e-01  1.02100193e+00  -4.08261090e-01  -3.52216190e-01
C     9.184987142034080e-01   7.815657159710638e-01  -8.290889999999962e-02 -3.62131705e+00  -1.37713500e-02  -5.56740550e-01
C     2.217866011397676e+00   3.603246401788167e-01   5.534250000000000e-02  3.17345651e+00   2.84026840e-01  -4.39220110e-01
