32
Lattice="9.86 0 0 4.93 8.53901048131456 0 0 0 30 " PBC="1 1 1" Properties=species:S:1:pos:R:3:force:R:3 Energy="-256.98276868"
C     4.918651780899999e+00   8.346109878361455e+00   2.363940000000000e-02  9.09746000e-01   1.32003947e+00  -1.27675090e-01
C     1.244641308200000e+00   5.143116031989936e-01   2.258910000000000e-02 -2.07866510e-01   9.50977460e-01  -2.71233080e-01
C     7.415334721700001e+00   8.333285309301752e+00   3.700530000000000e-02 -1.88909425e+00  -2.44541200e-02  -5.09325920e-01
C     3.670135394100000e+00   5.004634629530536e-01  -5.792429999999982e-02  1.77805300e+00   1.23710903e+00   9.25692690e-01
C     9.846734947600000e+00   8.371468604734435e+00  -2.903669999999892e-02  1.11144152e+00   2.25786450e-01  -2.93330410e-01
C     6.167465249499999e+00   5.592651384808488e-01  -2.957609999999988e-02 -5.05005970e-01  -4.78199480e-01  -1.52818730e-01
C     1.231778174050000e+01   8.346717514347212e+00  -2.891370000000038e-02 -3.22116440e-01   1.74009130e-01   2.96712760e-01
C     8.600594475699999e+00   5.207099691417624e-01   2.890770000000000e-02  1.31000062e+00   5.58271100e-02  -2.81425600e-02
C     1.268794413500000e+00   1.970474269149786e+00  -7.203600000000066e-02 -1.65698980e-01  -9.99451030e-01   1.25079847e+00
C     2.514507207900000e+00   2.685664556868894e+00   2.325060000000000e-02 -1.90999454e+00  -1.58537319e+00  -6.85633750e-01
C     3.722725133800000e+00   1.928092342264088e+00   2.859960000000000e-02 -1.26090702e+00   9.24828040e-01  -6.00975290e-01
C     4.895788215700000e+00   2.686178946860209e+00   3.036000000000000e-04  2.56338718e+00  -2.85860500e-02   1.22545000e-03
C     6.167764747000000e+00   1.987381253729872e+00  -5.181389999999908e-02  2.76811740e-01  -2.23650600e-02   7.14078610e-01
C     7.433777703800000e+00   2.684936093884845e+00   8.810999999999999e-04 -1.11122246e+00   3.45587080e-01  -5.49182100e-02
C     8.658803626599999e+00   1.944732653546883e+00   6.930539999999999e-02 -4.78984250e-01   9.31722460e-01  -9.92836820e-01
C     9.893041895299998e+00   2.683266119605272e+00  -2.714609999999951e-02  1.41459740e-01  -2.76915340e-01   5.39161220e-01
C     2.415046380600000e+00   4.078082826465648e+00  -3.961890000000068e-02  2.61391714e+00   1.23555185e+00   1.54306380e-01
C     3.668126912100000e+00   4.793951538567391e+00  -1.045608000000016e-01  4.49250320e-01   8.65933820e-01   1.00894003e+00
C     4.917828076499999e+00   4.129952789456094e+00   1.762920000000000e-02 -5.72929810e-01  -1.35943542e+00  -4.53018670e-01
C     6.154330201200000e+00   4.832887120823361e+00   4.899870000000000e-02  7.73047150e-01  -8.28140570e-01  -1.03351297e+00
C     7.404249074399999e+00   4.133450795099225e+00  -3.723869999999962e-02  5.68071550e-01  -1.32597453e+00   4.64199100e-01
C     8.672507202500000e+00   4.810413384531154e+00  -7.765410000000017e-02 -1.53061069e+00   5.57902510e-01   6.80584850e-01
C     9.901657218200000e+00   4.129136033103681e+00   2.129130000000000e-02 -1.76332769e+00  -1.85442612e+00  -7.79936650e-01
C     1.108440380610000e+01   4.829407901003285e+00   6.845100000000000e-03  1.05901414e+00  -7.90228300e-02  -4.28440780e-01
C     3.708695537000000e+00   6.224000031888038e+00  -6.913950000000213e-02  9.49626730e-01  -2.98218770e-01  -3.23158000e-03
C     4.982228370700000e+00   6.959915266553049e+00  -3.502890000000036e-02 -2.12288765e+00  -1.66290368e+00   9.68525100e-02
C     6.202155391700000e+00   6.236831346766020e+00  -2.521559999999923e-02 -1.71557891e+00  -2.74125000e-01   5.08003550e-01
C     7.402709336799999e+00   6.908730302983309e+00   1.690920000000000e-02  1.59883322e+00   1.15195344e+00  -4.23746210e-01
C     8.638828449800000e+00   6.226910126659623e+00  -6.171240000000111e-02  1.46002060e+00   3.23923340e-01   4.04709640e-01
C     9.898894396899999e+00   6.967526940494920e+00  -3.289559999999980e-02 -1.25230484e+00  -9.93848600e-01  -1.63918630e-01
C     1.112995049850000e+01   6.247033927267733e+00  -4.149029999999954e-02 -1.85992014e+00  -9.12415780e-01   2.71805730e-01
C     1.233613928570000e+01   6.895912308961676e+00  -3.138449999999793e-02  1.10576951e+00   2.70270440e+00  -3.14375620e-01
