32
Lattice="9.86 0 0 4.93 8.53901048131456 0 0 0 30 " PBC="1 1 1" Properties=species:S:1:pos:R:3:force:R:3 Energy="-248.52277265"
C     4.924026664100000e+00   8.141063132045844e+00  -5.238084000000001e-01  7.71541342e+00  -2.37963984e+00   5.04308680e-01
C     1.402635779000000e+00   2.322433239142016e-01  -4.406058000000002e-01 -2.93361232e+00   2.27742370e+00  -2.53598905e+00
C     7.532502531399999e+00   8.051030623418182e+00  -6.175329000000005e-01 -1.62431069e+00  -1.89729310e-01   2.25807060e+00
C     3.771836265500000e+00   2.665008946688088e-01  -5.305877999999993e-01  4.37282225e+00   2.08803450e-01   1.85942797e+00
C     1.004401042590000e+01   8.142845394313229e+00  -2.464028999999996e-01 -3.21090465e+00  -1.11809531e+00  -2.57725249e+00
C     6.261787932199999e+00   2.940541467351488e-01  -4.889550000000007e-01  2.22922695e+00   1.35797938e+00   1.34378581e+00
C     1.246368252690000e+01   8.042362417709620e+00  -3.006807000000009e-01 -2.96579803e+00   4.15042512e+00  -8.85191480e-01
C     8.691860361200000e+00   2.456500827084304e-01  -4.313235000000013e-01 -1.32730040e-01   3.00994250e+00  -5.81048770e-01
C     1.441214113600000e+00   1.734023518601775e+00  -4.365245999999985e-01 -3.28900324e+00  -2.42131593e+00   2.52362444e+00
C     2.553425268800000e+00   2.308884561993610e+00   1.877871000000000e-01  1.92608331e+00   2.34805414e+00  -2.80196392e+00
C     3.909604869000000e+00   1.657804652617713e+00  -1.793546999999975e-01 -4.81025372e+00   5.13234240e-01   9.96611840e-01
C     5.071319041600000e+00   2.434398793918291e+00  -1.125779999999992e-01  4.95981730e-01   6.42789440e-01  -5.15728530e-01
C     6.251549209600000e+00   1.781683493255266e+00  -5.653478999999990e-01  1.73447504e+00  -2.98139418e+00   1.58442723e+00
C     7.585085270500000e+00   2.388838134991308e+00  -5.589782999999997e-01 -5.49848537e+00  -3.09421280e-01   2.38684100e-01
C     8.731152757000000e+00   1.708280109806670e+00  -4.714481999999975e-01  2.64893385e+00  -1.85474786e+00  -1.00542070e+00
C     9.950800937199999e+00   2.464659680817734e+00  -4.336038000000002e-01  3.29574963e+00  -1.93160201e+00   2.54350573e+00
C     2.464811969800000e+00   3.774408801303941e+00   4.017822000000000e-01  4.53085784e+00   9.68407710e-01  -4.76464000e-02
C     3.774319161399999e+00   4.530616908984566e+00   2.432574000000000e-01 -1.44999100e-02   4.29499010e-01   1.50677254e+00
C     5.030329838400000e+00   3.890049204630389e+00   1.844679000000000e-01  1.47717714e+00  -2.49838416e+00  -3.28861452e+00
C     6.325253794200000e+00   4.528111221749315e+00  -2.704013999999972e-01 -2.93303604e+00  -2.88645422e+00   2.20900308e+00
C     7.477590367299999e+00   3.727341007027237e+00  -4.803135000000012e-01  3.96050844e+00   5.90085842e+00   3.16790950e-01
C     8.843338703099999e+00   4.561757228573344e+00  -3.985449000000010e-01 -3.05690804e+00  -1.43075386e+00   1.76735984e+00
C     9.989862214599999e+00   3.789629929044960e+00   1.190739000000000e-01 -1.37120323e+00   3.07797683e+00  -3.35098018e+00
C     1.120493466460000e+01   4.619793723372028e+00   4.426665000000000e-01 -2.23716419e+00  -6.07454741e+00  -1.36615949e+00
C     3.849202952700000e+00   5.982829941027940e+00   1.514862000000000e-01 -9.83472800e-02   1.34605405e+00  -3.03134567e+00
C     5.079737904000000e+00   6.722595586298592e+00  -4.492766999999986e-01 -2.12452615e+00  -3.70455783e+00   4.71291709e+00
C     6.315640047699999e+00   5.883886377233664e+00  -1.626905999999977e-01 -1.47302090e-01   5.17688075e+00  -3.24037537e+00
C     7.532479853400000e+00   6.603555119779218e+00  -3.743991000000015e-01 -2.50254735e+00   2.70352186e+00  -1.36488009e+00
C     8.709829521000000e+00   6.003705345338501e+00  -4.566708000000013e-01  6.75393461e+00  -2.92481597e+00   2.23915200e+00
C     1.007021165040000e+01   6.723617193512418e+00  -1.670280000000020e-01 -3.87970774e+00  -1.33596459e+00  -9.81443700e-02
C     1.116177902220000e+01   5.950691752674468e+00   2.426106000000000e-01  2.82474384e+00   5.08946064e+00  -1.28184536e+00
C     1.248120359900000e+01   6.751883026003315e+00   6.522359999999999e-02 -1.13556795e+00  -5.15988750e+00   1.36814448e+00
