26
Lattice="8.88768389401873 1.33226762955019e-15 0 4.44384194700937 7.69696003302603 0 0 0 30 " PBC="1 1 1" Properties=species:S:1:pos:R:3:force:R:3 Energy="-206.03690677"
C     1.286078179683019e+01   7.180161118465702e+00  -3.948473999999997e-01 -1.23671295e+00  -3.51906358e+00  -2.20682860e-01
C     9.100900097614836e+00   6.954118797514270e+00  -4.401426000000015e-01  5.78024760e-01  -2.81062126e+00   1.34963468e+00
C     1.043284608886470e+01   6.515039862913297e+00  -5.045165999999988e-01  1.15667675e+00  -5.02514560e-01  -8.10819260e-01
C     1.078364510413657e+01   5.113322303395503e+00  -6.005180999999986e-01  2.06217753e+00   2.22019133e+00   9.25830620e-01
C     6.817345614361164e+00   6.330892865101158e+00  -3.872979000000001e-01 -5.08322970e+00   1.41408808e+00   1.78079738e+00
C     8.109903301500314e+00   5.949894344220962e+00  -2.205468000000010e-01  1.77127233e+00  -5.86981770e-01  -2.52875426e+00
C     8.502335605475801e+00   4.614344779175466e+00  -4.461735000000004e-01 -3.71727301e+00  -3.61991327e+00   1.22401674e+00
C     9.790291783124108e+00   4.181564036058242e+00  -5.602413000000013e-01  1.85280420e-01  -1.84621895e+00   2.21564150e-01
C     1.014593089773420e+01   2.790602439395171e+00  -4.417778999999982e-01 -6.08056360e-01  -9.52944510e-01   1.40057626e+00
C     4.301075349595376e+00   5.769147401532474e+00  -3.785246999999998e-01  1.16427605e+00  -9.47603390e-01  -1.24791294e+00
C     5.737797268599394e+00   5.361119850962929e+00  -4.584416999999981e-01 -5.28603800e-01  -1.39076159e+00   1.26021713e+00
C     6.058345896306069e+00   3.887555325923502e+00  -3.792168000000018e-01 -5.05056960e-01   1.69184121e+00  -1.37252187e+00
C     7.460357543544936e+00   3.429947422472709e+00  -3.711620999999994e-01 -1.92696142e+00   8.01794208e+00  -4.15680530e-01
C     7.723824799403410e+00   2.152532457746602e+00  -3.966849000000003e-01  4.64972477e+00  -4.49681180e+00   3.51843920e-01
C     9.230375250995550e+00   1.734142874736669e+00  -2.444720999999994e-01 -5.08407934e+00   3.32394277e+00  -2.11088758e+00
C     3.261403819468194e+00   4.708750841818628e+00  -4.809836999999995e-01  1.04561311e+00   2.61398336e+00   6.59292750e-01
C     3.600469758884874e+00   3.356594623690806e+00  -3.043905000000002e-01  1.30927984e+00   2.82086390e-01  -1.66507281e+00
C     4.962527267614597e+00   2.951564346326543e+00  -5.078631000000016e-01  1.89844807e+00  -8.83807360e-01   1.63003241e+00
C     5.352642996724623e+00   1.524368001839042e+00  -5.462085000000023e-01  1.26265650e-01   3.04018974e+00   6.40922100e-01
C     6.735431694727957e+00   1.156120957670946e+00  -5.147489999999983e-01 -2.11581429e+00   1.16013208e+00   4.92065000e-02
C     1.143886120432735e+01   7.500231889201223e+00  -4.938240000000000e-01  3.08321497e+00  -5.57210550e-01   2.94847450e-01
C     2.581362596249778e+00   2.402392174845266e+00  -2.480982000000012e-01  1.75252282e+00  -1.05417209e+00  -3.38713610e-01
C     2.976608163210289e+00   1.012810027358771e+00  -1.484790000000018e-01 -2.61899960e-01   6.28197910e-01  -7.71132780e-01
C     4.362278026092916e+00   5.741397243657914e-01  -3.571859999999987e-01 -2.44256749e+00   2.28005710e+00   6.02574100e-02
C     5.874534639819239e-01   3.921541868692769e-01  -3.247683000000023e-01  6.18896260e-01   3.82483270e-01   1.12462812e+00
C     1.941732116317653e+00   7.008189864755419e-02  -1.767669000000005e-01  2.10858196e+00  -3.88651063e+00  -1.49148912e+00
