32
Lattice="10.132 0 0 5.066 8.77456939114393 0 0 0 30 " PBC="1 1 1" Properties=species:S:1:pos:R:3:force:R:3 Energy="-256.44457779"
C     5.333636678577965e-04   9.780185346511434e-03   2.994416801960075e+00 -3.74943400e-02  -5.17862560e-01   5.11054000e-02
C     1.264028619591518e+00   7.395328597544349e-01   2.993695044337027e+00  1.16878500e-02  -3.31220370e-01   1.27613320e-01
C     2.521369535317197e+00   1.282535011172313e-02   3.008807201202235e+00  8.32206950e-01  -4.71995050e-01  -2.97338340e-01
C     3.808258149557524e+00   7.439048293144196e-01   2.987949946015451e+00 -3.72082130e-01  -5.34157250e-01   2.41095980e-01
C     5.079531825279412e+00  -9.963617480455902e-03   3.001643371962758e+00 -5.74749360e-01   7.47623190e-01  -5.62763900e-02
C     6.331790754472143e+00   7.418222558523966e-01   3.007143362855787e+00  3.81326360e-01  -2.85564590e-01  -1.03366460e-01
C     7.606621390422510e+00   9.329486341126453e-03   3.002212935903265e+00 -3.94367760e-01  -1.60817480e-01   9.46815600e-02
C     8.867801695995055e+00   7.326141326859054e-01   3.002865997771838e+00  5.44472600e-02   2.49589090e-01  -6.17941200e-02
C     1.267609411684150e+00   2.187279308196709e+00   3.000648529740092e+00 -2.28346590e-01   3.90081770e-01  -9.44146100e-02
C     2.525343975396301e+00   2.916835893499544e+00   2.989383883821570e+00  3.57659670e-01   2.83245880e-01   2.06758950e-01
C     3.802699791636580e+00   2.199712983098301e+00   2.999299062385796e+00  4.96153200e-02  -2.51955380e-01  -8.78356800e-02
C     5.076437937631401e+00   2.923956528363409e+00   3.007138037833557e+00 -5.23561620e-01   2.52131520e-01  -4.63215400e-02
C     6.336683995263177e+00   2.207503501903462e+00   2.998722364643523e+00  9.53670200e-02  -5.63119380e-01   1.00999370e-01
C     7.608404916411544e+00   2.920211199069923e+00   3.001155990351203e+00 -3.05932370e-01   6.14934270e-01   5.79780600e-02
C     8.866824943738266e+00   2.203173261320883e+00   3.002237080527096e+00  1.02325620e-01  -4.87092470e-01   6.45757000e-03
C     1.013053122410022e+01   2.922777440407050e+00   3.002728289734000e+00  2.57053920e-01   2.76123980e-01  -4.80244000e-02
C     2.525214487915403e+00   4.381970684704782e+00   3.006639273024695e+00  5.73211420e-01  -6.62255200e-02  -6.66256500e-02
C     3.802368637949934e+00   5.121245821246672e+00   3.004601330574882e+00 -3.98981570e-01  -5.11372580e-01   6.07088100e-02
C     5.053260088105225e+00   4.376350300140594e+00   3.011897003724541e+00  8.96296780e-01   6.92307520e-01  -2.10484410e-01
C     6.340701704966209e+00   5.123657014855983e+00   2.985705944877199e+00 -4.78843770e-01  -4.43278300e-01   3.78800620e-01
C     7.600351057567917e+00   4.390556076040113e+00   3.009794468667895e+00  3.32372400e-01  -3.42181400e-02  -3.00018630e-01
C     8.875104330041660e+00   5.127606616299264e+00   2.989344609919854e+00 -1.97027460e-01  -5.57694460e-01   1.20630770e-01
C     1.014547668403253e+01   4.389015546283174e+00   2.994762724077719e+00 -3.52963670e-01  -1.36727930e-01   7.72789800e-02
C     1.141205396500233e+01   5.106441520400177e+00   3.007972405193739e+00 -4.53690620e-01   7.53414970e-01  -1.45666770e-01
C     3.797271174048127e+00   6.571781778802606e+00   3.002919760621949e+00  2.23390260e-01   5.86848280e-01   3.32590100e-02
C     5.073435948252198e+00   7.311618808858659e+00   2.996984007156923e+00 -2.87535240e-01   1.32558480e-01   6.40506100e-02
C     6.345024440869466e+00   6.582495875965688e+00   3.004428851432788e+00 -4.43062630e-01  -1.13329420e-01  -2.29893640e-01
C     7.602721865548735e+00   7.302849179148731e+00   2.992047858503739e+00 -1.25866000e-01   8.23542570e-01   1.52934610e-01
C     8.860041708197933e+00   6.575926092760162e+00   2.989393037827481e+00  3.56520680e-01   3.51206950e-01   2.15270100e-02
C     1.012572311625168e+01   7.314187418701249e+00   2.997960355829438e+00  4.27497950e-01  -2.55479890e-01  -4.87040500e-02
C     1.140223535994531e+01   6.590245237613540e+00   2.996522977324694e+00 -3.12691020e-01  -5.32211400e-01   1.70926400e-01
C     1.265589217476499e+01   7.314977634582338e+00   3.011447841989806e+00  5.36216690e-01   1.00713690e-01  -1.70042340e-01
