32
Lattice="9.86 0 0 4.93 8.53901048131456 0 0 0 30 " PBC="1 1 1" Properties=species:S:1:pos:R:3:force:R:3 Energy="-254.26410869"
C     4.910785078500000e+00   8.418966423578912e+00  -2.639963999999999e-01  1.44805352e+00  -2.92599290e-01  -4.06806910e-01
C     1.231580209900000e+00   5.697054450343256e-01  -2.749047000000004e-01  1.08535203e+00   1.78604055e+00  -1.78853520e-01
C     7.437920629300000e+00   8.441707687069457e+00  -1.448967000000003e-01 -2.63834519e+00  -2.30574200e+00  -1.39877139e+00
C     3.677475523200000e+00   5.755492876365232e-01  -4.201025999999999e-01  2.78935497e+00   1.78937736e+00   9.67605680e-01
C     9.894967405399999e+00   8.502631221311427e+00  -4.570763999999983e-01  3.48712610e-01  -3.98943425e+00  -8.62861150e-01
C     6.202570990699999e+00   6.223991663657769e-01  -4.183829999999986e-01  5.40963600e-02   7.72919620e-01  -1.40301710e+00
C     1.237873073890000e+01   8.436222397517314e+00  -6.194190000000006e-01 -1.29026498e+00   2.21013641e+00   2.00954023e+00
C     8.633067843399999e+00   6.227138289019648e-01  -3.155895000000015e-01  8.35634650e-01  -1.57872183e+00  -3.54946100e-01
C     1.261610762600000e+00   2.002754888198064e+00  -6.174521999999989e-01 -5.06334710e-01  -1.12103190e+00   1.20889551e+00
C     2.520984932100000e+00   2.675337989935010e+00  -7.916945999999996e-01 -1.18935506e+00   2.07282696e+00  -5.48362260e-01
C     3.767619390000000e+00   2.007529902858480e+00  -5.566598999999997e-01 -2.56623096e+00  -5.50002180e-01  -8.75135310e-01
C     4.970037368100000e+00   2.714036614650161e+00  -5.662451999999973e-01  9.50346410e-01   5.64061990e-01  -1.74220810e-01
C     6.215217623900000e+00   2.070338850614434e+00  -4.284189000000005e-01  3.69718430e-01  -2.48372309e+00   1.29056198e+00
C     7.455962260100000e+00   2.731757623099305e+00  -2.445395999999995e-01 -1.49621162e+00  -4.71790750e-01  -5.31625250e-01
C     8.682618681799999e+00   2.022007282786691e+00  -1.889883000000019e-01 -1.66729147e+00   3.32635100e-02  -1.27969699e+00
C     9.832689919900000e+00   2.713478675705397e+00  -5.255852999999995e-01  3.85721504e+00  -5.17959970e-01   1.25133430e-01
C     2.466675559100000e+00   4.149962081933668e+00  -1.147815600000001e+00  1.92459842e+00  -1.54397703e+00   1.48913397e+00
C     3.746465548800000e+00   4.846290293233189e+00  -1.058579099999999e+00  4.87909390e-01   8.03073420e-01   1.92548599e+00
C     4.992518809000000e+00   4.119215239947808e+00  -6.683621999999971e-01 -1.91500240e+00   1.62254261e+00   2.46638370e-01
C     6.179032409900000e+00   4.820965210561500e+00  -2.387346000000008e-01 -1.75676575e+00   1.09458346e+00  -2.73892144e+00
C     7.373603109799999e+00   4.115840793786322e+00  -3.025076999999996e-01  3.55625260e+00   1.30637489e+00   4.95998200e-01
C     8.654367021000001e+00   4.817992524843098e+00  -4.897613999999990e-01 -6.57581470e-01   1.51996119e+00   6.20294330e-01
C     9.878989719100000e+00   4.096728182799252e+00  -6.681108000000009e-01 -1.77371000e-01   2.70784311e+00  -1.12790957e+00
C     1.110976421910000e+01   4.878729396315975e+00  -1.064222100000002e+00 -1.01569541e+00  -2.67892303e+00   6.91836610e-01
C     3.748709586200000e+00   6.310177604234504e+00  -8.117663999999998e-01  7.01957570e-01  -5.18476540e-01   2.15556460e-01
C     4.991796514700000e+00   6.990691568125065e+00  -4.147382999999998e-01 -3.02735825e+00   5.43595100e-02  -6.72766580e-01
C     6.174638448800000e+00   6.268863992949958e+00  -3.113223000000005e-01  1.17552653e+00  -8.80837990e-01   1.19560980e+00
C     7.404100286999999e+00   6.958947711275560e+00  -1.709478000000004e-01  1.56462667e+00   1.68434792e+00  -6.68509960e-01
C     8.650523395800001e+00   6.292007102273693e+00  -4.354547999999987e-01  1.24024214e+00  -1.10008807e+00  -4.20448110e-01
C     9.939708092099998e+00   7.001275500834815e+00  -6.849083999999976e-01 -2.49792502e+00   8.58162810e-01   8.46881200e-01
C     1.111056997830000e+01   6.267668787653073e+00  -1.050591900000001e+00  8.94277480e-01   3.42418914e+00   2.03121447e+00
C     1.239524278790000e+01   7.083167685381788e+00  -8.169998999999990e-01 -8.82141540e-01  -4.27075655e+00  -1.71753378e+00
