32
Lattice="9.86 0 0 4.93 8.53901048131456 0 0 0 30 " PBC="1 1 1" Properties=species:S:1:pos:R:3:force:R:3 Energy="-256.75072823"
C     1.270210063000000e+00   7.640657051243216e-01   3.580640400000000e+00 -2.42661760e-01  -4.83572850e-01   3.37348190e-01
C     2.491268519000000e+00   1.484021614592317e+00   3.506795400000000e+00  2.96131080e-01  -7.76138770e-01  -3.18011350e-01
C     3.716165620900000e+00   7.703347904484231e-01   3.576469200000000e+00  9.27363840e-01  -8.48750140e-01   3.66153740e-01
C     4.981146186399999e+00   1.425811692490786e+00   3.582567300000000e+00 -1.17551066e+00   2.16034622e+00  -3.65344280e-01
C     6.195874128000000e+00   7.189954415692048e-01   3.618302400000000e+00 -6.26389100e-02   1.79216643e+00   5.90207500e-01
C     7.423067919699999e+00   1.465432957288300e+00   3.709750200000000e+00 -5.42198430e-01   4.19257340e-01  -7.58512400e-02
C     8.627856734799998e+00   7.341248603376689e-01   3.694569600000000e+00  1.40949811e+00   1.67163400e-01  -7.02316650e-01
C     9.894897596600000e+00   1.445648667736874e+00   3.568913400000000e+00 -1.15833217e+00   1.88293600e-02   3.05253090e-01
C     2.495732880500000e+00   2.868555132692049e+00   3.291096000000000e+00 -3.19122480e-01   8.46424600e-01  -1.67280200e-02
C     3.730940091400000e+00   3.582208825475280e+00   3.265638600000000e+00  1.40875550e-01   7.48902270e-01   7.17721520e-01
C     4.953850945600000e+00   2.888265303632509e+00   3.510516000000000e+00  4.28554210e-01  -2.56960350e-01   1.33311110e-01
C     6.165975107700000e+00   3.655233503809087e+00   3.711366300000000e+00  2.05294600e-01  -2.57102678e+00  -8.02715870e-01
C     7.419095276399998e+00   2.937769875329889e+00   3.756082500000000e+00 -1.66868123e+00  -2.71437017e+00  -1.17934970e-01
C     8.624688568900000e+00   3.576111374261826e+00   3.654249900000000e+00  2.38093059e+00   5.35042230e-01  -1.00618001e+00
C     9.884334381400000e+00   2.856508894437598e+00   3.469987500000000e+00 -7.16524110e-01   4.26842070e-01   3.46090240e-01
C     1.110630952160000e+01   3.567536585327915e+00   3.276664500000000e+00 -8.82589000e-02   4.93500710e-01   5.78454000e-02
C     3.728713013200000e+00   5.040641758142391e+00   3.286472700000000e+00 -8.76783970e-01  -2.91122790e-01   3.77629060e-01
C     4.933325137099999e+00   5.733961505269597e+00   3.535864800000000e+00  1.13389179e+00   4.85550660e-01   1.44659250e-01
C     6.182492974100000e+00   5.029123743076233e+00   3.668174400000000e+00  3.54801000e-01   1.63045212e+00   6.03506930e-01
C     7.470824090199999e+00   5.713436029608507e+00   3.803261700000000e+00 -2.26514383e+00   1.47574569e+00  -1.05419107e+00
C     8.647581171799999e+00   4.992392762545989e+00   3.576257400000000e+00  4.70746760e-01   3.22103440e-01   1.21578646e+00
C     9.882075603299999e+00   5.690971344667410e+00   3.487966200000000e+00 -3.63548170e-01   1.35311331e+00  -1.26583820e-01
C     1.107294254210000e+01   5.001841433812423e+00   3.247983000000000e+00  2.08868620e+00   5.22597610e-01   6.48495560e-01
C     1.233489056600000e+01   5.788216755447526e+00   3.286822200000000e+00 -4.17831080e-01  -2.79952830e+00   6.33950300e-02
C     4.949084523000000e+00   7.162934766390603e+00   3.659088600000000e+00  4.04226880e-01  -5.09904580e-01  -5.14147690e-01
C     6.190821913300001e+00   7.892892162663508e+00   3.729033000000000e+00  5.42595790e-01  -1.01612934e+00  -5.06552100e-02
C     7.453314012000000e+00   7.180221139206315e+00   3.802355700000000e+00 -1.21171398e+00  -1.29503735e+00  -3.88912970e-01
C     8.663054864199999e+00   7.878028904851706e+00   3.704976000000000e+00  3.23726880e-01   7.78634100e-02  -1.66222750e-01
C     9.900326315399999e+00   7.140893018638579e+00   3.622578900000000e+00 -1.65712053e+00  -5.25829040e-01  -3.45284590e-01
C     1.107750461620000e+01   7.872448661503025e+00   3.582587700000000e+00  2.09519136e+00  -1.08403374e+00  -9.20073700e-02
C     1.232662330110000e+01   7.167300164718294e+00   3.507750900000000e+00  7.22284300e-02  -2.81571480e-01  -3.96452410e-01
C     1.357616340240000e+01   7.829870081205972e+00   3.586816500000000e+00 -5.08672870e-01   1.97807481e+00   6.32137200e-01
