32
Lattice="9.86 0 0 4.93 8.53901048131456 0 0 0 30 " PBC="1 1 1" Properties=species:S:1:pos:R:3:force:R:3 Energy="-257.19560753"
C     9.773261777200000e+00   1.631380343126934e+00   3.386637900000000e+00  1.72858540e-01   1.97905200e-02  -7.68262230e-01
C     1.102220258770000e+01   2.330644949350317e+00   3.270427800000000e+00  6.08739900e-02   5.41023850e-01   4.52002440e-01
C     2.379941822600000e+00   1.614609384983795e+00   3.206907600000000e+00  9.63948130e-01   3.78558460e-01  -4.22264270e-01
C     3.632836295900000e+00   2.364472239366838e+00   3.157587900000000e+00 -9.39153470e-01  -7.12065780e-01   8.27937690e-01
C     4.868948211099999e+00   1.667413174160334e+00   3.263290500000000e+00 -7.73744750e-01  -1.34608820e+00  -5.05752100e-02
C     6.096573821500000e+00   2.347050267064703e+00   3.372909000000000e+00 -5.11749520e-01   7.78059250e-01   1.04401750e-01
C     7.299272661699999e+00   1.641514867715122e+00   3.400561500000000e+00  2.09697386e+00  -5.49563370e-01   3.88227600e-02
C     8.545204200199999e+00   2.349006468975567e+00   3.458145600000000e+00  6.78137900e-02   8.34844440e-01  -4.33858290e-01
C     1.106908383110000e+01   3.780090573487228e+00   3.314285100000000e+00 -2.03644135e+00  -1.83228845e+00   1.22161190e-01
C     1.223430022640000e+01   4.507746706435772e+00   3.270729000000000e+00  1.94524957e+00  -5.57870040e-01  -2.26873300e-02
C     3.622306555400000e+00   3.778940795726096e+00   3.240249300000000e+00 -4.45516990e-01  -1.89839640e-01  -3.28449510e-01
C     4.855065626899999e+00   4.443388611398537e+00   3.305698800000000e+00  3.30613740e-01   2.58338347e+00   2.91737850e-01
C     6.091190705200000e+00   3.772470275144771e+00   3.432634800000000e+00  6.69401240e-01   1.02971650e-01  -6.19228300e-01
C     7.336683473699999e+00   4.507066915811460e+00   3.454869900000000e+00  5.12120000e-04  -7.50640400e-02  -7.68768700e-02
C     8.573338822799998e+00   3.805342903789627e+00   3.444793800000000e+00 -1.43017840e-01  -1.78143917e+00   3.31110870e-01
C     9.836433909799998e+00   4.458807246451958e+00   3.424882500000000e+00 -9.07532140e-01   1.53783421e+00  -2.21103470e-01
C     1.222325811100000e+01   5.906859645638952e+00   3.315831000000000e+00  1.70722245e+00   7.08582710e-01  -2.27267800e-02
C     1.348801643210000e+01   6.607444041322124e+00   3.290925900000000e+00 -4.42890360e-01  -8.94633930e-01  -2.72011020e-01
C     4.843003642400000e+00   5.921338391808840e+00   3.290983200000000e+00  2.01066084e+00  -1.56882213e+00   5.98867960e-01
C     6.116887294900000e+00   6.651475107301825e+00   3.373701900000000e+00 -1.01634619e+00  -1.89323992e+00  -7.85239650e-01
C     7.373992431900000e+00   5.934802618143600e+00   3.406872000000000e+00 -2.40803665e+00  -7.51010830e-01   2.80125610e-01
C     8.570925538499999e+00   6.628142261165225e+00   3.416585400000000e+00  1.47462458e+00  -5.74536680e-01  -1.76861970e-01
C     9.820689856200000e+00   5.894422747655042e+00   3.430443000000000e+00 -5.26655990e-01   5.07929180e-01  -8.25109100e-02
C     1.103600466500000e+01   6.635784419374510e+00   3.384405600000000e+00 -9.09258050e-01  -3.75341140e-01   3.13135610e-01
C     1.353900609100000e+01   7.993730789053609e+00   3.268476000000000e+00 -2.54613387e+00   2.40029675e+00   4.00340920e-01
C     9.780864280899999e+00   2.017381359249256e-01   3.260698800000000e+00  1.19879743e+00   4.58026290e-01   4.32167400e-01
C     6.096298579600000e+00   8.042566585450198e+00   3.263882400000000e+00 -5.01537910e-01   1.38588540e-01   1.53757460e-01
C     2.384314239600000e+00   1.832763683166416e-01   3.224427000000000e+00  6.53579900e-01   1.41458659e+00   3.18312790e-01
C     8.544307482499999e+00   8.033066680120882e+00   3.317624100000000e+00  9.36464960e-01   6.02491990e-01  -3.89502100e-02
C     4.847010302700000e+00   2.213915224456936e-01   3.326132400000000e+00  7.41469550e-01   3.37837040e-01   2.65605040e-01
C     1.103385000850000e+01   8.053337778659774e+00   3.431013900000000e+00  3.46268100e-02   6.43992570e-01  -1.06745992e+00
C     7.362506123499999e+00   2.198698707781576e-01   3.335544000000000e+00 -9.57676390e-01  -8.86994180e-01   4.58578550e-01
