32
Lattice="9.86 0 0 4.93 8.53901048131456 0 0 0 30 " PBC="1 1 1" Properties=species:S:1:pos:R:3:force:R:3 Energy="-252.45983274"
C     9.661562076999999e+00   6.552401152817520e-01   4.522465500000000e+00  9.37908900e-02   4.92470827e+00  -1.98947593e+00
C     1.010696144800000e+00   1.518948046037822e+00   4.243707000000000e+00 -1.11254969e+00  -6.78004520e-01   1.32453797e+00
C     2.189151414200000e+00   8.290214455050527e-01   4.308347700000001e+00  3.21586724e+00  -1.26026940e+00   3.60430390e-01
C     3.478483517500000e+00   1.502952856996791e+00   4.198275900000001e+00 -8.81427920e-01   1.28782659e+00   1.53638274e+00
C     4.724521741199999e+00   7.518704611369952e-01   4.303717200000000e+00 -3.65187861e+00   1.33428423e+00  -1.07158131e+00
C     5.881568633500000e+00   1.485864589224215e+00   4.215908400000000e+00  2.23433161e+00   1.69495594e+00   1.25342090e-01
C     7.124401371199999e+00   7.563619806494752e-01   4.193277000000000e+00  4.15561730e-01  -1.07633475e+00   1.25241206e+00
C     8.396926562199999e+00   1.318778270167758e+00   4.229502600000000e+00  1.31450875e+00   3.54796335e+00   3.24811830e-01
C     1.092222105380000e+01   2.954502749486288e+00   4.177566000000000e+00 -2.22017479e+00  -1.76380974e+00   1.29851717e+00
C     2.245071664700000e+00   3.716976014546194e+00   4.204776600000000e+00  1.27343782e+00  -4.45151250e-01  -1.85393025e+00
C     3.445516558200000e+00   2.987258052127149e+00   4.266329400000000e+00  1.10894837e+00  -2.22681778e+00  -1.01236340e+00
C     4.688196071500000e+00   3.701185164025950e+00   4.232187300000000e+00 -5.90200020e-01  -5.82460540e-01  -2.80928600e-02
C     5.902483172500000e+00   3.008137384382530e+00   4.259724000000000e+00 -9.47641170e-01  -5.80677922e+00  -4.61439840e-01
C     7.159518993699999e+00   3.482320420171392e+00   4.294060500000000e+00  4.06703959e+00   4.32773213e+00  -3.43712030e-01
C     8.437152404199999e+00   2.806046928885200e+00   4.156416000000000e+00 -1.12476461e+00  -1.58235422e+00   2.07746449e+00
C     9.642106965900000e+00   3.525915655056195e+00   4.428258000000000e+00  1.03827255e+00   1.39295887e+00  -2.61158224e+00
C     1.220822146310000e+01   5.144674999133269e+00   3.933534600000000e+00 -5.47179609e+00  -1.07120775e+00   2.90913024e+00
C     3.455158356400000e+00   5.840563451393070e+00   4.237365900000000e+00  4.95993922e+00   6.91101310e-01   4.17654680e-01
C     4.715462274600000e+00   5.075347370776883e+00   4.217508599999999e+00  1.74263574e+00   2.29561951e+00   1.44558108e+00
C     6.115193001800000e+00   5.708889348088327e+00   4.447556400000000e+00 -3.86054553e+00  -1.86091477e+00  -5.33385820e-01
C     7.309711295800000e+00   4.961319986530107e+00   4.419198900000000e+00 -1.04699225e+00  -8.48141100e-01  -3.97538750e-01
C     8.528398569700000e+00   5.693894760295342e+00   4.391088900000000e+00 -1.98667536e+00   3.20706610e-01   6.13709180e-01
C     9.740641101100000e+00   4.946969410907524e+00   4.411303800000000e+00 -7.81649660e-01   3.20077754e+00  -8.93145300e-01
C     1.090480809660000e+01   5.824665692461616e+00   4.183449599999999e+00  6.77128610e-01  -2.78452860e+00   3.59391930e-01
C     1.333332254700000e+01   7.259112032349777e+00   4.564060800000000e+00  1.29730204e+00  -3.82015970e+00  -9.95779820e-01
C     4.751254863400000e+00   7.859889826449461e+00   4.713030900000000e+00  6.94936280e-01  -3.11485067e+00  -8.79516220e-01
C     6.028243183400000e+00   7.059964717594589e+00   4.606824300000000e+00 -1.29984226e+00   5.18908387e+00   8.10433700e-01
C     7.155513812399999e+00   7.952728339310955e+00   4.570434300000000e+00  7.40421990e-01  -3.36590790e+00  -1.96688183e+00
C     8.364906212200001e+00   7.155401822125357e+00   4.334765100000000e+00  1.19269763e+00   5.78281670e-01   9.07111740e-01
C     9.560335422300000e+00   7.887805986461201e+00   4.257536100000000e+00  3.05091620e+00  -1.98182300e-01   8.46275740e-01
C     1.086809556980000e+01   7.233466139054355e+00   4.337515800000000e+00 -1.70958801e+00  -2.52316179e+00  -1.22141195e+00
C     1.212185826540000e+01   7.849412631370710e+00   4.382165400000000e+00 -2.43201030e+00   4.22303611e+00  -3.49349480e-01
