32
Lattice="9.86 0 0 4.93 8.53901048131456 0 0 0 30 " PBC="1 1 1" Properties=species:S:1:pos:R:3:force:R:3 Energy="-257.33271019"
C     1.231766810400000e+00   7.528172666190176e-01   3.492787200000000e+00 -1.86507575e+00   5.77286630e-01   8.62000400e-02
C     2.445399059500000e+00   1.446638082881191e+00   3.487708800000000e+00  1.50491800e+00   1.45656895e+00   4.58555230e-01
C     3.690499104200000e+00   7.560552593930336e-01   3.591004800000000e+00  3.90176000e-02  -3.76745210e-01  -1.87378600e-01
C     4.908951710099999e+00   1.488434831378695e+00   3.551762400000000e+00 -2.84789210e-01   1.22755108e+00   2.85564600e-01
C     6.150836507399999e+00   8.092686649022977e-01   3.584903700000000e+00 -1.27339870e+00  -1.42380923e+00  -1.39650290e-01
C     7.370171780500000e+00   1.476866692321020e+00   3.546225300000000e+00  1.46183360e-01   2.97095180e-01   5.35713250e-01
C     8.569212560700000e+00   7.432072080545112e-01   3.592167300000000e+00  2.40022632e+00   9.51501760e-01  -4.42667190e-01
C     9.829888841799999e+00   1.448690434050059e+00   3.508664400000000e+00 -1.00100620e-01   1.26213111e+00   2.32768660e-01
C     2.487001949100000e+00   2.904902626261636e+00   3.507575400000000e+00 -1.36581132e+00  -1.43300069e+00  -1.01144110e-01
C     3.674217039700000e+00   3.645689964136220e+00   3.528864000000000e+00  7.09634300e-01  -8.55246770e-01  -6.43725600e-02
C     4.904452345599999e+00   2.951420166703008e+00   3.537897600000000e+00  5.08307000e-03  -2.23601990e+00   6.63449200e-02
C     6.143219854600000e+00   3.597813013226432e+00   3.572361000000000e+00  1.38864590e-01   2.01601137e+00  -2.35749080e-01
C     7.365707912000000e+00   2.881649961433443e+00   3.576129000000000e+00  8.02597200e-01   1.17296528e+00  -2.92336710e-01
C     8.607532957700000e+00   3.621149189577119e+00   3.561196200000000e+00 -2.99589320e-01  -7.55772980e-01  -9.46691500e-02
C     9.832177347799998e+00   2.906378252662685e+00   3.515393400000000e+00  8.79163950e-01  -1.42485284e+00   1.71022900e-01
C     1.111064358320000e+01   3.584419575288552e+00   3.534812700000000e+00 -1.43453625e+00   5.51651580e-01  -2.42784420e-01
C     3.673682923500000e+00   5.039200117003052e+00   3.539161500000000e+00 -5.31389270e-01   1.33931470e+00  -2.12324100e-02
C     4.883592529600000e+00   5.765079794211338e+00   3.564398700000000e+00  1.65957673e+00  -1.15071375e+00   1.20251930e-01
C     6.133139680799999e+00   5.065610678686959e+00   3.562199400000000e+00  6.93267100e-01  -9.32060480e-01   1.60165850e-01
C     7.382312891500000e+00   5.780373247371123e+00   3.594252300000000e+00 -4.08224860e-01  -5.66726080e-01   1.37985500e-02
C     8.621649174600000e+00   5.032847861716875e+00   3.572742900000000e+00 -1.44655540e+00   5.71743320e-01   2.68031210e-01
C     9.833661129899999e+00   5.732930163583823e+00   3.589905300000000e+00  1.25871510e+00  -2.07795220e-01   4.82281500e-02
C     1.107208378540000e+01   5.004112212869369e+00   3.561037800000000e+00  6.66544030e-01   1.11906390e+00  -2.51029740e-01
C     1.231094880980000e+01   5.759386152803483e+00   3.524691300000000e+00 -1.19330119e+00  -4.46106040e-01   5.96456270e-01
C     4.945627459100000e+00   7.155261526183170e+00   3.603516000000000e+00 -1.84125297e+00   1.56667327e+00  -3.61536490e-01
C     6.140710188800000e+00   7.888799671110759e+00   3.535822800000000e+00  1.16164811e+00  -3.27137980e-01   5.77638980e-01
C     7.388860523100000e+00   7.219542855516191e+00   3.625047600000000e+00 -5.66611320e-01  -2.31976784e+00  -2.51228970e-01
C     8.629249607700000e+00   7.848105394256327e+00   3.678425400000000e+00 -3.07743260e-01   2.33062911e+00  -6.62558340e-01
C     9.838354341999999e+00   7.152637232092352e+00   3.634726800000000e+00  1.02632311e+00   4.14980910e-01   4.09430000e-04
C     1.106239702560000e+01   7.919327145917387e+00   3.601620600000000e+00  1.58308760e-01  -1.12987738e+00   1.30841420e-01
C     1.228811033830000e+01   7.184816407696127e+00   3.594283800000000e+00  1.07327905e+00   1.62153150e-01  -1.05373520e-01
C     1.356418438980000e+01   7.890539409105954e+00   3.625578300000000e+00 -1.40497095e+00  -1.43168890e+00  -2.98279800e-01
