26
Lattice="8.88768389401873 1.33226762955019e-15 0 4.44384194700937 7.69696003302603 0 0 0 30 " PBC="1 1 1" Properties=species:S:1:pos:R:3:force:R:3 Energy="-207.067887"
C     1.216862372849788e+01   6.357550362529860e+00  -2.717744999999994e-01  2.22721352e+00  -6.86345510e-01   4.02300200e-01
C     8.457611759005601e+00   6.073573947067820e+00  -5.046906000000000e-01  2.70342160e-01  -1.91323726e+00  -8.44536180e-01
C     9.814717361322277e+00   5.640101939970302e+00  -5.695706999999999e-01 -6.37964290e-01   3.09865495e+00   1.56891884e+00
C     1.014642363193161e+01   4.333921742280878e+00  -4.008564000000021e-01 -1.20115472e+00  -1.34349477e+00  -8.86478650e-01
C     6.091661602669783e+00   5.596206792676014e+00  -1.767606000000015e-01 -4.81175280e-01  -4.46900726e+00  -5.10874680e-01
C     7.441119397393487e+00   5.094933419218230e+00  -4.259486999999993e-01 -1.90485486e+00   7.06642300e-02   2.09426514e+00
C     7.747025743688016e+00   3.687486550532505e+00  -2.281680000000001e-01 -1.43783400e-02   1.63188137e+00  -1.63548508e+00
C     9.097636271127838e+00   3.364142724513826e+00  -4.363317000000002e-01  1.67364046e+00  -3.10081298e+00   2.19898714e+00
C     9.514716433267987e+00   1.936041679344399e+00  -2.273487000000003e-01  6.08464240e-01   3.52898538e+00  -1.22883801e+00
C     3.630673620427278e+00   4.971490036074691e+00  -2.218209000000009e-01  5.60318390e-01  -7.23450700e-02   4.35921070e-01
C     4.980223180521445e+00   4.523014806608296e+00  -8.999760000000023e-02  2.38802913e+00   1.32682023e+00  -8.28594270e-01
C     5.371256518566292e+00   3.113671176062378e+00  -1.325153999999991e-01 -1.73225705e+00   3.44626440e-01   3.29006710e-01
C     6.726440337007666e+00   2.699031936827062e+00  -1.208115000000021e-01  7.03843820e-01  -6.52708470e-01  -5.02839620e-01
C     7.130889411701253e+00   1.303364495771249e+00  -2.091465000000028e-01 -2.65148090e+00   1.44610468e+00  -6.65126600e-01
C     8.503059016159241e+00   1.001716937654735e+00  -2.509320000000024e-01 -8.80662910e-01  -1.87685356e+00   5.36279650e-01
C     2.593974531808648e+00   4.018790957462211e+00  -2.704950000000004e-01  2.01446969e+00  -2.63359707e+00  -2.44512540e-01
C     2.981306371710825e+00   2.617786906139198e+00  -3.068760000000026e-01  5.21696070e-01   9.35781300e-02   8.30214510e-01
C     4.298762949630373e+00   2.120014648890260e+00  -2.157198000000022e-01  3.00459586e+00   4.76722030e-01  -1.86928048e+00
C     4.734307586133192e+00   7.107853951703875e-01  -5.505965999999987e-01 -2.96539606e+00   2.30078598e+00   2.18992949e+00
C     6.038855603159610e+00   3.139127408939197e-01  -4.192094999999973e-01  2.65437295e+00   1.55635876e+00   8.16109850e-01
C     1.078878249749100e+01   6.648210741112350e+00  -3.340457999999984e-01  1.24415854e+00   3.94372600e-01  -1.64369824e+00
C     2.031923044719898e+00   1.610534930587689e+00  -2.622303000000024e-01 -2.59315354e+00  -1.02730608e+00  -6.61790000e-02
C     2.366293043020117e+00   2.307913452899422e-01  -2.486412000000016e-01  7.57484700e-01  -1.18924799e+00  -7.67835550e-01
C     8.151636933062683e+00   7.413261474795044e+00  -4.802126999999992e-01 -1.02996257e+00   3.04953789e+00   2.61300230e-01
C     4.378460058731275e+00   7.328590142349825e+00  -2.418437999999981e-01 -1.04696200e-01  -1.26226736e+00   4.47393730e-01
C     5.793647919575577e+00   6.942426576441497e+00  -1.742439000000005e-01 -2.43149281e+00   9.08130750e-01  -4.16347670e-01
