32
Lattice="9.86 0 0 4.93 8.53901048131456 0 0 0 30 " PBC="1 1 1" Properties=species:S:1:pos:R:3:force:R:3 Energy="-257.58059399"
C     4.954834825700000e+00   8.495302615566967e+00  -2.265828000000027e-01 -5.73301190e-01  -7.43000860e-01   3.97924900e-02
C     1.261064666500000e+00   6.668416418704040e-01  -2.182395000000028e-01 -8.45005180e-01  -1.12052247e+00  -2.53778000e-02
C     7.388786622400000e+00   8.459110275817801e+00  -2.170106999999994e-01  1.57865907e+00   2.22657608e+00  -7.43789900e-02
C     3.715097388500000e+00   6.734766237935736e-01  -2.355518999999973e-01 -1.13172192e+00  -1.92370359e+00  -3.92273000e-02
C     9.855457251499999e+00   8.470964557116661e+00  -2.723022000000022e-01  3.95680720e-01   1.17381965e+00  -7.27438200e-02
C     6.146554950300000e+00   6.475243508021288e-01  -2.769021000000009e-01  8.21653680e-01   1.15169221e+00   3.10612900e-01
C     1.230973529030000e+01   8.464093727724034e+00  -2.442455999999993e-01  9.82688390e-01   1.18823840e+00  -2.51573360e-01
C     8.640936024800000e+00   6.425648081252400e-01  -2.060607000000019e-01 -5.59797350e-01   9.82655630e-01  -1.30981810e-01
C     1.262788194500000e+00   2.066278380350985e+00  -2.514140999999981e-01  9.84059400e-02   1.15331188e+00   2.91633990e-01
C     2.482369770400000e+00   2.783667548658797e+00  -2.630547000000014e-01 -1.20307140e-01   1.20823617e+00  -2.15819310e-01
C     3.693417614900000e+00   2.066817533472692e+00  -2.408043000000006e-01  1.02670897e+00   1.36209250e+00  -2.36669500e-01
C     4.928473573400000e+00   2.820767670612091e+00  -2.693493000000018e-01  2.61972200e-02  -1.02280883e+00   2.38901430e-01
C     6.167769430500000e+00   2.114830510819426e+00  -2.574927000000002e-01 -1.84430800e-02  -1.14526761e+00  -2.83746300e-02
C     7.412404872000000e+00   2.825087897574342e+00  -2.397792000000010e-01 -9.11290000e-02  -8.92887250e-01   2.30883050e-01
C     8.646416015599998e+00   2.091576992090185e+00  -1.944642000000023e-01  4.99303090e-01  -9.85577300e-02  -3.07814810e-01
C     9.917049614900000e+00   2.807016362744994e+00  -2.259479999999989e-01 -1.93063601e+00  -6.82110230e-01  -6.19881600e-02
C     2.475629523700000e+00   4.248685851598188e+00  -3.321506999999997e-01 -3.65611960e-01  -1.71754228e+00   2.28430540e-01
C     3.683465128099999e+00   4.958790475455617e+00  -3.409760999999989e-01  1.24041128e+00  -7.99437370e-01   4.15578370e-01
C     4.916916667400000e+00   4.225761255552636e+00  -2.563989000000007e-01  2.54362400e-01   9.74553690e-01  -3.96921240e-01
C     6.161186697300000e+00   4.951892833570082e+00  -2.332602000000001e-01  1.81816190e-01  -1.15065899e+00  -2.43307400e-02
C     7.404124542600000e+00   4.241315575482585e+00  -2.346617999999978e-01 -2.08827490e-01  -1.79962890e-01  -7.66081100e-02
C     8.641976747799999e+00   4.923895211398364e+00  -2.684540999999996e-01  3.40093000e-01   1.01723209e+00   9.12060200e-02
C     9.877758254400000e+00   4.229332952856211e+00  -2.644554000000028e-01  2.38268340e-01  -5.57619300e-01  -1.25624770e-01
C     1.110362942570000e+01   4.941048290260483e+00  -3.187112999999968e-01 -3.53599800e-02  -3.69543000e-03  -8.03624000e-03
C     3.724425342900000e+00   6.368542167815828e+00  -3.203862000000015e-01 -9.79253800e-01  -4.59512070e-01   3.28513700e-02
C     4.931544076000000e+00   7.049155355008166e+00  -2.636654999999983e-01  1.79193429e+00   1.45034879e+00   2.29943780e-01
C     6.185469609500000e+00   6.348555247545711e+00  -2.203206000000009e-01 -4.77130240e-01   8.46665230e-01  -2.39304390e-01
C     7.420700878800000e+00   7.077743962095206e+00  -2.227019999999982e-01  2.15317200e-01  -1.78600102e+00  -2.05720070e-01
C     8.683555924099998e+00   6.361611736130051e+00  -2.887056000000001e-01 -1.95573036e+00  -5.92034790e-01   3.25629570e-01
C     9.888323540199998e+00   7.064793869581448e+00  -3.073917000000002e-01  1.87961910e-01  -1.99151360e-01   1.26536740e-01
C     1.111702034100000e+01   6.352571058784351e+00  -3.197136000000000e-01  1.07173930e-01   1.94580180e-01  -1.38565450e-01
C     1.235074441070000e+01   7.058675583182422e+00  -3.107616000000029e-01 -6.94380930e-01   1.44471550e-01   9.80602500e-02
