32
Lattice="9.86 0 0 4.93 8.53901048131456 0 0 0 30 " PBC="1 1 1" Properties=species:S:1:pos:R:3:force:R:3 Energy="-256.39540744"
C     9.910321052299999e+00   3.893803295197816e-01  -2.180447999999977e-01  4.85810900e-01  -3.95077240e-01  -5.57438430e-01
C     1.303148773400000e+00   1.100137760728406e+00  -2.551239000000010e-01 -1.23812676e+00  -2.90902640e-01   7.31892490e-01
C     2.502367477300000e+00   3.556584108925848e-01  -2.629526999999996e-01  1.09562363e+00   1.14814840e+00  -2.43830740e-01
C     3.748689274600000e+00   1.078040680188472e+00  -1.916118000000004e-01 -2.88284880e-01   5.84506840e-01   8.32690050e-01
C     4.997320136000000e+00   3.970573268918256e-01  -2.261571000000018e-01 -2.22046801e+00  -2.88716487e+00  -8.23216070e-01
C     6.198516903799999e+00   1.036744488485306e+00  -3.031289999999984e-01  1.19070676e+00   1.32078211e+00   5.38708830e-01
C     7.442953715600000e+00   3.225879333749072e-01  -2.099546999999973e-01  3.74599620e-01   2.94151732e+00  -5.23552980e-01
C     8.695374070800000e+00   1.077926257448040e+00  -2.178053999999996e-01 -1.01654931e+00  -2.77367710e-01   5.68983700e-02
C     1.114458579510000e+01   2.516020889563781e+00  -7.722869999999915e-02 -1.88716531e+00  -3.07966260e-01   8.49782750e-01
C     2.466367828500000e+00   3.185183178312335e+00   1.897332000000000e-01  2.31184990e+00   1.07441245e+00  -1.23180601e+00
C     3.730936886899999e+00   2.489143670957143e+00   6.426090000000000e-02  2.08039400e-02   4.17110100e-02  -9.16522690e-01
C     4.983561196200000e+00   3.210542758586363e+00  -1.027407000000018e-01 -1.66096185e+00  -4.61237660e-01   8.30241000e-03
C     6.147415136699999e+00   2.461531926669015e+00  -3.371372999999984e-01  2.23991860e+00   5.10568320e-01   6.80199130e-01
C     7.404920786899999e+00   3.162936665089001e+00  -3.375269999999979e-01  1.12491719e+00   1.15723945e+00   4.39899760e-01
C     8.695598139299999e+00   2.499083762276702e+00  -2.222150999999997e-01 -2.10003264e+00  -7.38889000e-02  -1.64431600e-01
C     9.868781661100000e+00   3.243381145799194e+00  -4.809120000000178e-02  1.51298017e+00  -5.88965050e-01  -4.11113770e-01
C     1.237237582100000e+01   4.625865130603517e+00   1.348572000000000e-01 -6.46740900e-01  -2.93831160e-01   3.59958700e-02
C     3.723738199500000e+00   5.313613856513363e+00  -4.352640000000108e-02  1.15309570e+00   1.19085539e+00   6.32788520e-01
C     4.969876058500000e+00   4.631524189018927e+00  -1.249386000000001e-01  1.39969612e+00   2.98779420e-01  -5.42426260e-01
C     6.239093811100000e+00   5.361602241509915e+00  -3.244214999999997e-01 -1.88347634e+00  -7.03387000e-01   5.34180730e-01
C     7.459135947599999e+00   4.601802199070876e+00  -3.102492000000012e-01  1.75146850e-01   1.53166069e+00  -4.82539740e-01
C     8.728643337699999e+00   5.404992540143196e+00  -2.838618000000004e-01 -2.73215541e+00  -2.55330670e+00   5.15414860e-01
C     9.884545188199999e+00   4.670535426907750e+00  -2.058300000001623e-03  1.57230912e+00  -5.36197100e-02  -6.98112050e-01
C     1.116446222400000e+01   5.364175130757643e+00   5.689320000000000e-02 -1.74138674e+00  -6.54643810e-01  -3.30650190e-01
C     1.359951661520000e+01   6.753173782827472e+00  -7.404359999999954e-02 -9.85497930e-01   6.84475110e-01  -8.04189200e-01
C     4.950623028099999e+00   7.500057888794672e+00  -2.550543000000012e-01 -2.41265530e-01  -4.58816750e-01   5.72378250e-01
C     6.162139123999999e+00   6.802351481203678e+00  -3.559944000000002e-01  2.48659534e+00  -1.07473887e+00   1.11251260e-01
C     7.439830955000000e+00   7.498856193849821e+00  -3.705378000000010e-01 -1.58785232e+00  -3.80534430e-01  -1.81845170e-01
C     8.673519923099999e+00   6.808295401008701e+00  -3.730107000000018e-01 -1.31128523e+00  -1.16872904e+00   3.94341820e-01
C     9.864967320100000e+00   7.465542183753254e+00  -2.907276000000003e-01  2.30256393e+00   2.36770801e+00   6.10735790e-01
C     1.108576433820000e+01   6.760440480745951e+00  -1.278797999999988e-01  1.75848660e+00   7.75861840e-01   1.24625490e-01
C     1.234562371830000e+01   7.501998976656985e+00  -1.194851999999997e-01  3.36144780e-01  -3.00404855e+00   2.41588510e-01
