26
Lattice="8.88768389401873 1.33226762955019e-15 0 4.44384194700937 7.69696003302603 0 0 0 30 " PBC="1 1 1" Properties=species:S:1:pos:R:3:force:R:3 Energy="-208.04011726"
C     5.660173927203589e-01   6.961343087228827e-01   3.585618000000000e+00  1.07133193e+00   4.15653920e+00  -8.37115710e-01
C     2.991015098239925e+00   1.568250987936482e-01   3.813249000000000e+00 -3.48500950e-01   1.79857660e+00  -1.13780949e+00
C     4.366918819089527e+00   5.381311901966431e-01   3.813338400000000e+00 -1.49431976e+00   2.88900704e+00  -2.26250960e-01
C     9.823022814143918e+00   7.338477118417162e+00   3.846206100000000e+00  1.66444041e+00  -3.22988311e+00  -9.86378300e-01
C     6.725665729168715e+00   5.838144182754999e-03   3.626960700000000e+00  2.06499760e+00  -5.02429720e-01  -1.29726320e-01
C     1.221742080164959e+01   6.675892549981843e+00   3.519523200000000e+00 -2.10124472e+00   6.91301190e-01   3.11347840e-01
C     4.685182828428943e+00   7.092627671433329e+00   3.421744800000000e+00 -6.05703970e-01  -3.34617805e+00   8.06357010e-01
C     5.706794761291506e+00   6.068969779517075e+00   3.487588500000000e+00  7.92945820e-01   2.35675672e+00  -8.70857700e-02
C     7.080321915529582e+00   6.543654158490425e+00   3.698336700000000e+00 -5.67969510e-01  -4.29988847e+00  -4.70303520e-01
C     8.110254453605641e+00   5.510912237377167e+00   3.718694400000000e+00  9.78153090e-01   1.70920457e+00   4.38998520e-01
C     9.506455067058223e+00   5.933086107755449e+00   3.797708700000000e+00 -1.30556057e+00  -1.30464805e+00   7.87632700e-01
C     1.048784911933914e+01   4.880323162090556e+00   3.854866200000000e+00  9.84889100e-02   1.85456058e+00  -1.40349880e+00
C     1.183545241053847e+01   5.296698604599839e+00   3.632561100000000e+00  9.06265890e-01  -1.05947910e-01   2.91054930e-01
C     3.966553725563332e+00   4.309235051467859e+00   3.552602400000000e+00  1.28379503e+00  -5.81386880e-01  -3.26800520e-01
C     5.369449964547416e+00   4.725452398418125e+00   3.402527100000000e+00 -9.50593300e-02  -1.77357948e+00   1.42431909e+00
C     6.444303923278222e+00   3.729263879274538e+00   3.543839100000000e+00 -1.30996398e+00   1.31731722e+00  -8.46737480e-01
C     7.797837521554076e+00   4.147058641213352e+00   3.661304700000000e+00 -1.59058190e-01  -1.34932097e+00  -2.92445970e-01
C     8.821165177341333e+00   3.105156260089990e+00   3.680704800000000e+00 -1.78458228e+00   1.97556738e+00  -2.39025780e-01
C     1.014044990798708e+01   3.513232070598923e+00   3.749123700000000e+00  1.04694908e+00  -4.50394430e-01   7.01087190e-01
C     2.239135973430039e+00   2.492742863187821e+00   3.768559200000000e+00  2.31027292e+00   8.21209580e-01  -1.11122322e+00
C     3.656024448664775e+00   2.901679655645710e+00   3.669913200000000e+00 -6.85051850e-01   2.83061930e-01   7.84572000e-03
C     4.695914436736040e+00   1.920946170424762e+00   3.631689300000000e+00  7.46376820e-01   1.16818348e+00  -9.21973000e-03
C     6.107987209360013e+00   2.373285350795818e+00   3.480974700000000e+00 -1.85571550e+00  -1.45774661e+00   1.02355408e+00
C     7.122893162553843e+00   1.377905243364182e+00   3.512270400000000e+00 -1.68496709e+00  -2.65646020e-01   2.81220550e-01
C     8.454190397859831e+00   1.772674087555650e+00   3.554991000000000e+00  1.36896515e+00  -2.31777807e+00   2.40282030e-01
C     1.943712337409883e+00   1.121668825789464e+00   3.610585800000000e+00 -3.35284960e-01  -3.64577400e-02   1.78992192e+00
