32
Lattice="9.828 0 0 4.914 8.51129766839346 0 0 0 30 " PBC="1 1 1" Properties=species:S:1:pos:R:3:force:R:3 Energy="-257.95055156"
C    -7.991124105097098e-03   5.175375235408292e-03   2.995466118667575e+00  2.70474400e-01  -6.75582530e-01  -1.95974000e-02
C     1.220661860627441e+00   7.111850145451671e-01   2.991172248058221e+00  1.07010790e-01   4.00921280e-01   9.67666500e-02
C     2.448272406429389e+00   1.240656028571761e-02   2.989625217190324e+00  3.46024870e-01  -6.89701860e-01   6.83642600e-02
C     3.689923962367109e+00   7.088334329876312e-01   2.997288278217395e+00 -3.96163530e-01   5.54066270e-01  -2.87529800e-02
C     4.912649226605700e+00   6.332073934566338e-03   2.988156175951291e+00  2.97693890e-01  -6.19042230e-01   1.10420550e-01
C     6.145112913677075e+00   7.059734474484001e-01   2.995075541080333e+00 -3.01111700e-02   3.79288930e-01  -3.73677200e-02
C     7.377862136338299e+00  -9.134784138467623e-03   2.990939873417519e+00 -3.46069810e-01   6.18888340e-01   7.15331100e-02
C     8.600018963422029e+00   7.093352425203828e-01   2.990323348846995e+00 -1.74647700e-02   4.49772840e-01   2.72618300e-02
C     1.225912027924107e+00   2.141626446402979e+00   3.006187131545107e+00  2.05910490e-01  -8.07865750e-01  -1.61561360e-01
C     2.446222579448300e+00   2.843842958010181e+00   2.998294600088133e+00  9.65471550e-01   1.03500730e-01   6.58267500e-02
C     3.697127114651759e+00   2.136940994208579e+00   3.007030516537514e+00 -1.11101286e+00  -4.15331430e-01  -1.18738170e-01
C     4.912442192053728e+00   2.838897794802919e+00   3.000233182834664e+00  1.47692040e-01   1.77793630e-01   1.41940140e-01
C     6.135158604894486e+00   2.137096164169431e+00   3.002306621421249e+00  6.54032000e-01  -7.00156640e-01  -1.06311030e-01
C     7.367546766474739e+00   2.844023779370839e+00   2.992794622328287e+00  3.18876500e-01  -1.99250660e-01   9.51476900e-02
C     8.613984400851733e+00   2.138289406884272e+00   2.990946493410933e+00 -8.79054440e-01  -3.89716640e-01  -2.01437000e-03
C     9.837280501386381e+00   2.840704805558861e+00   2.995910528857072e+00 -4.24476530e-01   3.29290950e-01   1.88768400e-02
C     2.451293635941784e+00   4.267911489277503e+00   2.989653534796950e+00  3.39046070e-01  -5.38783950e-01  -1.40026500e-02
C     3.680601443015859e+00   4.977318459697296e+00   2.988991763612709e+00  3.45799090e-01  -8.86313330e-01   2.04934430e-01
C     4.917176171764536e+00   4.248274528875497e+00   3.012688814377128e+00 -2.89019560e-01   1.02078013e+00  -2.10842490e-01
C     6.149930390612899e+00   4.973045723125258e+00   3.006226198337655e+00 -6.35269340e-01  -7.47767740e-01  -5.53899000e-03
C     7.365761584102557e+00   4.259617841977630e+00   3.004780788576381e+00  6.04511520e-01   6.49301800e-02  -1.59073900e-02
C     8.601948726015852e+00   4.970907473946263e+00   3.005604104156270e+00 -1.24461340e-01  -3.36450640e-01  -8.39594000e-02
C     9.835133578763239e+00   4.258895291199127e+00   2.994406765166981e+00 -6.13838450e-01  -8.55163900e-02   3.12837400e-02
C     1.105276198157442e+01   4.957548050129064e+00   2.988578643386032e+00  9.36919500e-02   5.77447480e-01   7.91652000e-02
C     3.679365566023888e+00   6.385501407083763e+00   3.004832629347014e+00  2.32133660e-01  -5.66969600e-02  -1.02343180e-01
C     4.901333910470208e+00   7.082177154915126e+00   3.000737263953404e+00  7.24445870e-01   6.91336940e-01  -5.39342100e-02
C     6.142443467385365e+00   6.375834322743018e+00   2.991129884568979e+00 -2.51490490e-01   6.91221590e-01   1.50852800e-01
C     7.370510871107236e+00   7.088393383910500e+00   2.997386799877739e+00 -3.87265180e-01   6.96082330e-01  -1.13627100e-01
C     8.592245077173095e+00   6.386687459102644e+00   2.998223741822529e+00  4.15141250e-01  -1.16843200e-01   3.18079200e-02
C     9.828017353324354e+00   7.087536713347964e+00   2.994940145265870e+00 -1.28120790e-01   3.72341400e-01  -1.03835900e-02
C     1.104842863406847e+01   6.373167830097002e+00   3.000629582497095e+00  5.27959320e-01   6.05552400e-01  -7.56637000e-02
C     1.229312733736953e+01   7.095539748348523e+00   3.001988770395685e+00 -9.62097010e-01  -4.68195450e-01  -3.36361600e-02
