32
Lattice="9.944 0 0 4.972 8.61175661523246 0 0 0 30 " PBC="1 1 1" Properties=species:S:1:pos:R:3:force:R:3 Energy="-257.93766395"
C    -3.594280731361821e-04  -3.956496925503961e-04   3.001076702615512e+00  5.35410100e-02   4.89942500e-02  -1.89040100e-02
C     1.244028754495514e+00   7.184853219174485e-01   2.998904887331392e+00 -8.32041200e-02  -1.55585800e-02   1.74053600e-02
C     2.485374050619651e+00   2.267093880228105e-05   2.998979606933523e+00  7.58698300e-02   1.31431700e-02   1.45119800e-02
C     3.729708885105608e+00   7.173955757705474e-01   2.999857540732419e+00 -4.43122600e-02  -4.60272000e-03  -1.54719300e-02
C     4.972667035767166e+00   1.643197874927110e-04   2.999366986905390e+00 -2.99495100e-02  -5.82539600e-02   5.49770000e-03
C     6.215111886571711e+00   7.167627845143170e-01   2.999873037982371e+00 -3.67621000e-03   5.81087300e-02  -3.49149000e-03
C     7.457913996091285e+00   5.406822095085109e-04   3.001129187799352e+00  1.20418200e-02  -4.77826800e-02  -9.93617000e-03
C     8.701310306829859e+00   7.174427003324486e-01   3.000979340081491e+00 -1.58217300e-02   2.20472000e-03  -7.07600000e-04
C     1.242566531922104e+00   2.154139146344392e+00   3.000522383977007e+00  4.15030600e-02  -7.75549000e-03  -1.40187200e-02
C     2.487049755904316e+00   2.871800566544284e+00   3.000563599983719e+00 -7.32621700e-02  -2.92250000e-02  -3.17324000e-03
C     3.728579879854302e+00   2.152362886130897e+00   2.999011994635013e+00  1.57554000e-02   1.45098200e-02   1.76857000e-02
C     4.971217915235194e+00   2.869838339200170e+00   3.000197609616489e+00  1.89678400e-02   1.94073200e-02  -1.02391300e-02
C     6.214395224200337e+00   2.152517364322170e+00   2.998958747040098e+00  2.73086800e-02  -2.19605000e-03   1.64142800e-02
C     7.458534314705419e+00   2.870062173169476e+00   3.000044029826530e+00 -7.80058100e-02  -1.48887900e-02  -4.95305000e-03
C     8.700293151427333e+00   2.152617559522804e+00   2.999609384011041e+00  4.41506600e-02   8.82894000e-03   6.66375000e-03
C     9.943147706889702e+00   2.871417863404448e+00   2.999445242707871e+00  2.03378600e-02  -6.89182300e-02   7.65075000e-03
C     2.485857291870759e+00   4.307112462506653e+00   3.001192826790520e+00 -2.49897000e-03  -3.22202000e-02  -6.01620000e-03
C     3.728599851492869e+00   5.024017662306185e+00   3.000598003322740e+00  2.38663200e-02  -1.41717600e-02   9.13948000e-03
C     4.970811755461590e+00   4.305394411791457e+00   3.000880346127609e+00  5.55243800e-02  -2.73578000e-03  -5.02574000e-03
C     6.215635298053440e+00   5.022298978001374e+00   3.000577026261092e+00 -1.01278620e-01   6.23195200e-02  -5.84041000e-03
C     7.456973375769770e+00   4.305071061244194e+00   3.000574596881060e+00  7.91153700e-02   3.11785000e-03  -7.66265000e-03
C     8.700838620684811e+00   5.022312983717902e+00   2.999388465279836e+00 -3.01048900e-02   6.28017700e-02   3.84782000e-03
C     9.943851508583220e+00   4.304974872887628e+00   2.999423208589159e+00 -2.08000000e-02   5.88606300e-02   3.51367000e-03
C     1.118648622191535e+01   5.023464387801551e+00   3.000585049513290e+00  9.09208000e-03  -1.22382700e-02  -1.03803300e-02
C     3.730124599581551e+00   6.458100081109397e+00   3.001233801188082e+00 -8.72966500e-02   7.04874300e-02  -1.52428400e-02
C     4.972401498521490e+00   7.176590307007439e+00   2.999761982831760e+00 -2.52334300e-02  -9.65497000e-03   1.08573900e-02
C     6.213858527515786e+00   6.459186423764174e+00   2.999021892696960e+00  1.09779060e-01  -4.96628400e-02   2.18140200e-02
C     7.459103050328111e+00   7.176632138989516e+00   3.001104731089607e+00 -1.26858270e-01   2.59008000e-03  -3.08856800e-02
C     8.699963492443032e+00   6.459669515078424e+00   2.999366191764093e+00  5.87449400e-02  -1.03042080e-01   1.14967600e-02
C     9.943482260165297e+00   7.175417525211755e+00   2.999408924615866e+00  3.82025000e-03   6.14694500e-02  -5.12059000e-03
C     1.118614405705207e+01   6.458129921254249e+00   2.999075296155936e+00  2.31452100e-02   2.72312200e-02   1.30828100e-02
C     1.242929300395139e+01   7.176869118091965e+00   3.000189447962383e+00  4.97388600e-02  -4.11675000e-02   7.48832000e-03
