32
Lattice="9.86 0 0 4.93 8.53901048131456 0 0 0 30 " PBC="1 1 1" Properties=species:S:1:pos:R:3:force:R:3 Energy="-253.12668641"
C     4.993810518299999e+00   8.408785702944026e+00  -5.758559999999981e-01 -9.76386260e-01  -2.14712283e+00   2.52434900e-02
C     1.281537033800000e+00   6.349889980273840e-01  -6.178166999999988e-01 -9.28761440e-01  -5.80280296e+00   8.43177960e-01
C     7.361259129299999e+00   8.387726112177411e+00  -5.651474999999984e-01  5.40054463e+00  -6.54474270e-01  -1.44835816e+00
C     3.817548359399999e+00   5.101906767413456e-01  -7.073102999999996e-01 -3.64974684e+00   1.00082586e+00   1.73897789e+00
C     9.938866689000001e+00   8.312894066885407e+00  -5.821629000000001e-01 -1.03764628e+00   1.63690448e+00   7.15639570e-01
C     6.207421519099999e+00   5.369040317368728e-01  -4.496321999999999e-01  5.31819660e-01  -1.11712637e+00  -1.08498563e+00
C     1.235498894350000e+01   8.401578948879116e+00  -4.803311999999984e-01  1.27147600e-01  -5.54849793e+00  -5.20304000e-03
C     8.644115677600000e+00   4.449125033248896e-01  -5.725470000000001e-01  1.25010261e+00   5.05456590e+00  -5.57440840e-01
C     1.298777884700000e+00   1.936072816068591e+00  -4.089713999999987e-01 -6.45518050e-01   5.23812596e+00  -2.02629650e+00
C     2.535585669400000e+00   2.683600934206192e+00  -4.620648000000003e-01  1.25201217e+00  -2.07092936e+00   6.43697860e-01
C     3.795245088700000e+00   1.953097553603196e+00  -5.648288999999984e-01  8.02746740e-01  -9.95151800e-02   2.68540450e-01
C     5.069843246100000e+00   2.676747439004839e+00  -4.634609999999988e-01 -4.31117879e+00   6.19372880e-01  -8.05323780e-01
C     6.239282925900000e+00   1.935870953860844e+00  -5.316920999999972e-01 -1.02654680e+00   7.03995470e-01   5.61904530e-01
C     7.410054593100000e+00   2.672081382118148e+00  -5.701244999999986e-01  2.60806183e+00  -2.45908305e+00  -1.29922142e+00
C     8.636433652999999e+00   1.936029523285457e+00  -7.186163999999984e-01  1.25972424e+00  -8.41918830e-01   1.76297585e+00
C     9.905086969899999e+00   2.621318331056225e+00  -6.200621999999996e-01 -9.13042330e-01   9.98909850e-01   9.10009700e-01
C     2.565943623399999e+00   4.048410448168486e+00  -3.322274999999983e-01 -2.62478837e+00   3.47398323e+00  -5.84442730e-01
C     3.815843762600000e+00   4.862804739501509e+00  -3.274748999999986e-01 -2.89622620e+00  -4.74785691e+00  -1.07824702e+00
C     4.963313439700000e+00   4.145141468957289e+00  -5.013453000000005e-01  2.68206034e+00  -3.05534192e+00   4.13539500e-01
C     6.188887332000000e+00   4.801384491019917e+00  -6.695670000000007e-01  1.27771932e+00  -9.58016970e-01   2.70088110e-01
C     7.439501236599999e+00   4.036371980413573e+00  -6.617549999999994e-01 -2.96385982e+00   2.09104602e+00   3.84647680e-01
C     8.600265694000001e+00   4.732966011109336e+00  -5.385314999999977e-01  2.57906017e+00   2.41977249e+00  -4.66557840e-01
C     9.850436588799999e+00   4.081427215310245e+00  -5.280978000000012e-01  3.76019080e-01  -2.32249206e+00  -9.64390600e-02
C     1.104238171860000e+01   4.763497413860786e+00  -4.407204000000000e-01  4.97969686e+00   1.72778372e+00   1.17244873e+00
C     3.789005927200000e+00   6.192555979696486e+00  -5.344298999999992e-01  2.38158010e-01   1.81506156e+00   9.77433060e-01
C     4.949849954799999e+00   6.966354448965912e+00  -5.115297000000005e-01  3.69730008e+00  -3.58684640e-01  -1.70826330e+00
C     6.211033927300000e+00   6.174722170918902e+00  -6.856559999999980e-01  1.01805200e-02   3.94896526e+00   1.35430175e+00
C     7.467949752300000e+00   6.958835423287749e+00  -5.995998000000000e-01 -1.82754178e+00  -1.47527512e+00  -1.22489720e-01
C     8.691308447699999e+00   6.173039473513712e+00  -5.063807999999987e-01 -1.24636127e+00   1.71401101e+00  -6.09807300e-02
C     9.899503350499998e+00   6.935650985153290e+00  -4.062659999999987e-01  1.71168373e+00  -1.40904762e+00  -7.95282540e-01
C     1.119822882930000e+01   6.277654818849014e+00  -3.832895999999977e-01 -4.98552125e+00  -5.87556945e+00  -1.84129840e-01
C     1.242142177810000e+01   6.758407769301188e+00  -4.936410000000002e-01 -7.50912110e-01   8.50043178e+00   2.81036010e-01
