26
Lattice="8.88768389401873 1.33226762955019e-15 0 4.44384194700937 7.69696003302603 0 0 0 30 " PBC="1 1 1" Properties=species:S:1:pos:R:3:force:R:3 Energy="-207.11403683"
C     1.199138354228535e+00   1.505623825986784e+00   3.502614900000000e+00  4.84996300e-01  -1.21081300e-02  -8.25026020e-01
C     3.675682137728459e+00   9.198980985966341e-01   3.577801800000000e+00 -2.20628098e+00   1.95790800e-01  -9.64639200e-01
C     5.001200378785100e+00   1.327027875748280e+00   3.795327900000000e+00  5.19272830e-01   2.39783570e-01   2.41010990e-01
C     6.016939774553951e+00   3.597177348804512e-01   4.145835000000000e+00 -3.40307700e-02   1.39628889e+00  -1.00104550e+00
C     7.383587150383978e+00   7.382261352517416e-01   4.052487000000000e+00  6.19085660e-01  -7.76036080e-01  -9.22762490e-01
C     1.279375390685451e+01   7.349763786665953e+00   3.853947000000000e+00  2.16711980e+00   3.25504216e+00  -6.42027250e-01
C     8.333008871656425e-01   9.559501205899519e-02   3.424742700000000e+00 -7.78305460e-01   5.76005570e-01   1.85147917e+00
C     6.329294585003254e+00   6.816078822400240e+00   3.399228300000000e+00 -8.69828000e-01   8.46544450e-01   2.31975000e-01
C     7.689855408317944e+00   7.260858818325833e+00   3.530697900000000e+00  1.91043807e+00  -1.39808449e+00   4.12586850e-01
C     8.747293594966617e+00   6.276488365551509e+00   3.764577300000000e+00  6.19378700e-01   2.00274459e+00   1.38380573e+00
C     1.015928642286477e+01   6.714615032257569e+00   4.176533700000000e+00 -2.87490705e+00  -3.44948651e+00  -1.49312971e+00
C     1.114876520122457e+01   5.646351255757859e+00   4.169216400000000e+00 -5.18301850e-01   3.09272500e-01  -7.82011490e-01
C     3.604794152070990e+00   5.992953524686391e+00   3.972721800000000e+00  7.91998900e-02   8.57479160e-01  -3.51310400e-02
C     4.601071875353465e+00   5.020249123320736e+00   3.731607300000000e+00  1.13911549e+00   2.35359749e+00  -4.51248240e-01
C     5.944599096970329e+00   5.441498126981815e+00   3.498446100000000e+00  1.53832318e+00   1.01182201e+00   5.16382940e-01
C     7.037828253325817e+00   4.536049531449500e+00   3.599215500000000e+00 -1.33409245e+00  -1.00774956e+00   4.32533550e-01
C     8.379503725989881e+00   4.935256442794266e+00   3.776189700000000e+00  2.00345374e+00  -1.30730010e+00  -3.80841220e-01
C     9.453305338502368e+00   3.927793955385937e+00   3.829507800000000e+00 -1.49779001e+00  -5.18252370e-01  -5.08278870e-01
C     1.083335023120571e+01   4.283876723922620e+00   3.896278200000000e+00 -1.64810414e+00  -5.45606080e-01   2.86918850e-01
C     2.928981244186802e+00   3.261045947331191e+00   3.687368100000000e+00  3.72008900e-02   7.87497440e-01  -5.87695560e-01
C     4.287977879573263e+00   3.702735998652742e+00   3.684985800000000e+00 -1.02321303e+00  -2.88123956e+00  -1.68642700e-01
C     5.306507074870704e+00   2.726097988894156e+00   3.647752800000000e+00  1.10025904e+00  -2.50872600e-01   9.49478000e-01
C     6.657880343850101e+00   3.184971734391482e+00   3.739187100000000e+00  1.52739486e+00  -3.33117757e+00  -3.39637570e-01
C     7.708973435149537e+00   2.098248338651822e+00   3.811722900000000e+00 -4.10115510e-01   2.31858872e+00   2.08847910e-01
C     9.069667662600192e+00   2.544225211862081e+00   3.679382100000000e+00  9.25137260e-01  -1.13839550e+00   2.46285830e-01
C     2.626893089528169e+00   1.895019268442108e+00   3.371359200000000e+00 -1.47540645e+00   4.65851200e-01   2.34081204e+00
