26
Lattice="8.88768389401873 1.33226762955019e-15 0 4.44384194700937 7.69696003302603 0 0 0 30 " PBC="1 1 1" Properties=species:S:1:pos:R:3:force:R:3 Energy="-208.49415389"
C     9.904255402720051e-01   1.065048063568777e+00   3.580289100000000e+00 -6.07457840e-01   2.06449556e+00  -4.89485000e-03
C     3.319459678829849e+00   5.307087037613128e-01   3.692406000000000e+00  1.15451602e+00  -2.14073720e+00  -1.95493730e-01
C     4.699179415603320e+00   8.640753571918569e-01   3.714290400000000e+00 -4.61746690e-01   1.27901224e+00  -3.39971530e-01
C     1.018243755126181e+01   7.604011617647320e+00   3.634229700000000e+00 -2.10949770e-01  -2.26991789e+00  -3.41661270e-01
C     7.111306288335928e+00   2.533455163570503e-01   3.538011600000000e+00  3.01091220e-01   1.81093889e+00   5.60061300e-02
C     1.260453160597464e+01   7.000879907875728e+00   3.496361100000000e+00 -1.20221413e+00  -8.61293310e-01   3.84274990e-01
C     5.067837081417313e+00   7.411894648632916e+00   3.529030500000000e+00  9.71118210e-01  -1.75667292e+00   3.23997130e-01
C     6.095581471723740e+00   6.385442375377772e+00   3.554364000000000e+00  3.03153280e-01   7.58536150e-01  -2.89671140e-01
C     7.464044779142673e+00   6.789349050516857e+00   3.550605000000000e+00 -1.51412887e+00   1.97228419e+00   5.73061070e-01
C     8.451991320861906e+00   5.816621635240712e+00   3.484194900000000e+00  1.33416776e+00  -1.74819685e+00  -5.67376040e-01
C     9.840728590596109e+00   6.163996909865057e+00   3.544209900000000e+00 -1.87586650e-01   2.19647547e+00  -1.71590950e-01
C     1.088310708573507e+01   5.209298776793585e+00   3.475408200000000e+00 -6.80090700e-01  -1.55926740e-01   1.22994715e+00
C     3.344955736457312e+00   5.596292613780348e+00   3.556442100000000e+00  1.56648356e+00   1.34372205e+00  -2.78039660e-01
C     4.397548802255271e+00   4.645662401054332e+00   3.634310700000000e+00  2.19687560e-01  -9.10894800e-02  -9.03754700e-01
C     5.785864751339357e+00   5.000253344798001e+00   3.548825700000000e+00 -2.02261485e+00   9.46450630e-01  -1.31363000e-01
C     6.733643672324637e+00   3.991173033360966e+00   3.401855100000000e+00  1.61734191e+00  -4.01867140e-01   5.83771780e-01
C     8.112830903568195e+00   4.402059234885654e+00   3.310601100000000e+00  3.37235110e-01   4.71560710e-01   1.59571189e+00
C     9.167628781540175e+00   3.440668902946498e+00   3.484690800000000e+00  2.01475470e-01   1.10797390e-01  -2.98611770e-01
C     1.055295402501791e+01   3.830110296253201e+00   3.611051100000000e+00 -1.00812225e+00   1.08484915e+00  -1.59611427e+00
C     2.709469405537339e+00   2.906724859006175e+00   3.575149200000000e+00 -1.10521072e+00  -1.07607398e+00   1.10082076e+00
C     4.066072943113895e+00   3.278088248351216e+00   3.579137700000000e+00 -1.27470030e+00   3.71569760e-01   6.48615730e-01
C     4.999434618801994e+00   2.271812555209913e+00   3.659928000000000e+00  2.74882162e+00  -1.94050651e+00  -1.39401410e-01
C     6.386195578693885e+00   2.597461851666378e+00   3.568146300000000e+00  5.72911540e-01   1.75776099e+00  -7.55307740e-01
C     7.452467545468530e+00   1.672764005764636e+00   3.504651600000000e+00  6.79210300e-02  -1.56023703e+00   2.34836460e-01
C     8.844838589225571e+00   2.060150772560931e+00   3.489552300000000e+00 -8.96088520e-01  -3.17489410e-01   2.65612880e-01
C     2.339248043987707e+00   1.543527505654519e+00   3.699954600000000e+00 -2.25012980e-01  -1.84844469e+00  -9.83403930e-01
