32
Lattice="9.86 0 0 4.93 8.53901048131456 0 0 0 30 " PBC="1 1 1" Properties=species:S:1:pos:R:3:force:R:3 Energy="-256.95546174"
C     1.192355996000000e+00   3.866819168179968e-01   3.601083000000000e+00  5.52382500e-01  -1.96706024e+00  -6.31092020e-01
C     2.426236593200000e+00   1.065762607799490e+00   3.537841200000000e+00  9.75651380e-01   6.95767840e-01   1.06514252e+00
C     3.688049929500000e+00   3.657726980259352e-01   3.592914000000000e+00 -1.50195891e+00   9.47235210e-01  -2.29731490e-01
C     4.892816017299999e+00   1.076157572207318e+00   3.598891800000000e+00  7.32156160e-01   7.56935250e-01   8.00537660e-01
C     6.111742149700000e+00   3.295360408123784e-01   3.666301500000000e+00  7.95038340e-01   1.59777429e+00  -1.35816584e+00
C     7.338345771100000e+00   1.055037866806924e+00   3.517764600000000e+00  4.69577860e-01   1.09158892e+00   3.71678800e-02
C     8.617038835799999e+00   3.361333656993312e-01   3.494079600000000e+00 -2.75040947e+00   8.22128300e-02   4.92949680e-01
C     9.811039331900000e+00   1.037381071716589e+00   3.562835400000000e+00  6.08909800e-01   1.60974009e+00  -2.24661620e-01
C     2.444789908700000e+00   2.477968155601338e+00   3.652801500000000e+00 -6.43371920e-01   7.03251300e-01  -4.62789580e-01
C     3.688629056600000e+00   3.230355483042688e+00   3.702326400000000e+00 -1.76776762e+00   2.29677500e-02  -7.66021860e-01
C     4.900723441500000e+00   2.522490214683639e+00   3.650171400000000e+00  3.48905950e-01  -4.43214710e-01  -6.66238570e-01
C     6.128003606800000e+00   3.265739263889503e+00   3.513721200000000e+00 -1.26720268e+00  -2.33740897e+00   5.07700340e-01
C     7.306136897899999e+00   2.544221654794820e+00   3.445492800000000e+00  2.81516146e+00  -2.79939061e+00   8.99146930e-01
C     8.594881493099999e+00   3.200112101114728e+00   3.567315900000000e+00 -1.72308554e+00   2.76013030e-01  -7.48810930e-01
C     9.813905831099998e+00   2.479251227316063e+00   3.569565000000000e+00 -8.75177140e-01  -9.10787330e-01   1.29963690e-01
C     1.101734348110000e+01   3.161325866152054e+00   3.615302100000000e+00  2.73181327e+00   1.39998948e+00   5.32636590e-01
C     3.635389049900000e+00   4.676743031356396e+00   3.609635700000000e+00  5.57614080e-01  -1.77858734e+00   6.36729420e-01
C     4.884573796800000e+00   5.348687756669857e+00   3.596819700000000e+00 -3.02892080e-01   1.77480010e-01   1.14333180e-01
C     6.123511637300000e+00   4.633310379231133e+00   3.561086700000000e+00 -9.96844180e-01   2.01482843e+00  -1.85431240e-01
C     7.328462501500000e+00   5.347425605530809e+00   3.541629600000000e+00  1.69184819e+00  -5.22061700e-02   1.21147470e-01
C     8.559960084600000e+00   4.621381125420259e+00   3.600649200000000e+00  1.23213918e+00   5.41300000e-02   1.48389090e-01
C     9.827095355899999e+00   5.311509673550881e+00   3.696718200000000e+00 -1.06032599e+00   8.48762580e-01  -4.98635470e-01
C     1.106136350040000e+01   4.610489275992601e+00   3.684544800000000e+00 -1.74796202e+00  -9.99344630e-01  -1.65318240e-01
C     1.224091924440000e+01   5.344289995492447e+00   3.651829500000000e+00  1.89577621e+00   1.46494500e-01   1.20572660e-01
C     4.870550116000000e+00   6.758993630810221e+00   3.623485200000000e+00  1.91064039e+00   4.97070320e-01  -6.79995070e-01
C     6.152297414300000e+00   7.485209745031418e+00   3.582656100000000e+00 -1.30858358e+00  -2.99908810e-01  -6.16947600e-02
C     7.386924019099999e+00   6.760926435832368e+00   3.525910800000000e+00 -1.02430842e+00   1.33659029e+00   7.44242300e-01
C     8.605474238999999e+00   7.521985811536997e+00   3.612822300000000e+00  4.73764870e-01  -3.18305858e+00  -3.35925780e-01
C     9.827022983499999e+00   6.747335234411771e+00   3.661922100000000e+00  1.28720220e-01   5.30925020e-01  -1.15163100e-02
C     1.107016931850000e+01   7.466756943384139e+00   3.629194800000000e+00 -1.37275068e+00  -5.25568760e-01   7.65596250e-01
C     1.228149048220000e+01   6.764496169163533e+00   3.660118200000000e+00 -4.51223240e-01  -5.46240040e-01  -7.47327160e-01
C     1.350135065240000e+01   7.444754218910008e+00   3.549002400000000e+00  8.73763600e-01   1.05301904e+00   6.57100280e-01
