32
Lattice="9.86 0 0 4.93 8.53901048131456 0 0 0 30 " PBC="1 1 1" Properties=species:S:1:pos:R:3:force:R:3 Energy="-257.04125304"
C     4.999742836599999e+00   6.850351820814902e+00  -1.114041000000014e-01 -1.08595986e+00  -9.88945260e-01   4.15029980e-01
C     6.195515519800000e+00   7.562809283619990e+00  -8.115869999999958e-02  1.60157691e+00  -6.70261450e-01   2.66029200e-02
C     7.439886516100000e+00   6.844624108755233e+00  -1.168443000000003e-01  1.48856380e+00   1.50504200e-02  -4.75319100e-02
C     8.739043616400000e+00   7.522956013907734e+00  -7.729949999999874e-02 -1.99690559e+00   9.83899800e-02   3.33656770e-01
C     9.964561848999999e+00   6.785761550082715e+00  -1.384050000000059e-02 -5.99288960e-01   3.25020616e+00  -3.73181000e-01
C     1.119511499200000e+01   7.545722382089092e+00  -1.106460000000098e-02 -7.33332970e-01  -5.52386390e-01   2.02207300e-01
C     1.242091684750000e+01   6.855469335185671e+00   7.437690000000000e-02 -6.88134860e-01  -1.85519653e+00   2.76078440e-01
C     1.363356181480000e+01   7.537806036253293e+00   5.008319999999999e-02  1.90541430e-01   1.26112799e+00  -1.98494490e-01
C     1.257706695600000e+00   4.248260181925760e-01   5.267850000000000e-02  2.04227659e+00   2.54942490e-01  -2.44694890e-01
C     2.517887906100000e+00   1.130963503171101e+00   3.515520000000000e-02  4.53225290e-01  -8.46300530e-01   1.80861290e-01
C     3.759738193400000e+00   4.151663479771808e-01  -2.110649999999836e-02  1.52667680e-01  -5.35428740e-01  -6.01606360e-01
C     4.982666795600000e+00   1.116447270745206e+00  -1.200366000000024e-01  5.80136770e-01   9.71038580e-01  -1.01654380e-01
C     6.229224049700000e+00   4.203511497505319e-01  -1.022297999999999e-01 -1.89841020e-01  -1.62305020e-01   5.34127120e-01
C     7.460239281599999e+00   1.128181237386403e+00  -4.422000000019466e-04 -5.09313890e-01  -3.68640370e-01  -1.73384380e-01
C     8.672189710500000e+00   4.294641525149976e-01   1.137309000000000e-01  1.52019701e+00  -2.47214260e-01  -7.05997780e-01
C     9.940524795900000e+00   1.135899392788961e+00   9.847320000000001e-02 -2.04182913e+00   1.10722573e+00   6.22784980e-01
C     2.576112389300000e+00   2.530261055780858e+00   9.395400000000001e-02 -1.12612935e+00   1.56108473e+00  -9.55907700e-02
C     3.801240905400000e+00   3.285917970335000e+00  -3.959460000000092e-02 -1.18674664e+00  -1.29733208e+00   1.15117400e-01
C     5.004642665000000e+00   2.559710822074806e+00  -1.886682000000022e-01 -2.13011400e-02  -3.00483180e-01   7.83460170e-01
C     6.224739080799999e+00   3.274362810573254e+00  -1.581963000000002e-01  1.04635780e+00  -1.52235920e-01  -4.40436260e-01
C     7.466347255799999e+00   2.525237641305579e+00  -7.986569999999915e-02 -9.38960520e-01   1.45235520e+00   1.59703050e-01
C     8.669080655300000e+00   3.245024563756175e+00  -5.734799999999041e-03  1.84336843e+00   8.72839080e-01   3.09219710e-01
C     9.956057007400000e+00   2.583065015737606e+00   1.691481000000000e-01 -1.47551566e+00  -1.34058750e+00  -8.97746310e-01
C     1.117748102290000e+01   3.258439520000465e+00   1.749093000000000e-01  9.67671970e-01   1.47701378e+00  -9.17890800e-02
C     3.754084666600000e+00   4.692410322394996e+00   3.505800000000000e-03  7.18006380e-01   3.08503770e-01  -1.18332060e-01
C     4.957681950000000e+00   5.423501101528911e+00  -1.819185000000019e-01  1.90562332e+00  -3.12285840e-01   6.26107530e-01
C     6.243265281299999e+00   4.712517728102985e+00  -1.940972999999993e-01 -1.96741359e+00  -6.81229080e-01  -7.40034800e-02
C     7.458465763400000e+00   5.413233282987130e+00  -1.613547000000004e-01  3.35038610e-01   2.28105860e-01  -5.04648300e-02
C     8.684730890999999e+00   4.670314437316528e+00  -9.542040000000185e-02  3.00433440e-01   9.65432850e-01   5.20544630e-01
C     9.925208222599998e+00   5.428131465351795e+00   1.919820000000000e-02  3.31252150e-01  -3.29846376e+00   2.20111200e-01
C     1.117972934940000e+01   4.731667910736166e+00   1.632612000000000e-01 -1.15812418e+00  -2.20038693e+00  -1.41581460e-01
C     1.239997553860000e+01   5.391318766491257e+00   1.778892000000000e-01  2.41859780e-01   1.98636623e+00  -9.69123020e-01
