26
Lattice="8.88768389401873 1.33226762955019e-15 0 4.44384194700937 7.69696003302603 0 0 0 30 " PBC="1 1 1" Properties=species:S:1:pos:R:3:force:R:3 Energy="-208.22926781"
C     1.285870798909226e+01   7.153286951612156e+00   2.164530000000000e-02 -1.66923470e-01  -2.52079830e-01  -3.86020930e-01
C     9.086576484030493e+00   6.900050501178731e+00  -1.148999999999987e-01  1.14577360e+00   3.61579670e-01  -6.08736680e-01
C     1.047832298971288e+01   6.475095180354407e+00  -2.303511000000000e-01  1.05195020e-01   3.47309744e+00   1.44076660e+00
C     1.084962913575799e+01   5.126320775554967e+00  -1.830746999999988e-01 -1.53092559e+00   4.65687870e-01   5.30629260e-01
C     6.703943167340682e+00   6.349970781140317e+00  -8.584229999999948e-02 -2.33190100e-02  -1.93301313e+00   1.30106520e-01
C     8.031911608977275e+00   5.905408301305171e+00  -1.392767999999975e-01  2.24249081e+00   1.79174854e+00   2.76468800e-02
C     8.431865515382334e+00   4.557364338012578e+00  -1.744547999999995e-01 -1.82458317e+00  -5.50837010e-01   1.74031960e-01
C     9.779100322687842e+00   4.173653408417810e+00  -1.994384999999994e-01  1.34791713e+00  -1.78398638e+00   3.81961160e-01
C     1.015524554594077e+01   2.763665234438979e+00  -9.413129999999725e-02 -2.31941278e+00   8.61379210e-01  -2.07345340e-01
C     4.304588962122495e+00   5.794496030908075e+00   6.147900000000000e-03  6.05630770e-01  -2.36073885e+00   5.18922590e-01
C     5.692382537065409e+00   5.347776401054921e+00  -3.417899999999818e-02 -1.89989532e+00   2.29889424e+00   4.61220000e-02
C     5.996493437942557e+00   4.007535307962341e+00  -3.020040000000179e-02 -4.55610850e-01  -1.81066193e+00   3.76178920e-01
C     7.346395439164073e+00   3.593992346744098e+00  -7.645049999999998e-02  1.23907968e+00   9.23571000e-02  -4.36653930e-01
C     7.668040007241140e+00   2.228054567743361e+00  -8.312820000000087e-02  2.58306462e+00  -9.12692610e-01   2.96088300e-01
C     9.072717737458893e+00   1.776578601439669e+00  -8.150129999999933e-02  5.49774940e-01   1.53574095e+00   3.34858320e-01
C     3.293149204336545e+00   4.774472720487589e+00   6.051270000000000e-02  8.05800190e-01  -5.63656130e-01  -1.84636830e+00
C     3.618482516706012e+00   3.363423828447024e+00  -4.769280000000009e-02 -6.35567100e-02   2.37378161e+00   1.49124894e+00
C     4.937248072791865e+00   2.993398940451200e+00   4.467120000000000e-02  3.01565902e+00   5.48435530e-01  -1.28719453e+00
C     5.328035533103167e+00   1.647590251320918e+00  -8.932109999999938e-02  3.65864330e-01  -1.51898441e+00   1.15931458e+00
C     6.700510829365053e+00   1.217407694031420e+00  -5.050769999999716e-02 -9.21885910e-01   1.14462790e+00  -4.32190380e-01
C     1.152942905845330e+01   7.578168920407394e+00  -6.379950000000179e-02 -2.75877879e+00  -3.12853634e+00  -4.97598300e-01
C     2.626274640377597e+00   2.407504495697192e+00  -1.458090000000212e-02 -1.53138036e+00  -2.34928930e+00  -4.85641290e-01
C     2.945125676061994e+00   9.941786119709530e-01  -7.826099999999059e-03  1.56494253e+00   7.80944180e-01  -7.71357000e-02
C     4.355531563043628e+00   6.325339431469913e-01  -2.272740000000084e-02 -2.02079975e+00  -1.51324571e+00  -6.66028330e-01
C     5.334404760026290e-01   4.077693945301394e-01   3.176700000000000e-03  2.04736019e+00   8.75591780e-01  -4.02609620e-01
C     6.397088238502160e+00   7.692126339101160e+00  -4.662090000000063e-02 -2.10148111e+00   2.07385561e+00   4.25647300e-01
