32
Lattice="9.86 0 0 4.93 8.53901048131456 0 0 0 30 " PBC="1 1 1" Properties=species:S:1:pos:R:3:force:R:3 Energy="-248.4517359"
C     5.247703053300000e+00   8.110333965811678e+00  -1.800740999999988e-01  1.98170644e+00  -1.17968800e+00  -1.61003800e-02
C     1.559901645100000e+00   2.560879129488680e-01  -2.724072000000000e-01  1.11538818e+00   1.03949882e+00  -7.53526910e-01
C     7.757476820300000e+00   8.006936283370825e+00  -2.912441999999977e-01 -2.89856975e+00   4.76691167e+00   2.42714247e+00
C     3.994028259599999e+00   2.975826366456944e-01  -8.330639999999789e-02  3.71933147e+00  -1.73160396e+00  -2.71450425e+00
C     1.027179856160000e+01   8.209407749515773e+00  -1.241711999999993e-01 -1.78546176e+00  -3.49653326e+00  -4.90748940e-01
C     6.600659764600000e+00   3.352091032049760e-01  -1.458531000000001e-01 -1.30849480e-01  -5.35140082e+00   2.49253940e-01
C     1.270603107250000e+01   8.024503931191747e+00  -2.712402000000012e-01  1.01495190e-01   2.60728916e+00  -8.95109500e-01
C     8.988845286700000e+00   3.344956688793720e-01  -1.198745999999993e-01  1.58027410e+00  -4.30106946e+00  -1.75840955e+00
C     1.606048811500000e+00   1.708117783217446e+00  -4.694766000000001e-01  6.58793987e+00  -1.96010030e+00   8.76469670e-01
C     3.097724630300000e+00   2.417338961050614e+00  -5.461112999999997e-01 -1.04737494e+01   2.93386381e+00  -1.22762135e+00
C     4.163956140500000e+00   1.695736218021446e+00  -4.822364999999991e-01  4.30322610e+00  -3.49916234e+00   3.03065466e+00
C     5.463540474599999e+00   2.360214774131614e+00  -2.836587000000002e-01 -5.46008130e-01  -2.42250953e+00  -1.34725037e+00
C     6.763975233700000e+00   1.667156833065724e+00  -7.543649999999857e-02 -5.75091556e+00   6.39710990e-01   6.59647000e-02
C     7.939124149300000e+00   2.276690016170971e+00  -7.419300000000106e-02  1.41361370e-01   7.38320902e+00  -2.01158695e+00
C     9.164263363500000e+00   1.718533668200950e+00  -2.496915000000008e-01 -7.57677280e-01  -1.00914681e+00   1.71883684e+00
C     1.038154203780000e+01   2.473114838214821e+00  -3.310734000000011e-01 -3.38150024e+00  -9.62708370e-01  -1.04636172e+00
C     2.935548730700000e+00   3.850906295199964e+00  -7.411275000000010e-01 -9.49220410e-01  -1.41493729e+00   1.43130840e-01
C     4.173925586499999e+00   4.446385120956179e+00  -8.906133000000018e-01  2.45645600e-01   2.44157430e+00   8.07875200e-01
C     5.403224438900000e+00   3.672171484997215e+00  -6.256550999999995e-01 -3.06151248e+00   1.79141666e+00  -8.46303400e-02
C     6.521896359099999e+00   4.370038682155546e+00  -4.031894999999999e-01  3.40575703e+00   4.89360794e+00   2.60666146e+00
C     7.766058668499999e+00   3.755205335245364e+00  -2.828967000000020e-01  3.28095327e+00  -1.79852150e-01   4.05041360e-01
C     9.003864285199999e+00   4.576644224834281e+00  -3.850917000000003e-01 -8.76178270e-01  -3.65559310e-01   7.06746300e-01
C     1.026316115230000e+01   3.839906341899628e+00  -5.388885000000023e-01 -5.02025880e-01   3.57995992e+00   1.25416415e+00
C     1.145903248480000e+01   4.629123617002685e+00  -6.261705000000006e-01  2.41899413e+00  -9.36007833e+00  -1.00933083e+00
C     4.156589586600000e+00   5.925037320368566e+00  -8.637957000000007e-01  2.14476930e-01   1.02658059e+00   2.27116689e+00
C     5.348170734500000e+00   6.641351256476736e+00  -2.729433000000014e-01 -3.29616687e+00  -1.18078671e+00  -1.08833407e+00
C     6.488810192399999e+00   5.839291651172180e+00   6.541200000000000e-02 -1.37440808e+00   1.00817420e-01  -3.70482279e+00
C     7.606815823100000e+00   6.674044907461932e+00   2.745930000000000e-02  5.45229906e+00  -1.96237237e+00  -1.00683897e+00
C     8.941735389900000e+00   6.089103391418248e+00  -2.230218000000015e-01  1.57463057e+00  -4.51475517e+00  -4.55096000e-02
C     1.025771434040000e+01   6.663277812977386e+00  -3.255225000000017e-01 -6.14724230e-01   3.30443749e+00   1.15526650e-01
C     1.152690256230000e+01   5.897880107608289e+00  -6.710606999999982e-01 -3.24868425e+00   8.29795220e+00   6.75545770e-01
C     1.269489923110000e+01   6.667316850324530e+00  -7.948793999999992e-01  3.52417271e+00   8.54341800e-02   1.84650563e+00
