26
Lattice="8.88768389401873 1.33226762955019e-15 0 4.44384194700937 7.69696003302603 0 0 0 30 " PBC="1 1 1" Properties=species:S:1:pos:R:3:force:R:3 Energy="-206.83794112"
C     1.242750418493249e+01   6.491009184003634e+00  -9.306060000000116e-02  1.52088680e-01   5.58727146e+00  -3.61235710e-01
C     8.623224594133367e+00   6.307596322239156e+00   1.102920000000000e-01  5.36435680e-01  -1.19959722e+00   2.51635040e-01
C     1.002175249151538e+01   5.905286073579894e+00   2.227515000000000e-01 -2.56758980e-01   1.54803964e+00  -4.79835340e-01
C     1.035557660826908e+01   4.522485717575833e+00   1.686702000000000e-01  5.82753020e-01  -3.61521290e-01   3.33723550e-01
C     6.267344850146484e+00   5.715195868080592e+00  -2.651834999999991e-01  1.73324870e-01  -5.70999130e-01  -5.62085100e-02
C     7.608650861218841e+00   5.233258643670972e+00  -1.882530000000315e-02 -1.69230230e-01   4.53535336e+00  -7.32853550e-01
C     7.884099603692238e+00   3.898600925384153e+00  -4.199700000000206e-02  4.59740781e+00  -1.29666510e-01   1.23257339e+00
C     9.360180053107580e+00   3.496595399372479e+00   1.662354000000000e-01 -2.10775085e+00   5.80187430e-01  -1.96251150e+00
C     9.686231756992216e+00   2.126094092769955e+00  -1.202292000000007e-01 -2.69927200e-02   3.20890289e+00   1.60873300e-02
C     3.895515313138068e+00   5.198289276075474e+00  -5.542200000000008e-02 -1.20628433e+00  -4.27898705e+00  -4.77906850e-01
C     5.213282426774243e+00   4.764418104630799e+00  -2.868752999999984e-01  9.38382300e-01   2.18484320e-01   1.67075831e+00
C     5.556258902654948e+00   3.398167598144043e+00  -6.160320000000041e-02 -8.21612370e-01   1.14584304e+00  -1.59522192e+00
C     6.862445319761028e+00   2.990458624750139e+00  -1.266405000000006e-01  1.96007150e+00  -2.51120960e+00   8.24920500e-01
C     7.254613303980129e+00   1.597181397662042e+00  -5.305560000000042e-02 -2.25876361e+00   1.15487241e+00  -1.06493810e-01
C     8.589439971395350e+00   1.254978711086659e+00  -1.755492000000025e-01  2.90854773e+00  -3.45230437e+00  -7.91505290e-01
C     2.863103109900462e+00   4.143251724782515e+00   7.937700000000000e-02 -6.29637230e-01   1.51329162e+00   3.69611600e-02
C     3.185512774248093e+00   2.781771794122352e+00   8.997300000000000e-03  1.13021170e-01   2.99642250e-01  -1.78420651e+00
C     4.573100732693216e+00   2.441277678734428e+00  -6.067230000000023e-02 -2.48413101e+00  -2.26979213e+00   1.75616610e+00
C     4.844371686009360e+00   1.061207049605006e+00   1.753422000000000e-01  1.98812360e-01  -1.67321693e+00  -1.76448643e+00
C     6.194379717302135e+00   6.514354448622626e-01   8.535990000000000e-02  2.19908154e+00  -2.00528759e+00   3.84767480e-01
C     1.107341941750139e+01   6.937116674625602e+00   1.370064000000000e-01 -1.78462453e+00  -5.86124460e-01  -3.73093290e-01
C     2.180880404648957e+00   1.802582934840224e+00  -3.158550000000027e-01 -4.83486430e-01  -6.92148680e-01   2.54791206e+00
C     2.503061566630611e+00   4.208347532722635e-01  -2.336676000000004e-01  5.09758660e-01  -9.86837680e-01  -5.32679900e-01
C     8.264295481134592e+00   7.691318081328409e+00   4.558230000000000e-02  1.21332998e+00   1.16360786e+00   1.52661180e-01
C     4.606920106321985e+00   7.565849551031378e+00  -3.464985000000027e-01 -3.21674847e+00  -2.10336518e+00   1.32431710e+00
C     5.953652003976228e+00   7.092317637883320e+00  -3.734454000000014e-01 -6.36994540e-01   1.86556154e+00   4.85755400e-01
