32
Lattice="9.86 0 0 4.93 8.53901048131456 0 0 0 30 " PBC="1 1 1" Properties=species:S:1:pos:R:3:force:R:3 Energy="-253.23464241"
C     7.784359075000000e-01   1.184627939213919e+00   3.954741300000000e+00 -1.33552355e+00   4.39988310e-01   1.66619727e+00
C     1.972039390700000e+00   1.895854759828630e+00   3.718383600000000e+00  1.85200292e+00  -1.09197404e+00  -1.97463340e-01
C     3.240080796000000e+00   1.157037627842096e+00   3.815446800000000e+00 -3.22358050e-01   3.67330940e-01  -1.51083520e-01
C     4.480700752500000e+00   1.900835223081194e+00   3.747071700000000e+00 -7.28940920e-01  -2.94989318e+00  -1.29794985e+00
C     5.730759884200000e+00   1.081324442058661e+00   3.800822100000000e+00 -3.51921074e+00   2.59026430e-01   7.25326600e-01
C     6.866480582499999e+00   1.799174033811554e+00   3.911299500000000e+00  4.84679052e+00   1.30015524e+00   9.83584400e-02
C     8.188519538300000e+00   1.165683461343201e+00   4.132671300000000e+00 -3.18080982e+00  -7.93181990e-01  -7.63616170e-01
C     9.385441207300000e+00   1.891969851620649e+00   3.982537200000000e+00  1.15323309e+00   2.01627060e-01  -1.94020360e-01
C     2.007709518300000e+00   3.272723064390780e+00   3.411768300000000e+00 -2.30461855e+00   1.36611727e+00  -5.38915000e-02
C     3.215937797200000e+00   3.971868807588281e+00   3.205119900000000e+00  1.44632883e+00   1.19088600e+00   2.22869689e+00
C     4.431992993400000e+00   3.278015970036808e+00   3.435733800000000e+00  2.33462904e+00  -2.33285180e-01   1.69736847e+00
C     5.705826113399999e+00   3.954055065485325e+00   3.769321800000000e+00 -2.24956339e+00   1.63994171e+00  -1.86663838e+00
C     6.905047232999999e+00   3.219078011901752e+00   3.792845100000000e+00 -3.18173950e-01   6.44992100e-02   3.19945890e-01
C     8.116658182100000e+00   3.926555779965218e+00   3.715581900000000e+00  1.60388421e+00   2.76347226e+00   1.42634047e+00
C     9.428795577999999e+00   3.332940593246264e+00   3.791900400000000e+00 -2.80993496e+00  -2.47066526e+00  -7.92455610e-01
C     1.058812890570000e+01   4.033375556246036e+00   3.507743100000000e+00  1.17565864e+00   8.26305860e-01   7.65487290e-01
C     3.286066997899999e+00   5.400692123685258e+00   3.489915900000000e+00 -2.42203965e+00   9.37061270e-01  -2.50173700e-01
C     4.501161090600000e+00   6.166365468312649e+00   3.779386200000000e+00 -2.48078515e+00  -4.52797720e-01   1.47327014e+00
C     5.655058649600000e+00   5.396320918830442e+00   3.861455100000000e+00  3.13372728e+00   9.71672950e-01  -1.06689970e-01
C     6.912918668200000e+00   6.230678050424028e+00   3.981548400000000e+00 -1.13427241e+00  -7.47665421e+00   2.45771600e-02
C     8.145511154999999e+00   5.390076511246628e+00   3.839895000000000e+00 -3.66863126e+00   8.16601330e-01  -1.40067000e-02
C     9.278787953700000e+00   6.165518142302719e+00   3.840408600000000e+00  2.73636378e+00  -3.06756537e+00  -6.50064420e-01
C     1.049093001170000e+01   5.493373006413292e+00   3.618249000000000e+00  4.59181918e+00  -2.45975387e+00  -6.84495050e-01
C     1.184932155500000e+01   6.104609124378564e+00   3.607839300000000e+00  1.90285760e-01  -2.94452530e-01  -3.57242240e-01
C     4.423750181300000e+00   7.566636895067650e+00   4.289274000000000e+00  3.61991950e-01   4.01479600e-02  -1.73731257e+00
C     5.667001032300000e+00   8.369418132147873e+00   4.361548500000000e+00 -2.48666200e-01  -3.23514785e+00  -1.47117648e+00
C     6.851847849499999e+00   7.533766828125938e+00   4.238843700000000e+00  2.62489906e+00   5.37997320e+00  -1.11979953e+00
C     8.160044548500000e+00   8.265220344425044e+00   3.959584200000000e+00 -1.11931723e+00   2.85277750e-01   1.07502693e+00
C     9.376806854600000e+00   7.512599389656962e+00   3.887073300000000e+00 -5.96840170e-01   3.87367112e+00   2.68466000e-02
C     1.064931962200000e+01   8.192820380097954e+00   3.835649100000000e+00 -6.02681690e-01   4.67991450e-01  -6.47582640e-01
C     1.192232489640000e+01   7.508900119536817e+00   3.743961600000000e+00 -3.21495521e+00   3.25171160e-01   1.71343825e+00
C     1.301181742840000e+01   8.241320081042048e+00   4.185938700000000e+00  4.20570862e+00   1.00845270e+00  -8.85218370e-01
