32
Lattice="9.86 0 0 4.93 8.53901048131456 0 0 0 30 " PBC="1 1 1" Properties=species:S:1:pos:R:3:force:R:3 Energy="-257.21576607"
C     9.813048060399998e+00   3.111234579044592e-01   3.615786600000000e+00  7.01246010e-01   7.88458600e-01  -5.77146080e-01
C     1.202520522100000e+00   1.051902854499297e+00   3.581751300000000e+00 -1.61458340e-01  -2.61014865e+00  -1.79263800e-02
C     2.417051066500000e+00   2.932951140935816e-01   3.490485600000000e+00  1.21355609e+00   1.32238439e+00   2.93824020e-01
C     3.678739082200000e+00   1.026458567241307e+00   3.553134900000000e+00 -1.14642720e+00  -2.54641810e-01  -4.46761620e-01
C     4.919641971400000e+00   3.326506448849584e-01   3.520160700000000e+00 -1.24329618e+00   5.39333160e-01  -2.82352000e-01
C     6.148868057000000e+00   1.039818873818525e+00   3.495059100000000e+00  1.74350740e-01  -9.00981960e-01   1.49395840e-01
C     7.361016770500000e+00   2.948801252188792e-01   3.524707800000000e+00  7.70474800e-01  -1.69062210e-01   2.19404850e-01
C     8.585935120699999e+00   1.025299738129066e+00   3.621374100000000e+00  1.11393760e-01  -3.99390320e-01  -4.27787990e-01
C     1.110148965780000e+01   2.435853841304083e+00   3.646983900000000e+00 -1.73506065e+00   1.20433132e+00   3.30546000e-01
C     2.430899535100000e+00   3.163383938457943e+00   3.684015900000000e+00  6.35016820e-01   7.29088120e-01  -4.84839050e-01
C     3.640785477200000e+00   2.440694947905615e+00   3.569687400000000e+00  1.83415259e+00   8.77931210e-01   2.74272160e-01
C     4.913507523100000e+00   3.170601451676058e+00   3.500208900000000e+00 -9.62061290e-01  -7.41244940e-01   7.95295300e-02
C     6.160843470700000e+00   2.460550111244025e+00   3.480293400000000e+00 -1.50575185e+00  -3.47126310e-01   1.72657850e-01
C     7.351765231100000e+00   3.163159533262529e+00   3.529300800000000e+00  2.13903200e+00   4.43049970e-01   4.96949100e-02
C     8.621484709799999e+00   2.444177497939778e+00   3.596282700000000e+00 -8.32034660e-01   6.80175880e-01   2.32039750e-01
C     9.860721604100000e+00   3.149710079415900e+00   3.658350300000000e+00 -6.99147440e-01   9.05834010e-01  -1.11122100e-01
C     1.227609868910000e+01   4.610886766930444e+00   3.685801200000000e+00 -3.95356210e-01  -1.19927653e+00  -4.90126300e-01
C     3.648996885200000e+00   5.264024663222125e+00   3.589470600000000e+00  9.68597550e-01   1.23497498e+00  -2.61787030e-01
C     4.878817578100000e+00   4.581245129071010e+00   3.479184000000000e+00  1.66931186e+00  -5.65990100e-02   3.93752010e-01
C     6.159619992600000e+00   5.318013240102763e+00   3.445866000000000e+00 -2.27122251e+00  -6.10635830e-01  -1.13826540e-01
C     7.361617096599999e+00   4.592398699169881e+00   3.511533900000000e+00  3.80634200e-01  -3.10989040e-01  -1.14011070e-01
C     8.604296462000001e+00   5.284609655786261e+00   3.549548100000000e+00 -4.61174670e-01   8.38066850e-01  -5.41554370e-01
C     9.824059363300000e+00   4.613573481187871e+00   3.637613100000000e+00  7.05306170e-01  -1.92806103e+00  -1.01789730e-01
C     1.104236160420000e+01   5.330119336820679e+00   3.613274100000000e+00  3.62144430e-01   3.67646130e-01   3.87886140e-01
C     1.356060910450000e+01   6.692152391525401e+00   3.552362100000000e+00 -1.04336238e+00  -4.71820340e-01  -6.20768200e-02
C     4.890819909600000e+00   7.437725930164130e+00   3.504655500000000e+00  6.33887890e-01  -1.39747950e-01   1.52593120e-01
C     6.115899569400000e+00   6.734819179800712e+00   3.406263900000000e+00  1.17734273e+00  -2.47715480e-01   3.29523210e-01
C     7.369627360599999e+00   7.427615570975600e+00   3.397911300000000e+00 -5.67038330e-01  -3.45648190e-01   1.25295160e-01
C     8.611914002199999e+00   6.708053993011571e+00   3.412679400000000e+00 -1.28354122e+00   3.99907530e-01   7.66393110e-01
C     9.784119313400000e+00   7.468891269053614e+00   3.498942600000000e+00  2.80666764e+00  -8.69007480e-01  -9.46893700e-02
C     1.105885127100000e+01   6.770612833150566e+00   3.553343400000000e+00 -6.50882670e-01  -2.01230185e+00  -1.50427580e-01
C     1.233307933330000e+01   7.365115393838603e+00   3.527804700000000e+00 -1.32529970e+00   3.28321677e+00   3.21416360e-01
