32
Lattice="9.86 0 0 4.93 8.53901048131456 0 0 0 30 " PBC="1 1 1" Properties=species:S:1:pos:R:3:force:R:3 Energy="-256.3381026"
C     9.818641539800000e+00   1.315501168725744e-01   3.865859100000000e+00  1.38621900e-02   2.09500932e+00  -3.70427600e-01
C     1.202533833100000e+00   8.685076231567735e-01   3.881506200000000e+00 -3.07261280e-01  -1.76066470e-01   2.24376150e-01
C     2.410237707900000e+00   8.892363272672880e-02   3.852239400000000e+00  1.20210351e+00   4.38181509e+00  -1.11852050e-01
C     3.674283101700000e+00   8.708374067761367e-01   3.860379600000000e+00 -6.01135870e-01  -2.44087353e+00  -1.16595030e-01
C     4.939655602199999e+00   1.759589486759104e-01   3.818557800000000e+00 -2.48946322e+00  -1.23639955e+00  -8.24404110e-01
C     6.148317819699999e+00   8.477060812868648e-01   3.831427800000000e+00  7.06892380e-01  -1.16731030e-01  -1.36539090e-01
C     7.367629280899999e+00   1.287820258452728e-01   3.912355500000000e+00  7.85478790e-01   1.20472308e+00  -1.15271261e+00
C     8.578729235500001e+00   8.568691226527432e-01   3.880853100000000e+00  1.04262791e+00   1.43361741e+00   8.67928770e-01
C     1.108481984880000e+01   2.332880035343458e+00   3.963339900000000e+00 -3.34858350e-01  -1.96185953e+00  -5.03800400e-02
C     2.453148427900000e+00   3.019818579938961e+00   4.005073500000000e+00 -2.05489340e-01  -1.81103494e+00  -1.00202160e-01
C     3.670659551700000e+00   2.254010062775671e+00   3.871026300000000e+00 -7.99688570e-01   1.12445112e+00   7.46791600e-02
C     4.884644147900000e+00   2.922004385670770e+00   3.718926600000000e+00  1.26084923e+00   2.58166854e+00   3.91108110e-01
C     6.132688240699999e+00   2.230127816704788e+00   3.701921400000000e+00  9.52943350e-01   2.79034814e+00   1.53820698e+00
C     7.373232176599999e+00   3.039091724323054e+00   3.909174900000000e+00 -9.04102600e-01  -1.68378023e+00  -9.68088400e-01
C     8.606458464199999e+00   2.346082541007005e+00   3.966070200000000e+00  5.07280300e-02  -1.92018399e+00  -5.77444740e-01
C     9.859699023499999e+00   3.049754813659954e+00   3.937073700000000e+00 -8.42490930e-01  -9.52960360e-01  -9.82534000e-03
C     1.227923347890000e+01   4.401734805936467e+00   4.072046100000001e+00  1.45755715e+00   7.55799250e-01  -1.39930720e+00
C     3.659793042900000e+00   5.081054589211401e+00   3.879162000000000e+00 -3.45148000e-02   2.09132658e+00   2.14913380e-01
C     4.871151477400000e+00   4.415937485897537e+00   3.750080700000000e+00  1.91492917e+00  -1.63433506e+00   2.89751800e-01
C     6.126226243200000e+00   5.179770076035755e+00   3.764063100000000e+00 -8.59663440e-01  -1.80674880e+00  -3.66116900e-01
C     7.375039662500000e+00   4.447034598093287e+00   3.866391900000000e+00 -1.70280637e+00   4.02805940e-01  -3.74902570e-01
C     8.571627028200000e+00   5.159305312739177e+00   3.836363100000000e+00  1.97750490e+00   5.10780900e-02  -4.86190640e-01
C     9.858056101000001e+00   4.451392311311546e+00   3.818484300000000e+00 -1.49319491e+00   2.42320270e-01   1.18276527e+00
C     1.108734464970000e+01   5.106660178377358e+00   3.922026300000000e+00 -6.99403420e-01   3.11494304e+00  -4.40320260e-01
C     1.356193473220000e+01   6.531554866532696e+00   3.830710500000000e+00 -1.40421880e+00  -2.43123700e-01  -1.56487890e-01
C     4.898914476600000e+00   7.267818065874766e+00   3.784356300000000e+00 -7.38708070e-01   4.58253000e-03  -1.00879330e-01
C     6.098348079199999e+00   6.589814485675221e+00   3.692659800000000e+00  1.59448874e+00  -1.49390573e+00   7.90854800e-01
C     7.346817335199999e+00   7.267277204950964e+00   3.743461500000000e+00 -7.96533610e-01  -7.38260530e-01   9.10020000e-02
C     8.550994090800000e+00   6.573869932966335e+00   3.755978100000000e+00  2.56976206e+00  -2.54304170e-01  -3.36056640e-01
C     9.833373415099999e+00   7.289118371346812e+00   3.678792600000000e+00  9.79467400e-02  -5.89811140e-01   1.56221237e+00
C     1.109568300520000e+01   6.592575147763405e+00   3.801263400000000e+00 -1.07310127e+00  -1.99383793e+00  -3.75576500e-01
C     1.233443631580000e+01   7.277399518754165e+00   3.781479300000000e+00 -3.41039300e-01  -1.22027170e+00   1.22651030e+00
