32
Lattice="9.86 0 0 4.93 8.53901048131456 0 0 0 30 " PBC="1 1 1" Properties=species:S:1:pos:R:3:force:R:3 Energy="-255.11393012"
C     5.195559725099999e+00   7.512612112782577e+00   1.310700000000000e-03 -1.35879385e+00  -4.47516390e-01  -5.53392000e-02
C     6.378937353000000e+00   8.260879880007955e+00   1.401870000000000e-02  1.94106019e+00  -1.42773701e+00   5.56186400e-02
C     7.617690022700000e+00   7.469495745605493e+00   1.739820000000000e-02 -1.66914268e+00  -2.04748900e-02   1.34811570e+00
C     8.806301240000000e+00   8.185961505319998e+00   2.647695000000000e-01  1.47413120e+00  -2.80213670e-01  -1.34404176e+00
C     1.006038620970000e+01   7.575912309811446e+00   1.403838000000000e-01  1.84743898e+00  -3.33449290e+00   1.36018420e+00
C     1.135645545380000e+01   8.307969961102012e+00   1.983753000000000e-01 -2.16300157e+00  -4.09401936e+00  -1.04946280e+00
C     1.252734642700000e+01   7.521547077178534e+00   5.554500000000000e-03  2.24150728e+00   1.20514149e+00   1.44915777e+00
C     1.380610999070000e+01   8.232402707007680e+00   8.462400000000000e-02 -1.74146830e-01  -2.33700502e+00  -1.15834005e+00
C     1.498038575400000e+00   1.148917370436035e+00   9.230640000000001e-02  3.02606100e-02  -2.53674219e+00  -9.03812900e-02
C     2.776598431500000e+00   1.768219437700716e+00   1.262943000000000e-01 -2.37603534e+00   2.52371292e+00   1.21124280e-01
C     3.965900884100000e+00   1.043124751725857e+00   2.876091000000000e-01 -2.97716980e-01   1.42010331e+00  -8.77715340e-01
C     5.211301806700000e+00   1.769138406008574e+00   2.395446000000000e-01 -2.69984650e+00   9.78488110e-01   6.51973000e-02
C     6.431566187600000e+00   1.140599691107677e+00   2.400009000000000e-01  1.30649767e+00  -2.04066400e-02  -3.82844700e-02
C     7.653495429500000e+00   1.840152232764446e+00   2.143713000000000e-01  9.28422270e-01  -1.54903933e+00   1.51776590e-01
C     8.921865271400000e+00   1.065961908304093e+00   1.234104000000000e-01 -3.38496876e+00   1.74121682e+00   4.23995160e-01
C     1.009049411410000e+01   1.772700710400620e+00   1.545654000000000e-01  2.77660710e+00   1.56004800e+00   3.41076010e-01
C     2.679737883400000e+00   3.229730598255762e+00   4.736190000000000e-02  1.10883300e-01  -1.52716630e-01   2.02595863e+00
C     3.915516924999999e+00   3.900612472934778e+00   8.061300000000000e-02  1.85962040e-01   1.42871976e+00  -3.45820870e-01
C     5.129697981700000e+00   3.177228919270005e+00   1.227918000000000e-01  1.91308060e+00   6.37603300e-01   8.99201180e-01
C     6.396852825100000e+00   3.911097096952645e+00   2.493030000000000e-01 -2.20516416e+00  -7.48857470e-01  -9.74749970e-01
C     7.618327964699999e+00   3.226790019216764e+00   3.047046000000000e-01  1.10445291e+00  -3.46968490e-01  -8.63376800e-02
C     8.882992665100000e+00   3.905676191539523e+00   3.346908000000000e-01 -1.42187458e+00  -2.02032877e+00  -2.36477120e-01
C     1.010943339930000e+01   3.166633031945583e+00   3.215991000000000e-01 -6.76822450e-01   2.83272976e+00   7.30464900e-02
C     1.128773110590000e+01   3.988735146478482e+00   3.380556000000000e-01  1.86365542e+00  -3.29939668e+00  -1.96657984e+00
C     3.972349225499999e+00   5.355588557989270e+00   6.218340000000001e-02 -1.09002120e+00   4.40493840e-01  -4.22613520e-01
C     5.203803375300000e+00   6.056424939871706e+00  -2.983079999999916e-02 -2.44441617e+00   1.02001847e+00   7.10327440e-01
C     6.340587770399999e+00   5.304978611385253e+00   9.988200000000000e-02  2.02900270e+00   5.97098020e-01   7.62057800e-02
C     7.546002892700000e+00   6.021843142889174e+00   1.175739000000000e-01  2.11585373e+00   3.43743340e-01  -4.75680140e-01
C     8.765500707899999e+00   5.245845536860729e+00   1.911291000000000e-01  3.31027431e+00   5.34529133e+00   5.80417580e-01
C     1.008060734420000e+01   6.050403315071315e+00   2.107236000000000e-01 -1.96106019e+00   2.11764250e+00  -5.19247950e-01
C     1.131014219570000e+01   5.392889346688844e+00   2.479341000000000e-01  1.34879717e+00   4.24200400e-01  -3.06409280e-01
C     1.261996766810000e+01   6.123762551835728e+00   8.203410000000000e-02 -2.60487622e+00  -2.00033595e+00   2.66078540e-01
