26
Lattice="8.88768389401873 1.33226762955019e-15 0 4.44384194700937 7.69696003302603 0 0 0 30 " PBC="1 1 1" Properties=species:S:1:pos:R:3:force:R:3 Energy="-209.13642123"
C     4.896485467873204e-01   5.748439192389361e-01   3.534454200000000e+00  2.26980810e-01  -2.45521050e-01   4.03014800e-02
C     2.860980283912407e+00   8.595964961504000e-04   3.646350600000000e+00  4.95373350e-01  -6.63650600e-02  -4.66290070e-01
C     4.230119455249213e+00   3.993158233291904e-01   3.586879200000000e+00  6.44626760e-01  -1.34562454e+00  -5.37814380e-01
C     9.719030513334708e+00   7.086310237549506e+00   3.439447500000000e+00 -1.23813460e-01   1.10262424e+00   5.88189370e-01
C     1.110289768784973e+01   7.503231240585714e+00   3.389924700000000e+00 -1.08051006e+00  -9.99529630e-01   2.04295800e-01
C     1.210111874762067e+01   6.480495752359457e+00   3.407574900000000e+00  5.62696930e-01   9.10090760e-01  -6.64787400e-02
C     4.589961338486488e+00   6.871108546013125e+00   3.453731400000000e+00 -1.23417550e-01   8.51820780e-01   2.53480930e-01
C     5.610604158327748e+00   5.893727394763643e+00   3.467311800000000e+00  2.50551320e-01   2.79266100e-02   5.98481400e-01
C     6.972938918895901e+00   6.319171164671471e+00   3.519717000000000e+00  4.19675760e-01  -7.33421190e-01   1.11000730e-01
C     8.012888987694883e+00   5.314761522519841e+00   3.467421000000000e+00 -9.27013070e-01   4.97859120e-01   6.77571000e-03
C     9.383537421070807e+00   5.712201211841720e+00   3.466381500000000e+00 -2.20025460e-01  -8.00382010e-01  -3.21132610e-01
C     1.039372263650998e+01   4.689009447824883e+00   3.436048500000000e+00  8.74357530e-01   1.84868908e+00   9.17888800e-02
C     1.176960049422739e+01   5.113312759165066e+00   3.427313100000000e+00 -9.12678290e-01  -3.06283690e-01   2.91620750e-01
C     3.902033450938250e+00   4.139333202431241e+00   3.517571100000000e+00  2.98252040e-01   7.59058300e-02  -3.83065830e-01
C     5.257509719130233e+00   4.513184172288379e+00   3.535782600000000e+00  9.04921510e-01   2.00323310e-01  -1.25427318e+00
C     6.272328795206267e+00   3.505842142304520e+00   3.391838400000000e+00  8.53535600e-02   1.47743357e+00   1.10039014e+00
C     7.636142288622813e+00   3.935556647454593e+00   3.411415800000000e+00  1.24928187e+00  -5.78828810e-01   3.75311890e-01
C     8.692439785481273e+00   2.949105167596958e+00   3.509784900000000e+00  1.36837640e-01  -1.47877890e-01  -5.97919080e-01
C     1.009439815160058e+01   3.331016932784714e+00   3.502707000000000e+00 -2.00836436e+00   3.47696200e-02   9.19133400e-02
C     2.226303046582418e+00   2.371360725940317e+00   3.560058300000000e+00  5.34113100e-02  -4.61397910e-01   8.96147900e-02
C     3.596316010562277e+00   2.771984801565806e+00   3.502574400000000e+00 -1.30193239e+00  -8.29966710e-01   6.07805650e-01
C     4.584633924129035e+00   1.762591146885950e+00   3.525335100000000e+00 -3.20781390e-01   5.74819500e-02   7.69049500e-02
C     5.924974244472139e+00   2.148584763916816e+00   3.459136200000000e+00  1.65455822e+00  -4.54969690e-01  -4.45015740e-01
C     6.981672842514136e+00   1.176882968564669e+00   3.419041200000000e+00  7.95530200e-02  -2.02299100e-02   1.54711990e-01
C     8.360944995556627e+00   1.556003585136746e+00   3.481763400000000e+00 -6.14176670e-01   8.09859540e-01   4.08125900e-02
C     1.856547310790047e+00   1.005492219579849e+00   3.653889600000000e+00 -3.03718940e-01  -9.04386330e-01  -6.51410760e-01
