32
Lattice="9.86 0 0 4.93 8.53901048131456 0 0 0 30 " PBC="1 1 1" Properties=species:S:1:pos:R:3:force:R:3 Energy="-251.21053081"
C     4.961437574700000e+00   8.364421957116024e+00  -1.239502500000000e+00  2.92265561e+00  -1.63733344e+00   4.48355830e-01
C     1.372983554500000e+00   5.189227542482984e-01  -1.076041500000002e+00 -3.82319246e+00  -3.26323479e+00  -2.05672881e+00
C     7.450775653599999e+00   8.298262643208137e+00  -1.197438899999998e+00  2.00638722e+00  -2.12761975e+00   2.08868100e-01
C     3.785306258000000e+00   4.491932800587232e-01  -1.190048700000002e+00 -2.90156515e+00   1.06909130e-01   1.84314296e+00
C     9.853833260200002e+00   8.293197131411192e+00  -9.077093999999981e-01  4.33462159e+00  -2.97437912e+00  -1.57692003e+00
C     6.193677615800000e+00   4.332518013936112e-01  -1.074174599999999e+00 -1.36431619e+00   1.04696742e+00   1.00645015e+00
C     1.237799035150000e+01   8.225572864865356e+00  -9.282722999999997e-01 -6.81509560e-01   7.45894930e-01  -4.32466300e-01
C     8.632740491400000e+00   3.979607542006096e-01  -1.295670299999998e+00  5.45652950e-01   2.59144119e+00   1.87394883e+00
C     1.344603368600000e+00   1.842426427425584e+00  -9.034697999999999e-01 -1.50742689e+00   3.44686550e+00   1.06570779e+00
C     2.563269147700000e+00   2.508706202406404e+00  -5.569103999999996e-01 -2.28227392e+00   1.65155073e+00  -1.04019381e+00
C     3.712016878000000e+00   1.815880863985989e+00  -8.721242999999994e-01  3.38007301e+00   4.02353228e+00  -3.72540610e-01
C     4.973431475900000e+00   2.756723128039681e+00  -9.884142000000011e-01 -1.86290045e+00  -5.19460460e+00   1.10186305e+00
C     6.071505067299999e+00   1.934006717092850e+00  -1.199802300000002e+00  6.15942654e+00  -7.71417660e-01   2.27805300e-02
C     7.489802568900000e+00   2.629543789071399e+00  -1.237112400000001e+00 -3.23153536e+00  -5.73269950e-01   7.66428920e-01
C     8.716250500899999e+00   1.898348150888790e+00  -1.207586700000000e+00 -3.00054140e+00  -1.77274952e+00  -9.94406720e-01
C     9.898535394300001e+00   2.565252042145593e+00  -1.009818000000003e+00  3.52713289e+00  -1.93985080e-01   1.93668905e+00
C     2.516305326800000e+00   3.964642072238848e+00  -3.457482000000027e-01 -1.06775100e+00   7.59992650e-01  -1.22993281e+00
C     3.710660782900000e+00   4.672966568581511e+00  -5.134133999999975e-01  2.72519409e+00   4.24279600e+00   1.03646639e+00
C     4.994514127900000e+00   4.126012377679992e+00  -6.793239000000000e-01 -1.17080762e+00  -2.51222318e+00  -1.82483953e+00
C     6.185460735500000e+00   4.792086277118140e+00  -9.863727000000004e-01  1.67198964e+00  -3.46022189e+00   4.83333430e-01
C     7.435375763300000e+00   4.039041360479725e+00  -1.091402100000000e+00  1.10801057e+00   2.67519190e-01  -1.89605400e-02
C     8.714280275699998e+00   4.751432560563488e+00  -9.735501000000006e-01 -5.52505470e-01  -4.10349678e+00   9.05866790e-01
C     9.929365938099998e+00   3.932999658833846e+00  -6.318398999999992e-01 -1.87706081e+00   3.45138797e+00  -2.55802375e+00
C     1.108983849020000e+01   4.763661362862002e+00  -4.765335000000022e-01  2.71615080e+00  -3.42510740e+00   1.92220130e-01
C     3.891279270200000e+00   6.209800169800427e+00  -5.212353000000007e-01 -2.87332853e+00  -1.40661079e+00  -1.99791704e+00
C     5.063241039400000e+00   6.960664393942460e+00  -1.109081700000001e+00 -1.69778859e+00  -3.43560014e+00   2.52191541e+00
C     6.272500329200000e+00   6.107490015734307e+00  -1.130485500000002e+00 -5.63081020e-01   6.18244054e+00  -1.98649260e-01
C     7.494459693400000e+00   6.832519463669100e+00  -1.188961199999998e+00  4.49042150e-01   8.69207240e-01  -4.85766600e-02
C     8.755915949799999e+00   6.112829117427032e+00  -1.026612600000000e+00 -1.85670405e+00   1.28169195e+00  -4.08789500e-02
C     9.949160676900000e+00   6.776158664287013e+00  -8.452797000000025e-01 -3.87825400e-01   5.42167128e+00  -3.46949620e-01
C     1.118442823100000e+01   6.188979842107462e+00  -6.510584999999978e-01 -8.00341300e-01  -3.69298182e+00   1.86449232e+00
C     1.242449671770000e+01   6.794609758132196e+00  -4.890354000000023e-01  1.95611812e+00   4.45496791e+00  -2.54054524e+00
