26
Lattice="8.88768389401873 1.33226762955019e-15 0 4.44384194700937 7.69696003302603 0 0 0 30 " PBC="1 1 1" Properties=species:S:1:pos:R:3:force:R:3 Energy="-207.77824549"
C     1.307392610450576e+00   1.632545234459078e+00   3.801831000000000e+00 -1.58725778e+00   5.81404550e-01   4.47689070e-01
C     3.673857496308030e+00   1.046418572420966e+00   3.704611200000000e+00  2.20145108e+00   1.43796811e+00   5.27988420e-01
C     5.112579677962055e+00   1.429211485592956e+00   3.660431400000000e+00 -1.55901573e+00   6.74091540e-01   1.97037400e-01
C     6.113835170808225e+00   4.703672310621234e-01   3.643416300000000e+00  1.13332159e+00  -1.13096041e+00  -1.23608029e+00
C     7.501895287947071e+00   8.796573139853899e-01   3.630389100000000e+00 -1.27165275e+00  -1.85196680e-01  -1.48670280e-01
C     1.296212676777441e+01   7.581493006535550e+00   3.590460300000000e+00 -1.58321777e+00  -3.13848820e-01   1.15948526e+00
C     9.380182896274503e-01   2.899296291972421e-01   3.778350900000000e+00  2.11083381e+00  -2.05513499e+00  -2.09458010e-01
C     6.424557091544521e+00   6.941633866528008e+00   3.846638400000000e+00  4.00512390e-01   3.51794104e+00  -8.03064100e-02
C     7.800247419167068e+00   7.420140709791457e+00   3.775682400000000e+00 -1.33035870e-01  -3.82316882e+00  -8.36792820e-01
C     8.854873542619162e+00   6.414550200032024e+00   3.577375200000000e+00 -1.24380028e+00  -1.35682483e+00   1.01615356e+00
C     1.019434998007441e+01   6.779388106663632e+00   3.474656700000000e+00  1.64106206e+00   3.93465210e-01   9.00908640e-01
C     1.123058441930345e+01   5.768098228910786e+00   3.513368400000000e+00 -4.85781630e-01   2.46424880e-01   5.38488160e-01
C     3.730640600952233e+00   6.187878960476541e+00   3.667530600000000e+00 -1.25043716e+00  -7.08973410e-01  -6.57655750e-01
C     4.719407831384327e+00   5.188147222752744e+00   3.832256100000000e+00 -1.20259930e-01  -1.57826198e+00  -2.55100280e-01
C     6.103180752015945e+00   5.611616568473676e+00   3.901687800000000e+00 -3.67849140e-01  -2.32981987e+00  -3.88450130e-01
C     7.154135906527161e+00   4.626113892878939e+00   3.859371000000000e+00  7.79146690e-01   3.88236100e-01  -5.02368770e-01
C     8.550747886383132e+00   4.978305540242055e+00   3.719233800000000e+00 -3.20121835e+00   2.82922283e+00   1.72250470e-01
C     9.495013283737276e+00   3.973348875141094e+00   3.759380100000000e+00  5.84552280e-01   2.11022250e+00  -4.90862700e-01
C     1.080359977597620e+01   4.391931420938979e+00   3.625570800000000e+00  3.79269832e+00  -1.91422030e-01   1.66860310e-01
C     2.928824465500996e+00   3.350351465471273e+00   3.699205800000000e+00  2.49414740e+00   2.50813365e+00   6.11269780e-01
C     4.344101470313548e+00   3.732090818754357e+00   3.796645200000000e+00  1.47970102e+00   1.90172931e+00  -7.41517290e-01
C     5.493735823631523e+00   2.791566637578129e+00   3.707042700000000e+00 -2.53677335e+00   1.52829428e+00   6.20453390e-01
C     6.869372380755782e+00   3.253520706479461e+00   3.750488700000000e+00 -3.50575972e+00   1.21166230e-01   2.51220510e-01
C     7.825050852955544e+00   2.274264267888269e+00   3.710799300000000e+00  1.40047491e+00  -1.89435055e+00   4.51760230e-01
C     9.174119367697084e+00   2.653857323866987e+00   3.842806500000000e+00  2.79433550e-01  -2.87461476e+00  -8.03638140e-01
C     2.641326243849417e+00   1.999826002265007e+00   3.806506800000000e+00  5.48724380e-01   2.04276930e-01  -7.10664330e-01
