2
Lattice="2.502 0 0 1.251 2.16679556026866 0 0 0 30 " PBC="1 1 1" Properties=species:S:1:pos:R:3:force:R:3 Energy="-16.10148308"
C     0.000000000000000e+00   0.000000000000000e+00   3.000000000000000e+00  0.00000000e+00   0.00000000e+00   0.00000000e+00
C     1.251000000000000e+00   7.222651867562218e-01   3.000000000000000e+00  0.00000000e+00  -0.00000000e+00  -0.00000000e+00
