32
Lattice="9.86 0 0 4.93 8.53901048131456 0 0 0 30 " PBC="1 1 1" Properties=species:S:1:pos:R:3:force:R:3 Energy="-256.9976461"
C     9.811585625199999e+00   4.860251063027360e-02  -2.082374999999992e-01  1.46557640e+00   8.86158360e-01  -4.08541600e-02
C     1.225991907000000e+00   7.689672679200512e-01  -1.963812000000011e-01 -1.41011079e+00   2.59476200e-01   6.51531120e-01
C     2.457610028600000e+00   7.645454267330880e-02  -2.460102000000006e-01 -1.91402638e+00  -1.08305483e+00  -5.34953100e-01
C     3.632087921900000e+00   7.966002743442744e-01  -2.268515999999998e-01  1.63838806e+00  -8.67767130e-01   3.79624460e-01
C     4.858788615000000e+00   6.521925424414400e-02  -2.367147000000003e-01  1.37572711e+00  -2.92165100e-02   1.93062230e-01
C     6.095820024500000e+00   7.754616123406152e-01  -2.239946999999987e-01  6.21012290e-01   4.76350510e-01   2.92690290e-01
C     7.350751080799999e+00   6.838995961557760e-02  -1.626234000000011e-01 -8.07075240e-01  -2.26708680e-01  -7.15596300e-02
C     8.590510308599999e+00   7.661736452514144e-01  -2.082116999999997e-01 -2.74476510e-01   8.40072570e-01   2.12817050e-01
C     1.106970146150000e+01   2.185140552331537e+00   2.250570000000000e-02  5.14835100e-02   2.43664170e-01  -9.33714700e-01
C     2.446283797300000e+00   2.925425967170106e+00   8.904090000000001e-02 -1.00820843e+00  -4.57365530e-01   1.81661400e-01
C     3.638384172800000e+00   2.177973675445568e+00  -5.437139999999729e-02  1.14344749e+00   1.92584585e+00   1.73311750e-01
C     4.892773175600000e+00   2.897700910212909e+00  -5.861099999999908e-02 -5.44710820e-01   1.16544104e+00  -2.98732900e-01
C     6.105067915699999e+00   2.214775188202377e+00  -1.906382999999998e-01  1.68426487e+00  -2.36758360e-01  -2.32031100e-02
C     7.392703113000000e+00   2.958399953869360e+00  -2.059956000000014e-01 -1.99377752e+00  -1.26201109e+00  -2.73984750e-01
C     8.613097991000000e+00   2.227676352186085e+00  -2.033705999999995e-01 -7.73304610e-01  -1.38153889e+00   2.62160050e-01
C     9.828850534499999e+00   2.891756136506837e+00  -5.941049999999848e-02  8.68318120e-01   1.41772369e+00   4.54665220e-01
C     1.228710501270000e+01   4.352219133525463e+00   2.101647000000000e-01 -2.20445170e-01  -2.99144460e-01  -8.06790850e-01
C     3.659745862800000e+00   5.070671750198454e+00   1.307793000000000e-01  2.21083200e-01   1.04184380e-01  -7.83495920e-01
C     4.903268701900000e+00   4.360714082711386e+00  -4.340939999999804e-02 -2.24090048e+00  -1.47832752e+00   3.89784130e-01
C     6.071219373799999e+00   5.060364652208465e+00  -2.420031000000016e-01  2.96804361e+00  -2.03982580e-01  -3.48926600e-02
C     7.336538531700000e+00   4.365808797924174e+00  -2.605590000000007e-01  8.35233840e-01  -2.44364850e-01   4.04812360e-01
C     8.601854928799998e+00   5.057171062288945e+00  -1.854222000000014e-01 -5.71775100e-01  -8.90610700e-02  -1.64599020e-01
C     9.826777962500000e+00   4.353490933746355e+00   5.051099999999999e-03 -1.24018592e+00  -1.79398982e+00  -6.90883520e-01
C     1.102084323880000e+01   5.043901781563445e+00   7.898550000000000e-02  2.39050266e+00   4.54915750e-01   5.21532090e-01
C     1.352019360540000e+01   6.501078455008737e+00  -2.422829999999720e-02  1.42792520e-01  -1.11408671e+00   4.30364570e-01
C     4.914877372899999e+00   7.176797252174149e+00  -1.755279000000023e-01 -5.52457200e-01  -3.18707300e-02  -2.93526160e-01
C     6.156202664499999e+00   6.457427460385501e+00  -3.073392000000013e-01 -1.12045658e+00   1.53025435e+00   4.41613380e-01
C     7.383922733700000e+00   7.192425519934854e+00  -3.607265999999996e-01  5.58771560e-01  -8.04537350e-01   5.16272430e-01
C     8.638399046800000e+00   6.467572231786265e+00  -2.737824000000018e-01 -1.18323720e+00   3.33362520e-01   1.93906440e-01
C     9.859417027499997e+00   7.168761530971841e+00  -1.645584000000007e-01 -1.05243381e+00   9.58461620e-01  -4.20530820e-01
C     1.107697414820000e+01   6.464707906110855e+00  -2.190750000000108e-02 -1.74220041e+00  -5.24510460e-01   1.32958630e-01
C     1.225420687620000e+01   7.172564550069318e+00  -2.248709999999932e-02  2.68513693e+00   1.53238554e+00  -4.61046310e-01
