32
Lattice="9.668 0 0 4.834 8.37273360378795 0 0 0 30 " PBC="1 1 1" Properties=species:S:1:pos:R:3:force:R:3 Energy="-257.10870103"
C     5.422790950110792e-03   1.152339569545907e-02   2.996360229224710e+00 -7.22470970e-01  -9.68956080e-01   1.95200200e-01
C     1.207792711422779e+00   6.964715797474619e-01   3.012485627218987e+00  6.15807490e-01   3.00241700e-02  -1.47451610e-01
C     2.430839434175890e+00   3.725841468104449e-03   3.006742373039200e+00 -8.60308540e-01  -4.94970290e-01   1.35213400e-02
C     3.633144260142369e+00   6.907224041987875e-01   2.991790068624776e+00 -2.92051000e-03   4.90087780e-01   2.00481400e-02
C     4.838816299427815e+00   1.572111541741565e-03   2.988221061261814e+00  8.12357800e-02   1.75663200e-02   2.89189300e-02
C     6.042376236092136e+00   7.008261297299345e-01   2.992625178789149e+00  4.66450300e-02  -5.23288920e-01   6.91550600e-02
C     7.244980615050229e+00  -7.473155956452435e-03   3.002749869187962e+00  2.71622940e-01   8.24858400e-01  -9.09437200e-02
C     8.448772129373792e+00   7.039827699805312e-01   3.005100117683585e+00  6.13060210e-01  -5.93143080e-01  -1.13409490e-01
C     1.210311405203530e+00   2.087214658546849e+00   2.999521652116525e+00 -7.40183600e-02   1.88006390e-01   1.47638870e-01
C     2.416293639319927e+00   2.783805427325370e+00   3.004788505511715e+00  1.47494700e-01   4.36929400e-02  -1.53820490e-01
C     3.627779113908153e+00   2.088686607728633e+00   2.991198715833190e+00  3.37512010e-01   3.34591780e-01   2.94047800e-02
C     4.843041354450468e+00   2.799035945391564e+00   2.986877506413677e+00 -5.12989720e-01  -4.51903890e-01   8.10493000e-02
C     6.045614686677167e+00   2.083783959885364e+00   2.998587709274271e+00 -2.13642440e-01   8.73435870e-01  -1.21196510e-01
C     7.242275966352842e+00   2.794996893218061e+00   2.992171429555877e+00  8.16371580e-01  -5.51967670e-01   5.77208700e-02
C     8.465316749421850e+00   2.089145785706028e+00   2.994310281229431e+00 -8.07443680e-01   4.61766360e-01   7.97283000e-02
C     9.669500061705518e+00   2.783771090643414e+00   3.003107497899443e+00  2.54411000e-02   7.58139000e-02  -3.34126200e-02
C     2.412294850245953e+00   4.179348125361880e+00   2.989416885646858e+00 -6.58977600e-02   1.82555240e-01   8.61138400e-02
C     3.618794775827427e+00   4.884203490966648e+00   2.991253750791007e+00 -9.92790900e-02  -2.38566770e-01  -2.36907200e-02
C     4.834170700629256e+00   4.197276575145048e+00   2.993936334315111e+00 -7.48927500e-02  -3.53220360e-01  -1.52766200e-02
C     6.036619239079128e+00   4.892301846800843e+00   3.001329994027611e+00  5.66375510e-01  -2.57841240e-01  -4.36942100e-02
C     7.253016356501401e+00   4.181552673973591e+00   2.994350992453508e+00 -6.56575340e-01   5.88127060e-01   1.44863700e-02
C     8.457175934211897e+00   4.882321712071019e+00   2.994119806639918e+00  8.58940600e-02   2.56228830e-01   2.15120200e-02
C     9.657885868296884e+00   4.178180471461353e+00   3.008512752895356e+00  5.20220610e-01   3.10979600e-01  -1.50597450e-01
C     1.087090595022507e+01   4.881460270072971e+00   2.994462859080827e+00 -2.80397100e-02   2.76321280e-01   8.25874200e-02
C     3.612446419667325e+00   6.271562927692662e+00   2.992292392906093e+00  8.41164480e-01   5.79633520e-01   2.19711300e-02
C     4.838674754210334e+00   6.969148141067355e+00   3.004913171473319e+00 -8.65057650e-01   8.50647340e-01  -8.89963600e-02
C     6.041098306287365e+00   6.287248198599350e+00   3.005832654605308e+00  3.33686000e-02  -5.11941850e-01   3.99759500e-02
C     7.245550371915282e+00   6.974002545860268e+00   3.007394103125797e+00  8.15662880e-01   5.67782240e-01  -1.14054760e-01
C     8.465515643163812e+00   6.285976638133245e+00   2.985902541712277e+00 -2.54438600e-01  -3.71844610e-01   1.64543930e-01
C     9.679364168244986e+00   6.983387515876715e+00   2.994669202839760e+00 -7.14441020e-01  -4.49149500e-02  -5.11767300e-02
C     1.087553347109180e+01   6.292714571129522e+00   2.999405068486441e+00  3.02612920e-01  -1.01681789e+00  -1.22012330e-01
C     1.208519256689432e+01   6.984804285830783e+00   2.988861888296142e+00 -1.68073750e-01  -5.72741410e-01   1.16157160e-01
