26
Lattice="8.88768389401873 1.33226762955019e-15 0 4.44384194700937 7.69696003302603 0 0 0 30 " PBC="1 1 1" Properties=species:S:1:pos:R:3:force:R:3 Energy="-207.61198479"
C     1.221822620338371e+01   6.398812302828284e+00  -1.654316999999992e-01  3.98136849e+00  -1.29995050e-01   3.18900010e-01
C     8.578039520297192e+00   6.211267943828503e+00  -2.600388000000002e-01  5.20634230e-01   1.48093539e+00  -6.61733810e-01
C     9.924178076229991e+00   5.822481253941951e+00  -4.502987999999988e-01  2.45506890e-01  -1.12226839e+00   8.56408720e-01
C     1.025188982168305e+01   4.408028612236921e+00  -3.608598000000001e-01  2.49273127e+00   2.78130568e+00  -1.30120146e+00
C     6.158289369251436e+00   5.633959150109559e+00   1.976430000000000e-02  1.58154740e+00  -2.14300348e+00  -1.27373943e+00
C     7.574415058523590e+00   5.284400786711906e+00  -2.514704999999999e-01 -2.50007648e+00  -3.00083029e+00   1.75840399e+00
C     7.929554196462229e+00   3.871550652085121e+00  -2.099664000000026e-01 -1.75864035e+00   7.60788890e-01  -1.46521464e+00
C     9.286121160715419e+00   3.466817015560414e+00  -3.501218999999978e-01 -3.10942054e+00  -1.59496148e+00   1.37819488e+00
C     9.544157641715184e+00   2.102977735742256e+00  -1.727622000000011e-01  1.01120091e+00  -3.04494971e+00   2.60927570e-01
C     3.736278235855833e+00   5.046411321371507e+00  -2.072840999999990e-01  3.78411890e-01  -2.43818293e+00   6.38805500e-02
C     5.148463126044570e+00   4.625132376535913e+00  -6.196500000000071e-02 -1.49681214e+00   6.42393800e-02  -1.69251741e+00
C     5.460894187730100e+00   3.243604097116010e+00  -3.693975000000016e-01  5.81839510e-01   4.06266840e-01   2.56647829e+00
C     6.887321058135437e+00   2.889916930419064e+00  -2.739551999999996e-01 -1.19293514e+00  -1.34250940e+00   2.12003560e-01
C     7.202373942096603e+00   1.456825407274985e+00  -1.890639000000007e-01 -2.78645688e+00   1.09626984e+00  -1.19596074e+00
C     8.509288571586243e+00   1.055324416993277e+00  -7.862970000000047e-02  2.49611777e+00   2.21290870e-01   1.57986160e-01
C     2.728552107880883e+00   3.986984655591042e+00  -3.910416000000012e-01  2.32591100e-01   2.37055620e+00   1.16973098e+00
C     3.019078717181318e+00   2.628454200014375e+00  -2.459625000000010e-01  2.24017863e+00  -1.37989930e-01   1.07646010e-01
C     4.398508981619021e+00   2.236044012254500e+00  -2.097818999999994e-01  1.32609298e+00   2.04847787e+00  -1.10839619e+00
C     4.784395017588464e+00   9.028833526935166e-01  -2.131395000000005e-01 -9.32720910e-01  -1.86926042e+00  -5.42717960e-01
C     6.117090329474808e+00   4.756786722700255e-01  -3.640511999999987e-01  2.08447538e+00   1.62561928e+00   1.19904586e+00
C     1.094052045818545e+01   6.814963148043891e+00  -4.063215000000007e-01 -2.58197914e+00  -1.53591520e-01   2.34064300e-01
C     2.038153888849204e+00   1.645883912251867e+00  -1.129064999999976e-01 -1.86184588e+00   3.50140180e-01  -3.99122000e-01
C     2.379310611452827e+00   2.787042287502895e-01  -4.369919999999894e-02  4.44566770e-01  -1.13708889e+00   1.34511620e-01
C     8.219726545971906e+00   7.576229055571034e+00  -1.513767000000001e-01 -9.79874560e-01   1.23015255e+00   6.92216000e-03
C     4.403902475906008e+00   7.344269619626939e+00   5.158320000000000e-02 -1.63979660e-01   1.23525123e+00  -1.02537777e+00
C     5.787164754131212e+00   6.954149585354390e+00   4.558980000000000e-02 -2.52521510e-01   2.44333728e+00   2.40876720e-01
