32
Lattice="10.056 0 0 5.028 8.70875146045631 0 0 0 30 " PBC="1 1 1" Properties=species:S:1:pos:R:3:force:R:3 Energy="-257.27838466"
C     2.802117262881003e-04  -2.155401895551774e-05   3.000500998960711e+00 -4.62516200e-02   7.81541000e-03  -9.55333000e-03
C     1.256232147089990e+00   7.264205218826784e-01   3.000522644111129e+00  3.03131600e-02  -7.39680000e-03  -6.18016000e-03
C     2.513660811154617e+00   1.186852989377484e-03   2.998976722498829e+00 -9.33230000e-03  -4.51685200e-02   2.11463400e-02
C     3.770783218421451e+00   7.246258026429515e-01   2.999495377505153e+00  3.99740800e-02   1.07138640e-01   5.73251000e-03
C     5.029247050739984e+00   1.059270966159982e-03   2.999880766149650e+00 -5.86002900e-02  -8.17323800e-02  -7.02722000e-03
C     6.286054056871695e+00   7.252048407714410e-01   3.000151897397299e+00 -4.05175400e-02   4.39813800e-02   8.56235000e-03
C     7.541897347409895e+00  -1.211231250742717e-03   3.001128127999753e+00  2.78462800e-02   7.78735800e-02  -2.41113400e-02
C     8.798524345193679e+00   7.265880698614293e-01   2.998799306926951e+00  2.68381400e-02  -5.60703300e-02   3.47479600e-02
C     1.257203678689262e+00   2.177449736208064e+00   3.000875462517040e+00 -4.21652100e-02   3.43922600e-02  -1.55686200e-02
C     2.513534569397940e+00   2.904032707194508e+00   3.000605686157583e+00  5.77517200e-02  -2.57735900e-02   3.27772000e-03
C     3.772011185459457e+00   2.178109892799141e+00   3.001007985854681e+00 -6.56439400e-02  -5.31944400e-02  -1.00152900e-02
C     5.028561967378633e+00   2.902985271975791e+00   3.000666492488976e+00 -4.10301300e-02   1.46038700e-02  -8.96300000e-05
C     6.284298724978074e+00   2.177812748391650e+00   3.000675867021634e+00  6.08193900e-02  -4.87351200e-02  -2.30813000e-03
C     7.541694606753515e+00   2.902578992109508e+00   3.000787540538906e+00 -2.14998300e-02   3.78691400e-02   3.26111000e-03
C     8.798093044346166e+00   2.177513021455767e+00   3.001062541191785e+00  3.14038500e-02   8.02745000e-03  -2.65038500e-02
C     1.005546757260518e+01   2.904143827999257e+00   2.998976440004514e+00  2.88507700e-02  -7.58489100e-02   3.08457800e-02
C     2.514552367723444e+00   4.355500191932902e+00   3.000413550388656e+00 -7.10718800e-02  -5.72860000e-03   3.07830000e-04
C     3.769978019968018e+00   5.081328639607433e+00   3.000026274494701e+00  4.59338600e-02  -3.05284900e-02   8.40759000e-03
C     5.027120179314870e+00   4.354402407309688e+00   3.000105629932362e+00  8.20069000e-03   2.20600600e-02  -5.70623000e-03
C     6.283755361025211e+00   5.079630873341788e+00   2.998923815213812e+00  3.52262600e-02   4.25743300e-02   2.01340300e-02
C     7.541718339965671e+00   4.354618699837818e+00   3.000719929588286e+00  2.66731000e-03  -1.28445100e-02  -7.11747000e-03
C     8.799310820276187e+00   5.079832113653992e+00   3.000938768861227e+00 -2.39285700e-02   3.12899300e-02  -4.61327000e-03
C     1.005705008953723e+01   4.353840511376778e+00   3.000819717006622e+00 -6.71428000e-02   5.99883700e-02  -9.38758000e-03
C     1.131214640603598e+01   5.080857699367299e+00   3.000638448702429e+00  7.31885100e-02  -3.33871000e-03   1.15887000e-03
C     3.770836988935016e+00   6.532326567081868e+00   3.001234826051259e+00 -1.39328100e-02  -2.61980900e-02  -1.72694000e-02
C     5.027528898344129e+00   7.256117170189160e+00   3.000504738378611e+00  8.10284000e-03   9.01451500e-02   2.57651000e-03
C     6.284129571339747e+00   6.532464077824300e+00   3.000098587581050e+00  1.84476400e-02  -6.58559000e-02   8.81250000e-04
C     7.541028074517989e+00   7.258118692182333e+00   3.000878428404532e+00  6.49458000e-03   4.43624000e-03  -2.06697500e-02
C     8.798233676380935e+00   6.532616773599941e+00   2.999933083306915e+00  3.22017000e-03  -5.91462100e-02   5.63460000e-03
C     1.005518176540068e+01   7.256682949158651e+00   2.999130157382937e+00  4.47892500e-02   7.85064400e-02   1.33396200e-02
C     1.131317716388353e+01   6.532485636763279e+00   3.000614352519694e+00 -3.89005000e-02  -3.80387600e-02  -1.06848600e-02
C     1.257016130967964e+01   7.257818613135996e+00   3.000061341275323e+00 -1.00510800e-02  -2.51028800e-02   1.67920600e-02
