32
Lattice="9.86 0 0 4.93 8.53901048131456 0 0 0 30 " PBC="1 1 1" Properties=species:S:1:pos:R:3:force:R:3 Energy="-253.33240584"
C     9.735232743200001e+00   1.199128118300112e-01   4.301716200000000e+00  4.30596686e+00   3.74833329e+00   1.19046637e+00
C     1.159689125800000e+00   9.874691038292079e-01   4.419989400000000e+00 -5.73554240e-01  -2.22569085e+00  -7.86593900e-01
C     2.453056976400000e+00   2.986800702725840e-01   4.411077600000000e+00 -5.03824441e+00  -1.24448639e+00  -2.26633580e-01
C     3.586817654600000e+00   1.046410989909085e+00   4.326896700000000e+00  2.13101986e+00   4.82641530e-01   9.20619780e-01
C     4.829454424800000e+00   3.656271078972512e-01   4.394336400000000e+00  1.69038038e+00  -1.07233954e+00   1.01519890e-01
C     6.128835642899999e+00   1.046869107821337e+00   4.423843799999999e+00 -2.13224603e+00  -3.04158699e+00  -5.59485970e-01
C     7.308334346800000e+00   3.390636125356480e-01   4.273686900000000e+00  1.76645154e+00   1.31775432e+00   2.46451630e+00
C     8.646383083200000e+00   9.954693027479200e-01   4.460018100000000e+00 -3.35182343e+00  -2.41412196e+00  -2.51808721e+00
C     1.098800761470000e+01   2.400103822297782e+00   4.379105400000000e+00 -3.68715490e-01   1.35550747e+00  -6.86290200e-02
C     2.372665882100000e+00   3.114725582699131e+00   4.470661199999999e+00 -6.45061140e-01   1.83686341e+00  -6.80918500e-01
C     3.583387902900000e+00   2.493252984360538e+00   4.391290499999999e+00  1.89644897e+00  -3.50171400e+00  -7.84601400e-01
C     4.872549132400000e+00   3.078874461808745e+00   4.256505000000000e+00  1.95747750e-01   2.54600027e+00   2.14421999e+00
C     6.174365030999999e+00   2.381249089427208e+00   4.472301000000000e+00 -4.56548847e+00   2.87978288e+00  -1.42143494e+00
C     7.332440567800000e+00   3.063683732945035e+00   4.407170700000000e+00  3.09512412e+00   3.34388749e+00   3.58588460e-01
C     8.587663381499999e+00   2.395409928236925e+00   4.348588500000000e+00  2.90677780e-01   1.12155339e+00   1.43864070e-01
C     9.748073914199999e+00   3.201246850217416e+00   4.230635100000000e+00  1.32540573e+00  -3.14058402e+00   1.34880775e+00
C     1.228980857540000e+01   4.558176736088976e+00   4.453463700000000e+00 -2.98430803e+00  -1.91718626e+00   5.68808600e-01
C     3.577935766600000e+00   5.284349386746830e+00   4.488172199999999e+00  2.50566241e+00   3.89600490e-01  -2.05012363e+00
C     4.868362674999999e+00   4.519275224484820e+00   4.322044500000001e+00 -1.61700130e-01   5.23934200e-02   7.65583710e-01
C     6.155457544299999e+00   5.170416017005439e+00   4.391901600000001e+00 -2.37845720e+00   2.29017422e+00   3.76497590e-01
C     7.365794384199999e+00   4.557377143147629e+00   4.449906600000000e+00  1.73823514e+00  -2.49606380e+00  -1.50933893e+00
C     8.598418077900000e+00   5.337983680082653e+00   4.292565000000000e+00 -2.62742095e+00  -6.25506590e-01   8.01194700e-01
C     9.763123873100000e+00   4.594525339729926e+00   4.293386999999999e+00  1.55648312e+00  -4.09031160e-01   5.90293300e-02
C     1.102939580280000e+01   5.213421803996806e+00   4.440898799999999e+00  7.23382900e-02   2.28320185e+00  -4.87723860e-01
C     1.338561707830000e+01   6.735741990663286e+00   4.276478400000000e+00  2.56328083e+00  -2.51572600e+00   1.81523337e+00
C     4.876889800200000e+00   7.231514804379466e+00   4.278384900000000e+00 -2.01243632e+00   3.44846200e+00   3.97175950e-01
C     6.145419817800001e+00   6.610443539533434e+00   4.441533300000001e+00 -3.28542276e+00  -1.61069901e+00  -1.26041137e+00
C     7.277560843099999e+00   7.346179967318992e+00   4.378660200000000e+00  1.83986784e+00   4.55057197e+00   3.65422520e-01
C     8.509982456099999e+00   6.774912310317352e+00   4.321548300000000e+00  2.49139591e+00  -2.80936894e+00   6.96556930e-01
C     9.737772235500000e+00   7.474274005089891e+00   4.464370500000000e+00  1.60327622e+00  -1.32851368e+00  -1.18142191e+00
C     1.100877716240000e+01   6.625635634638821e+00   4.452528300000000e+00 -1.11780044e+00   4.65550110e+00   3.04152680e-01
C     1.219876951920000e+01   7.529161825164179e+00   4.422573300000000e+00  1.74916280e-01  -5.94960992e+00  -1.28685377e+00
