32
Lattice="9.86 0 0 4.93 8.53901048131456 0 0 0 30 " PBC="1 1 1" Properties=species:S:1:pos:R:3:force:R:3 Energy="-255.51112328"
C     9.860111270100001e+00   5.102818733732720e-02   3.674297400000000e+00 -2.72521581e+00   1.02130085e+00   1.54948420e-01
C     1.216498896200000e+00   7.264819336174400e-01   3.643380600000000e+00  1.87074718e+00   2.51296576e+00   8.18211800e-01
C     2.450199597700000e+00   5.271617892901360e-02   3.828469200000000e+00  8.88628820e-01  -4.32506910e-01  -2.25132180e-01
C     3.670240600300000e+00   8.020177641532056e-01   3.778745100000000e+00 -7.64601000e-01   1.98076746e+00   3.12379220e-01
C     4.916816095400000e+00   1.473971540817776e-01   3.831569099999999e+00 -2.59346542e+00  -2.48687232e+00  -2.68983840e-01
C     6.118153023100001e+00   7.804734991517465e-01   3.772206300000000e+00  9.88346940e-01   7.81237940e-01   9.97727150e-01
C     7.295860066400000e+00   3.728883408490240e-02   3.887818200000000e+00  4.27021591e+00   1.84799151e+00  -1.04607377e+00
C     8.587086325000001e+00   7.403979589966960e-01   3.724773600000000e+00 -6.11804280e-01   1.86295619e+00   2.02566330e-01
C     1.285967476900000e+00   2.218584782337924e+00   3.676661700000000e+00 -2.74176447e+00  -2.65814050e+00  -1.45738150e-01
C     2.425309753200000e+00   2.983220978752414e+00   3.762249900000000e+00  2.14959993e+00  -2.12958963e+00  -3.90779310e-01
C     3.671807847300000e+00   2.299525379557006e+00   3.755289000000000e+00 -8.21281300e-01  -3.98540574e+00   2.40471870e-01
C     4.910085511500000e+00   2.882237872304991e+00   3.810461099999999e+00  2.08011610e-01   4.08779486e+00  -2.50599730e-01
C     6.120398243700000e+00   2.172505378524281e+00   3.820007400000000e+00  1.54860241e+00   2.07342728e+00  -4.88287700e-01
C     7.370878052300000e+00   2.940764591695331e+00   3.792898800000000e+00 -6.01478220e-01  -1.37862958e+00  -3.86500880e-01
C     8.581697933599999e+00   2.216877407192448e+00   3.688418400000000e+00  1.73494044e+00  -2.17057160e+00   5.02050100e-01
C     9.900396518599999e+00   2.868835980746736e+00   3.703680900000000e+00 -2.51681787e+00   1.04767971e+00  -2.31763320e-01
C     1.229399394820000e+01   4.342045329489067e+00   3.782229300000000e+00 -9.46884810e-01   3.19370955e+00   7.70116200e-02
C     3.627261205400000e+00   5.088441431007334e+00   3.843213600000000e+00  2.51962981e+00  -1.77868990e+00   1.21226700e-01
C     4.879098144399999e+00   4.404618515165668e+00   3.813546300000000e+00  1.70116541e+00  -1.81969878e+00   3.48154860e-01
C     6.142538528599999e+00   5.122443087617856e+00   3.869582400000000e+00 -4.64539970e-01  -1.20265351e+00  -3.49207790e-01
C     7.401796448700000e+00   4.348643337496858e+00   3.787612200000000e+00 -3.54161356e+00   3.79173910e-01   7.65370490e-01
C     8.586423239999998e+00   5.024181278420304e+00   3.809842200000000e+00  2.80483945e+00   3.59917070e-01  -4.53042600e-02
C     9.827108913400000e+00   4.285889893309024e+00   3.765574200000000e+00  1.55497732e+00   1.78439408e+00  -4.57184270e-01
C     1.108330007770000e+01   5.071817087674138e+00   3.735803400000000e+00 -2.39287374e+00  -4.46869230e-01   9.74087380e-01
C     3.735947393800000e+00   6.463222630627963e+00   3.916016100000000e+00 -3.43170042e+00   2.06512195e+00  -7.21376590e-01
C     4.895916099899999e+00   7.197864186489777e+00   3.757696800000000e+00  2.27149677e+00  -1.13936500e-02   1.10192108e+00
C     6.159408101199999e+00   6.570199012360984e+00   3.899987400000000e+00 -1.11306565e+00  -4.14160895e+00  -3.20963860e-01
C     7.408231183300000e+00   7.131659018095612e+00   3.978847200000000e+00 -4.48469260e-01   3.85646852e+00  -1.25133149e+00
C     8.602137269900000e+00   6.444987146797399e+00   3.873207600000000e+00  1.68490033e+00   8.27419780e-01   2.38956290e-01
C     9.825667825099998e+00   7.257587221248364e+00   3.841055100000000e+00 -1.89149250e-01  -2.24398222e+00   2.67439550e-01
C     1.103656648780000e+01   6.507427892421457e+00   3.858995100000000e+00  2.05174013e+00  -1.69388490e-01  -2.10796130e-01
C     1.234542178550000e+01   7.213031860025191e+00   3.935651100000000e+00 -2.34311743e+00  -2.62632543e+00  -3.32499570e-01
