32
Lattice="9.86 0 0 4.93 8.53901048131456 0 0 0 30 " PBC="1 1 1" Properties=species:S:1:pos:R:3:force:R:3 Energy="-257.40920251"
C     4.939512336399999e+00   8.277191439387270e+00  -1.833396000000000e-01  4.51768060e-01  -1.02511516e+00  -2.48594240e-01
C     1.241210964900000e+00   4.500467541561992e-01  -1.804934999999972e-01  2.72407090e-01  -1.48048353e+00  -7.84078110e-01
C     7.390993389000000e+00   8.240453200698118e+00  -2.320284000000008e-01  1.18253268e+00   9.72080200e-01   6.81255800e-02
C     3.722352130000000e+00   4.299596712931520e-01  -2.891216999999990e-01 -4.80141190e-01  -1.49109168e+00   8.36082850e-01
C     9.890541892300000e+00   8.253347704253652e+00  -1.894737000000006e-01 -5.85668010e-01  -3.02994290e-01  -4.45913830e-01
C     6.192177466099999e+00   4.274001029017720e-01  -2.014190999999990e-01 -6.07994520e-01  -7.93604290e-01   7.67751100e-02
C     1.233387730310000e+01   8.247640741989448e+00  -2.182776000000004e-01  9.94963110e-01  -2.08240040e-01  -1.94417740e-01
C     8.644075892500000e+00   4.180560345137176e-01  -2.480867999999994e-01 -4.96298490e-01   5.06035130e-01   4.93131270e-01
C     1.254077969100000e+00   1.849220832674415e+00  -2.661783000000000e-01  8.00550490e-01  -1.31197330e-01   8.53419680e-01
C     2.494229279800000e+00   2.543174686719867e+00  -1.882751999999996e-01  6.13142100e-02   7.17155030e-01  -8.04537990e-01
C     3.713508548100000e+00   1.821551364675442e+00  -2.514305999999991e-01  1.37956173e+00   1.58037049e+00   4.03041460e-01
C     4.999627573200000e+00   2.554043310039021e+00  -1.957541999999997e-01 -2.43135486e+00  -1.02748520e+00   1.67899220e-01
C     6.202251674599999e+00   1.834452187098731e+00  -1.750445999999997e-01 -9.34921900e-02   3.45283900e-02  -4.15334300e-01
C     7.424413612500000e+00   2.528619174845764e+00  -2.059953000000014e-01  5.92068200e-02   1.11619586e+00   2.09104600e-02
C     8.645400928599999e+00   1.848549751840792e+00  -2.411421000000011e-01  6.69367980e-01  -1.32586088e+00   1.07306180e-01
C     9.894098640799999e+00   2.520225412934029e+00  -2.339409000000003e-01 -1.30681476e+00   1.67423221e+00  -1.20289860e-01
C     2.498904743900000e+00   3.984374273826346e+00  -1.892229000000007e-01 -7.05089070e-01  -7.09729210e-01  -1.12914000e-03
C     3.718479664299999e+00   4.686061653493220e+00  -1.805955000000026e-01  9.71434280e-01   2.55998400e-01   3.97456220e-01
C     4.955389993000000e+00   3.955908030759485e+00  -1.527942000000024e-01 -3.95885960e-01   6.26298260e-01  -7.96616440e-01
C     6.167019971899999e+00   4.667246968581797e+00  -2.599103999999990e-01  9.46341500e-01   4.17360990e-01   8.50097770e-01
C     7.411385693099999e+00   3.950776341631319e+00  -2.117754000000005e-01 -8.68707250e-01   3.73518730e-01  -2.54163060e-01
C     8.617990276499999e+00   4.670005239747047e+00  -1.926978000000013e-01  1.39217078e+00  -2.36316320e-01   1.01828860e-01
C     9.850172685899999e+00   3.948360655566527e+00  -1.999640999999990e-01  1.34944872e+00   4.26168190e-01  -1.23882750e-01
C     1.110912465020000e+01   4.673105327501811e+00  -2.095853999999981e-01 -5.42703390e-01   4.25061870e-01   1.90425570e-01
C     3.772010343799999e+00   6.123949641555345e+00  -1.503900000000016e-01 -2.77876837e+00  -8.37781470e-01  -8.04856450e-01
C     4.951500272300000e+00   6.832528088069684e+00  -1.926422999999993e-01  1.79599421e+00   5.72629340e-01   4.81570100e-02
C     6.184873868299999e+00   6.093403124755346e+00  -2.467529999999982e-01  5.28293320e-01   8.98509080e-01   3.28716450e-01
C     7.438021053400000e+00   6.834483948420128e+00  -2.109851999999997e-01 -6.60767600e-01  -1.61506338e+00   3.56574100e-02
C     8.687947075099999e+00   6.084544072162555e+00  -1.518611999999990e-01 -2.31839288e+00   9.85556020e-01  -4.84990350e-01
C     9.880000960699999e+00   6.811313428872753e+00  -1.579476000000000e-01  1.03605530e+00   7.69237920e-01  -2.58184100e-01
C     1.111377423180000e+01   6.115307138268328e+00  -2.092784999999999e-01  8.69614960e-01  -6.82141230e-01   1.99883210e-01
C     1.236885170910000e+01   6.828834795256874e+00  -2.282159999999998e-01 -4.88946710e-01  -4.83832090e-01   5.58074050e-01
