32
Lattice="9.86 0 0 4.93 8.53901048131456 0 0 0 30 " PBC="1 1 1" Properties=species:S:1:pos:R:3:force:R:3 Energy="-256.33583625"
C     4.939433012699999e+00   8.505710986221249e+00  -2.458731000000007e-01 -1.36687604e+00   2.25720667e+00   3.19655460e-01
C     1.207974778300000e+00   7.161749210175560e-01  -2.582921999999996e-01  1.29321615e+00  -1.06134855e+00   4.29210660e-01
C     2.461839475600000e+00   2.182588156708960e-02  -2.619446999999973e-01 -1.04542427e+00  -2.58037688e+00   2.73937930e-01
C     3.664223042300000e+00   6.637703305809576e-01  -1.102410000000020e-01  2.56169408e+00   2.12234683e+00  -5.44115770e-01
C     9.861093917700000e+00   8.519512588860072e+00  -8.923679999999834e-02 -2.22378470e-01   1.01267476e+00   9.93638400e-02
C     6.155062010399999e+00   7.403457002525584e-01  -1.569542999999989e-01  2.07492690e-01  -3.33619306e+00   1.06732604e+00
C     1.230085512780000e+01   8.522379561628732e+00  -3.507090000000090e-02  1.12089588e+00   5.77363290e-01  -9.41201230e-01
C     8.603858678000000e+00   7.103633558749728e-01  -1.957769999999996e-01  6.92572030e-01  -1.17560627e+00  -8.69293000e-02
C     1.235374584400000e+00   2.101055976843824e+00  -4.431029999999936e-02  7.10525460e-01   8.17692690e-01  -8.82864050e-01
C     2.470635433700000e+00   2.840007000514684e+00   2.518140000000000e-02  7.56462710e-01  -1.53628030e+00   5.33836830e-01
C     3.749477285799999e+00   2.118734461020777e+00  -5.620080000000272e-02 -2.49513139e+00  -5.58195010e-01   3.89120850e-01
C     4.945915124599999e+00   2.822516972299024e+00  -3.230459999999979e-02  1.06168267e+00   4.93378020e-01  -4.20499980e-01
C     6.212999863400000e+00   2.104205334689058e+00  -1.646406000000020e-01 -2.22468795e+00   2.34135442e+00   1.26659390e-01
C     7.403544232299999e+00   2.835533412924212e+00  -2.043468000000033e-01  1.13035319e+00  -2.66132630e-01  -6.12495370e-01
C     8.641147275300000e+00   2.129561328578684e+00  -2.786414999999991e-01 -2.30026570e-01  -7.90330080e-01   1.07335839e+00
C     9.886539175999999e+00   2.799262001938001e+00  -1.045406999999976e-01 -1.53235367e+00   1.24755935e+00   6.28420000e-03
C     2.453569203400000e+00   4.215904163414944e+00   2.512812000000000e-01  7.02665930e-01   2.57481741e+00  -3.91556770e-01
C     3.745006268800000e+00   4.989009606593813e+00   2.339688000000000e-01 -2.14632583e+00  -1.09730886e+00  -1.24386758e+00
C     4.934586378999999e+00   4.273543679616411e+00  -5.859000000008052e-04 -3.95641850e-01  -1.91520049e+00   2.57122400e-02
C     6.141668038500000e+00   4.912808245581235e+00  -2.471090999999994e-01  1.10465185e+00   2.64649315e+00   1.05777536e+00
C     7.390875019699999e+00   4.242537934832797e+00  -2.453687999999978e-01 -3.54676210e-01   1.49630320e-01   2.68704050e-01
C     8.612914594999999e+00   4.960766317090584e+00  -1.094262000000015e-01 -1.38663220e-01  -1.09493304e+00  -4.27472660e-01
C     9.805636199799999e+00   4.217272966794888e+00   2.493300000000000e-02  2.84509962e+00   1.11384709e+00   2.96067500e-01
C     1.107188441620000e+01   4.969438877694491e+00   2.232405000000000e-01 -4.84356880e-01  -8.90955410e-01  -1.88563160e-01
C     3.697056152100000e+00   6.392184126131804e+00   3.019800000000000e-02  1.58703672e+00   3.82168770e-01   8.36968850e-01
C     4.948891809299999e+00   7.132139764385636e+00  -1.364502000000023e-01 -4.30971570e-01  -2.74584641e+00  -8.84334000e-02
C     6.164866449300000e+00   6.364944682700604e+00  -1.899726000000008e-01  7.83716370e-01   5.30519060e-01  -9.09171070e-01
C     7.434694733100000e+00   7.086850902162231e+00  -2.800946999999994e-01 -1.49362616e+00   2.69253220e-01   5.01988250e-01
C     8.647364251799999e+00   6.351524688440131e+00  -1.528053000000007e-01  9.25790860e-01   2.56257709e+00   6.03445850e-01
C     9.918289066200000e+00   7.125023267661499e+00   3.482130000000000e-02 -2.83152122e+00  -1.21521336e+00  -6.61209790e-01
C     1.109490421310000e+01   6.420515196662767e+00   2.200482000000000e-01  1.26037425e+00  -1.84331055e+00  -5.04707410e-01
C     1.235218012530000e+01   7.094492633420993e+00   1.096266000000000e-01 -1.35156914e+00   1.00834879e+00  -6.32813000e-03
