32
Lattice="9.86 0 0 4.93 8.53901048131456 0 0 0 30 " PBC="1 1 1" Properties=species:S:1:pos:R:3:force:R:3 Energy="-251.42880848"
C     9.577611571999999e-01   1.415687500105278e+00   3.525556500000000e+00  5.12128917e+00  -7.43471671e+00   3.86242310e-01
C     2.266109305800000e+00   2.042592104570617e+00   3.719936700000000e+00 -1.17281399e+00   1.36682120e-01  -1.00275334e+00
C     3.533393167300000e+00   1.352245640892547e+00   3.566100000000000e+00 -2.81532245e+00  -5.26075208e+00  -1.80331740e+00
C     4.826325156599999e+00   1.820463067789766e+00   3.239043000000000e+00 -3.17108782e+00   2.79210552e+00   2.64696508e+00
C     6.030638177399999e+00   1.123127338643710e+00   3.449002500000000e+00 -3.78928410e+00  -3.36826370e-01  -1.59810902e+00
C     7.103280758199999e+00   1.988101775434175e+00   3.400199100000000e+00  2.05986103e+00  -2.98078250e+00   1.24144515e+00
C     8.287756937999999e+00   1.185653047422043e+00   3.552933600000000e+00  2.60984139e+00   2.10381107e+00  -1.13298258e+00
C     9.589162069000000e+00   1.915521894156270e+00   3.558818400000000e+00 -2.82985663e+00  -4.37570010e-01   6.56757460e-01
C     2.235082252200000e+00   3.450729753169899e+00   3.759915900000000e+00 -3.33415049e+00  -1.25289838e+00   9.38431800e-02
C     3.445146512400000e+00   4.030785247416928e+00   3.480486300000000e+00  2.00110659e+00  -5.49108890e-01   9.94481240e-01
C     4.702320915900000e+00   3.240624582436041e+00   3.356940900000000e+00  2.86279760e-01   3.02434623e+00   7.18717540e-01
C     5.852653345400000e+00   4.066819871642528e+00   3.580467300000000e+00  2.89615890e-01   1.36474152e+00  -2.07928300e+00
C     7.050892901999999e+00   3.401661012567418e+00   3.406143900000000e+00  1.29492962e+00  -2.02849302e+00   4.60450370e-01
C     8.333805307200000e+00   3.963595360334209e+00   3.394227000000000e+00  7.07650140e-01   2.28674664e+00   7.26464410e-01
C     9.541015689000000e+00   3.269822106360410e+00   3.668411100000000e+00  2.83200400e-01   4.66463440e+00  -2.98542300e-01
C     1.072221021430000e+01   4.150843649375623e+00   3.845859300000000e+00  3.39058736e+00  -3.86770384e+00  -1.66592730e+00
C     3.471962606500000e+00   5.406824328671366e+00   3.600537000000000e+00  1.57383414e+00   3.52781105e+00  -1.46275756e+00
C     4.714289279700000e+00   6.239583299063515e+00   3.403569300000000e+00 -1.26250310e+00  -1.54429105e+00   9.64434080e-01
C     5.939383039300000e+00   5.571888183095634e+00   3.529431900000000e+00 -2.02030738e+00  -3.34472266e+00  -8.75403700e-01
C     7.127540351500000e+00   6.225023603074276e+00   3.322189200000000e+00  2.95596447e+00  -3.55467831e+00   1.35511960e-01
C     8.431678230799999e+00   5.370162855686429e+00   3.285016800000000e+00 -3.89586112e+00   2.25532055e+00   7.40662710e-01
C     9.552759589899999e+00   6.162971467817164e+00   3.387128700000000e+00  2.59294977e+00  -1.31543297e+00   7.68803400e-02
C     1.087057067630000e+01   5.496887492346650e+00   3.581204100000000e+00 -3.56343097e+00   3.81598930e-01   2.60802340e-01
C     1.210980954260000e+01   6.143549232310090e+00   3.591458100000000e+00  6.70455020e-01  -1.45537815e+00   1.52388520e-01
C     4.740628396300000e+00   7.637015248663601e+00   3.275668800000000e+00 -2.81362723e+00   1.73344206e+00   2.01158704e+00
C     5.957261881499999e+00   8.347988973007684e+00   3.362402700000000e+00 -2.85238742e+00   2.86739416e+00  -1.54146130e-01
C     7.107183050400000e+00   7.593131309834471e+00   3.317380500000000e+00  1.67881768e+00   3.81639168e+00   4.21648460e-01
C     8.276131159900000e+00   8.410798689274582e+00   3.405936300000000e+00  3.56828627e+00  -1.63883133e+00   1.57788610e-01
C     9.497796055199998e+00   7.534504513241306e+00   3.388734600000000e+00  1.17145993e+00   5.17388276e+00   1.71179990e-01
C     1.081126455110000e+01   8.232150635418309e+00   3.461378400000000e+00  1.53924446e+00  -6.41392340e-01   5.35184910e-01
C     1.210347069650000e+01   7.513969986229107e+00   3.550520100000000e+00 -1.79090380e+00   3.16357889e+00  -3.55936630e-01
C     1.326900670370000e+01   8.335559247792576e+00   3.521482500000000e+00  1.51616342e+00  -1.64890897e+00  -1.12427675e+00
