32
Lattice="9.86 0 0 4.93 8.53901048131456 0 0 0 30 " PBC="1 1 1" Properties=species:S:1:pos:R:3:force:R:3 Energy="-254.6909123"
C     9.770271091300000e+00   3.458084915236952e-01   4.062621000000000e+00 -6.58382560e-01   9.33948340e-01  -9.20590620e-01
C     1.143260393800000e+00   9.870040693184673e-01   3.960320400000000e+00  2.26131267e+00   2.93458431e+00   1.84454680e-01
C     2.411368945700000e+00   3.013651621180200e-01   4.284468600000000e+00 -1.51300130e+00  -5.56929080e-01  -1.43677528e+00
C     3.639681255800000e+00   9.421440362013680e-01   4.111197000000000e+00 -1.18702240e+00   5.10687948e+00   2.02767820e-01
C     4.874700140700000e+00   3.520349671855016e-01   4.296060900000001e+00  4.50501780e-01  -1.50949228e+00  -1.08010937e+00
C     6.127254148200000e+00   1.018394838084624e+00   4.189233600000001e+00 -1.00505509e+00   1.97954500e-02   1.13324480e-01
C     7.309426834799999e+00   3.228452991507744e-01   4.110291300000000e+00  2.62172324e+00  -4.20756420e-01  -9.62122340e-01
C     8.520978278799999e+00   1.054302401834281e+00   3.928431900000001e+00  8.74839730e-01   1.51324947e+00   5.29719120e-01
C     1.104673500720000e+01   2.469274845201965e+00   3.650351400000000e+00 -1.93481890e-01  -2.46368515e+00   1.11914731e+00
C     2.418906817100000e+00   3.164761451628577e+00   3.716152800000000e+00 -1.52671610e-01  -1.24241992e+00   1.64851520e-01
C     3.617638387700000e+00   2.471820409616158e+00   3.902178300000000e+00  2.24729465e+00  -3.43956636e+00   8.34269270e-01
C     4.914219513700000e+00   3.086987973396527e+00   4.090002600000000e+00 -9.93608280e-01   1.97313602e+00   6.77039600e-02
C     6.176432968799999e+00   2.405836316203320e+00   4.169557800000000e+00 -2.44116726e+00   8.50485220e-01   3.07633750e-01
C     7.339546275399999e+00   3.173592752437307e+00   4.181898900000000e+00  1.15059155e+00   1.05928514e+00  -8.90158250e-01
C     8.549141594000000e+00   2.530842477004442e+00   3.863910900000000e+00  1.41389592e+00  -2.73627032e+00   5.18628700e-01
C     9.842182832100001e+00   3.208589289158854e+00   3.681666000000000e+00 -2.81524476e+00  -1.54666181e+00   3.64911600e-01
C     1.226420950110000e+01   4.541980880301664e+00   3.797082300000000e+00 -6.80888120e-01   3.71651351e+00  -2.34664300e-01
C     3.588620506300000e+00   5.290659800881655e+00   4.013843700000000e+00  3.32312763e+00  -1.59139000e+00   3.65239990e-01
C     4.908806127200000e+00   4.525699805189763e+00   4.202773500000000e+00 -1.43422082e+00   2.25030004e+00   2.01498550e-01
C     6.097717187100001e+00   5.343010766332440e+00   4.503335400000000e+00 -6.87740460e-01  -1.52677628e+00  -1.84343340e+00
C     7.348880490899999e+00   4.597878438365211e+00   4.319071800000001e+00 -1.72015510e+00   9.47622320e-01   7.05233890e-01
C     8.551501880800000e+00   5.323390084221809e+00   4.218728100000000e+00  1.05985288e+00  -2.36143863e+00  -1.30422702e+00
C     9.740699472299999e+00   4.585526076585054e+00   3.774774600000000e+00  2.02255818e+00   3.25156936e+00   1.21381012e+00
C     1.102477683650000e+01   5.332677197409962e+00   3.779576700000000e+00 -7.94724810e-01  -1.80195632e+00   6.83065140e-01
C     1.352159160550000e+01   6.715363471372556e+00   4.051590300000000e+00  8.34684210e-01   5.38003690e-01   4.13116800e-02
C     4.880915095900001e+00   7.509827199904629e+00   4.194535200000000e+00 -1.26920607e+00  -2.80379859e+00   4.80582350e-01
C     6.071145423799999e+00   6.816021583081111e+00   4.453986600000000e+00 -5.87021100e-02  -3.37299258e+00  -4.42984700e-02
C     7.321307543200000e+00   7.400058988695172e+00   4.455946800000000e+00  2.91898270e-01   2.64608002e+00  -4.70728200e-02
C     8.536356575699999e+00   6.704818476550594e+00   4.355378400000000e+00  1.89674241e+00   1.79825010e+00  -2.68805150e-01
C     9.774455724599999e+00   7.488629191778134e+00   4.215879300000000e+00  1.34725556e+00  -3.18624239e+00   5.85979410e-01
C     1.105001779560000e+01   6.707622943762541e+00   4.062036600000000e+00 -1.03650500e-01   2.26467982e+00  -8.88025330e-01
C     1.235132792550000e+01   7.455585868313783e+00   3.985765200000000e+00 -4.08735557e+00  -1.24400615e+00   1.23614901e+00
