32
Lattice="9.944 0 0 4.972 8.61175661523246 0 0 0 30 " PBC="1 1 1" Properties=species:S:1:pos:R:3:force:R:3 Energy="-257.92587232"
C     4.050280964165033e-04   1.571899138390995e-03   2.997693624414439e+00  4.06123600e-02  -9.83373000e-03   3.78900900e-02
C     1.243672420886549e+00   7.216526517549422e-01   2.999176758301717e+00 -3.67168200e-02  -2.15201910e-01   6.57770000e-04
C     2.485196038928721e+00   1.518112093530570e-03   2.999610325816224e+00  1.14026610e-01  -7.03741400e-02  -8.56243000e-03
C     3.730041615494160e+00   7.170279175432728e-01   2.999195572286085e+00 -2.61905500e-02   3.44451100e-02  -2.98175700e-02
C     4.976124241661075e+00   2.599106624008867e-03   2.996616380593308e+00 -2.81044050e-01  -2.78093480e-01   7.94701400e-02
C     6.213496510613574e+00   7.134878548427025e-01   3.002671932580452e+00  2.22608580e-01   2.26862140e-01  -3.95650100e-02
C     7.459292817285873e+00   2.738704289724874e-04   3.002928350400051e+00 -1.29462150e-01  -1.98636930e-01  -2.33885100e-02
C     8.699314912710618e+00   7.145163156472003e-01   2.998607500321213e+00  7.90614100e-02   1.99396480e-01   8.02091000e-03
C     1.245050896479305e+00   2.151723082065343e+00   3.000818175260688e+00 -1.96195920e-01   2.01422770e-01  -2.22604000e-03
C     2.483861388550297e+00   2.869863034314953e+00   2.999503114367740e+00  1.18405990e-01   4.33792700e-02  -3.58883000e-03
C     3.726314200110126e+00   2.151621001926958e+00   2.996819620268555e+00  3.93646300e-02   5.78193600e-02   4.33823400e-02
C     4.967701465218473e+00   2.871068196568142e+00   3.000478183698166e+00  2.21806380e-01  -6.39783500e-02  -3.58509900e-02
C     6.215111398420736e+00   2.149236399279606e+00   3.000096770394173e+00 -1.74167310e-01   1.21042880e-01  -4.30867000e-03
C     7.457007747695253e+00   2.868057303861870e+00   2.996552903952777e+00 -8.38542000e-02   6.26800400e-02   4.08656700e-02
C     8.697460998919148e+00   2.154268859121541e+00   2.996896964786055e+00  2.04506920e-01  -1.45187750e-01   2.80214400e-02
C     9.943343103425436e+00   2.871913875577392e+00   3.002279713304747e+00 -5.57599200e-02  -1.14028040e-01  -6.70107500e-02
C     2.486031982512436e+00   4.306476080298046e+00   3.000099250952695e+00 -2.69971000e-02  -5.63984600e-02   2.30994200e-02
C     3.727765719446952e+00   5.027291594693390e+00   3.004198747379559e+00  1.28763440e-01  -1.55111440e-01  -8.99796600e-02
C     4.973563880288492e+00   4.307130001796875e+00   2.998577357387366e+00 -1.09344110e-01  -2.68496400e-02   7.64029700e-02
C     6.218163653622859e+00   5.022675202431445e+00   3.004023649413180e+00 -2.18010320e-01   7.24515900e-02  -7.76364100e-02
C     7.457138875646967e+00   4.304540331072666e+00   3.000980193265586e+00  8.88344300e-02  -1.22025200e-02  -1.22663600e-02
C     8.699796828165947e+00   5.021378977396879e+00   2.999485490731883e+00 -5.88496100e-02   2.02815080e-01  -3.42286400e-02
C     9.940844664113282e+00   4.306455489400115e+00   2.995940914940268e+00  1.48954430e-01  -5.97125100e-02   6.83723700e-02
C     1.118761884867803e+01   5.019838094134316e+00   2.999815261073462e+00 -7.57152600e-02   2.49903630e-01  -4.13958900e-02
C     3.728496443524668e+00   6.459017793902984e+00   2.997758121354241e+00  2.79174700e-02   8.07317400e-02   8.66995500e-02
C     4.976098396745810e+00   7.177827620167494e+00   3.002976358874446e+00 -2.98638860e-01   1.21739600e-02  -8.99850300e-02
C     6.210539188841746e+00   6.459568283995303e+00   2.996826650489864e+00  4.43263880e-01  -6.00190400e-02   8.78512200e-02
C     7.462454671532263e+00   7.175954120446993e+00   2.998824328375594e+00 -4.28203680e-01   1.43073870e-01  -2.27474500e-02
C     8.698549668623464e+00   6.463270931179614e+00   2.996809938852040e+00  2.03409200e-01  -3.32816710e-01   5.25772700e-02
C     9.943804802199997e+00   7.175302365129322e+00   3.002103107138472e+00  2.23156800e-02   1.81998990e-01  -8.63344700e-02
C     1.118765544005949e+01   6.461162853045386e+00   2.997136589853592e+00 -1.36817450e-01  -3.18544180e-01   6.71424900e-02
C     1.242664621744732e+01   7.173303115594750e+00   3.001310150818316e+00  2.32115920e-01   2.26791930e-01  -3.15609400e-02
