32
Lattice="9.86 0 0 4.93 8.53901048131456 0 0 0 30 " PBC="1 1 1" Properties=species:S:1:pos:R:3:force:R:3 Energy="-257.14387118"
C     1.249865974300000e+00   4.566714892667928e-01   3.456544800000000e+00 -9.67695790e-01  -1.23149901e+00  -2.04258390e-01
C     2.482574118900000e+00   1.151653184003722e+00   3.453067200000000e+00 -6.84804400e-02  -2.28863330e-01   1.33212770e-01
C     3.712179321500000e+00   4.363949257611944e-01   3.438731100000000e+00  8.08797510e-01   5.66889670e-01   5.63808100e-01
C     4.954971781099999e+00   1.195729848299387e+00   3.490876800000000e+00 -1.78813002e+00  -1.23203524e+00  -1.96644050e-01
C     6.162666831200000e+00   4.717480515603856e-01   3.517422300000000e+00 -8.76287950e-01  -1.64733020e+00   7.38653600e-02
C     7.368245728099999e+00   1.144252082060287e+00   3.523194300000000e+00  1.39239619e+00   7.48229000e-03  -4.87985500e-01
C     8.600096348499999e+00   4.491559645829256e-01   3.389700300000000e+00  4.48062470e-01  -1.22235043e+00   1.37118113e+00
C     9.843462265699999e+00   1.123570427897518e+00   3.487507800000000e+00  2.48113730e-01   1.40156807e+00  -6.23863910e-01
C     2.463619156300000e+00   2.561863933567338e+00   3.511447200000000e+00 -1.08843716e+00   6.08368890e-01  -1.45617340e-01
C     3.657197348600000e+00   3.302773293901682e+00   3.570234300000000e+00  1.41919011e+00  -5.77510510e-01  -8.59446580e-01
C     4.909603061699999e+00   2.601796103736430e+00   3.490028100000000e+00  8.33404410e-01   1.30715680e-01   1.93830720e-01
C     6.184348478200000e+00   3.269227791231002e+00   3.462760200000000e+00 -1.95164210e+00   2.03798411e+00   1.01984665e+00
C     7.378807760099999e+00   2.535013015112979e+00   3.559034700000000e+00  5.69714840e-01   2.03473403e+00  -8.02475180e-01
C     8.611369434400000e+00   3.280235258860560e+00   3.518983500000000e+00 -5.53120690e-01  -2.40483150e-01   6.64765150e-01
C     9.825272833500000e+00   2.574088380970506e+00   3.514927200000000e+00  6.56974180e-01  -1.27727648e+00  -3.81832920e-01
C     1.105975799660000e+01   3.260640620731894e+00   3.473210400000000e+00  5.50407880e-01   4.14262710e-01   9.34514630e-01
C     3.667137411800000e+00   4.703330862897867e+00   3.536319300000000e+00  5.83961770e-01   1.51962169e+00   5.86055430e-01
C     4.921008419500000e+00   5.480356821958418e+00   3.528455700000000e+00 -7.09605990e-01  -2.62585497e+00  -1.11915970e-01
C     6.139304596499999e+00   4.746134446121068e+00   3.517132200000000e+00  1.64398399e+00  -2.98149490e-01  -4.66962910e-01
C     7.411062383699999e+00   5.490488870233568e+00   3.488238900000000e+00 -1.05182708e+00  -3.73362262e+00   6.40051340e-01
C     8.626277162800001e+00   4.697395909053848e+00   3.575761800000000e+00 -1.48983737e+00   9.38776850e-01  -1.00865042e+00
C     9.828825588699999e+00   5.415666132462986e+00   3.531084000000000e+00  9.57762790e-01  -1.18363648e+00   3.54377370e-01
C     1.104508631660000e+01   4.685870123488153e+00   3.565842600000000e+00  1.20480128e+00  -3.79860100e-02  -3.29862230e-01
C     1.229361044350000e+01   5.389937239985699e+00   3.600279300000000e+00 -4.38409730e-01   1.19197683e+00  -3.19203420e-01
C     4.922502801099999e+00   6.879291295842565e+00   3.490655100000000e+00 -8.64521500e-02  -1.80972500e-01  -3.08152720e-01
C     6.167146475700000e+00   7.549957133556438e+00   3.427749300000000e+00  1.16174930e-01   1.67149202e+00   3.87639590e-01
C     7.410597780500000e+00   6.865388078979030e+00   3.467372100000000e+00 -1.99908690e-01   7.71007640e-01  -1.04817660e-01
C     8.651522164499999e+00   7.553965515855959e+00   3.487932300000000e+00 -2.04514800e-01   4.09103990e-01  -4.41918500e-01
C     9.860172944399999e+00   6.803634552918403e+00   3.496626300000000e+00  1.81989640e-01   2.45520154e+00   4.87603170e-01
C     1.108881319810000e+01   7.565089114028045e+00   3.554201700000000e+00 -8.37736310e-01  -1.87074450e-01  -3.15555390e-01
C     1.229515609710000e+01   6.850656578098934e+00   3.590333100000000e+00  8.94575170e-01  -9.53069560e-01  -4.94861260e-01
C     1.353446033520000e+01   7.554989257822406e+00   3.466097100000000e+00 -1.98224620e-01   6.98528430e-01   1.93272960e-01
