32
Lattice="9.86 0 0 4.93 8.53901048131456 0 0 0 30 " PBC="1 1 1" Properties=species:S:1:pos:R:3:force:R:3 Energy="-255.39757767"
C     9.743761347400000e+00   6.664204124834255e-01   3.333681900000000e+00  2.85226460e-01   3.71891065e+00   3.79271140e-01
C     1.138132750100000e+00   1.408090427871327e+00   3.367185900000000e+00 -1.07709980e+00   6.32127720e-01  -5.68946440e-01
C     2.334835724300000e+00   6.807146306368408e-01   3.537836700000000e+00  8.82760190e-01   3.01945970e+00  -2.25871850e-01
C     3.574989697200000e+00   1.435335592439549e+00   3.472018500000000e+00  1.10968200e-01  -1.21825901e+00  -7.87585980e-01
C     4.788469658600000e+00   6.869165993385696e-01   3.462169200000000e+00  2.40604436e+00   2.79085539e+00  -8.43783200e-02
C     6.117863237700000e+00   1.364194619817630e+00   3.396388200000000e+00 -2.39643034e+00   5.16271550e-01   1.48955870e-01
C     7.338058697199999e+00   7.112587565139056e-01   3.448127100000000e+00 -4.56084880e-01   9.31941400e-02  -1.01667359e+00
C     8.508153031699999e+00   1.456388437387884e+00   3.286632000000000e+00  1.82931038e+00  -1.17753822e+00   8.00525800e-01
C     1.102632022230000e+01   2.880633050675380e+00   3.154218000000000e+00 -4.80048280e-01  -2.98074104e+00   2.49441850e-01
C     2.418397153700000e+00   3.537878125617836e+00   3.053056200000000e+00 -1.28658463e+00   1.00430887e+00   3.98634880e-01
C     3.645390245100000e+00   2.830135904399804e+00   3.205001100000000e+00 -1.27154443e+00  -8.92372780e-01   1.09142703e+00
C     4.886723424700000e+00   3.465803070639510e+00   3.392050800000000e+00 -3.90358240e-01   7.88042080e-01  -1.56540285e+00
C     6.132833577100000e+00   2.769047652645674e+00   3.334060500000000e+00 -1.73760280e+00   1.24056982e+00   1.51737418e+00
C     7.252425731100000e+00   3.594014605194614e+00   3.456859500000000e+00  3.10560571e+00  -1.37340911e+00  -1.70713008e+00
C     8.525587828799999e+00   2.863734775885984e+00   3.302311500000000e+00 -1.08327559e+00   3.70130800e-01   3.12602060e-01
C     9.753529008499999e+00   3.543428140869417e+00   3.183718500000000e+00  1.05941981e+00  -4.29772830e-01  -3.57927430e-01
C     1.219400092740000e+01   4.992877949121462e+00   3.034581000000000e+00  1.55493248e+00  -1.91339998e+00   1.98364980e-01
C     3.562843754799999e+00   5.619418791740354e+00   3.245595900000000e+00  2.58532481e+00   1.89397615e+00   7.72172970e-01
C     4.841444973600000e+00   4.866303513655584e+00   3.403694400000000e+00 -2.90783990e-01   2.71643608e+00   4.34907510e-01
C     6.073544411099999e+00   5.653732549183919e+00   3.623467200000000e+00 -3.13520086e+00   2.41515725e+00  -9.21592000e-01
C     7.268098891300000e+00   5.030801146294924e+00   3.443971500000000e+00  2.47839551e+00  -2.12166568e+00   1.55959874e+00
C     8.559483057799998e+00   5.677034911053105e+00   3.500726400000000e+00 -8.40766530e-01   1.70630910e+00  -1.12131251e+00
C     9.754154871999999e+00   4.927256165923292e+00   3.153966600000000e+00 -3.71942240e-01   3.33904012e+00   1.04229936e+00
C     1.098429645860000e+01   5.679995556766731e+00   3.063589800000000e+00 -5.56889820e-01   2.02368439e+00   8.44393600e-01
C     1.347607503540000e+01   7.090678001269263e+00   3.394874400000000e+00 -7.87952230e-01  -1.30419062e+00  -5.53917140e-01
C     4.802486141599999e+00   7.836227374508333e+00   3.497677200000000e+00  1.47420627e+00  -1.97403722e+00   2.34242270e-01
C     6.040902486699999e+00   7.130357331338041e+00   3.673356300000000e+00  1.30109690e-01  -1.30949041e+00  -2.89640490e-01
C     7.279444300300000e+00   7.851794929904526e+00   3.704658300000000e+00 -5.88884000e-03  -2.00826940e+00  -3.71569310e-01
C     8.536551507900001e+00   7.174807321171890e+00   3.615889200000000e+00  2.43606960e-01  -3.37314212e+00  -7.14605960e-01
C     9.757151523200001e+00   7.863321313200954e+00   3.419523300000000e+00  8.23808290e-01  -2.12383085e+00   5.34822020e-01
C     1.104499737940000e+01   7.162412178949227e+00   3.269806500000000e+00 -1.96304099e+00  -1.76450486e+00  -1.80651390e-01
C     1.228287965760000e+01   7.856776674008662e+00   3.363167100000000e+00 -8.38224660e-01  -2.30384967e+00  -5.18289500e-02
