32
Lattice="9.86 0 0 4.93 8.53901048131456 0 0 0 30 " PBC="1 1 1" Properties=species:S:1:pos:R:3:force:R:3 Energy="-253.47378404"
C     9.768362737599999e+00   3.361610320932864e-01   4.067180400000000e+00  1.19675659e+00  -6.45685740e-01  -9.04180500e-02
C     1.194336327700000e+00   9.981152859253577e-01   3.929697300000000e+00 -2.21234496e+00  -3.16165490e-01  -1.09235880e-01
C     2.381524549800000e+00   2.837132342636592e-01   4.232805900000000e+00  5.50191520e-01   2.40329708e+00  -5.66228490e-01
C     3.573417027200000e+00   1.144423801561040e+00   4.144443300000000e+00  2.00893148e+00  -8.16883033e+00   1.80235726e+00
C     4.840492152500000e+00   3.732815622816280e-01   4.381564500000000e+00  2.27147820e-01  -1.33710880e+00  -1.08766766e+00
C     6.107439196400000e+00   9.786483060033681e-01   4.252028700000000e+00  6.27475090e-01   1.41952877e+00  -9.56166360e-01
C     7.377429677199999e+00   3.358023936531264e-01   4.054035900000000e+00 -2.29550346e+00  -4.06241910e-01   5.59122900e-01
C     8.555914329400000e+00   1.091561007822085e+00   3.865044900000000e+00  8.85772700e-01  -2.21853565e+00   1.15590212e+00
C     1.102871699110000e+01   2.387460792600884e+00   3.522388500000000e+00  9.38800020e-01   1.58598808e+00   1.21463209e+00
C     2.415738848400000e+00   3.161849905225211e+00   3.590303100000000e+00  2.24525220e-01   1.27910800e-02   9.73135890e-01
C     3.696423731700000e+00   2.426054558267340e+00   3.917155200000000e+00 -2.68271588e+00   4.78688490e+00  -1.09328266e+00
C     4.930522974400000e+00   3.078665256051985e+00   4.131120900000000e+00 -6.82760850e-01   2.38525632e+00   2.99782540e-01
C     6.143749287299999e+00   2.386834712352491e+00   4.163244600000000e+00  1.14521854e+00   2.24339634e+00   8.43454270e-01
C     7.409467578000000e+00   3.224782924803440e+00   4.162878300000000e+00 -2.74881816e+00  -2.31607750e+00   1.37259920e-01
C     8.587116743099999e+00   2.503665112179431e+00   3.834568500000000e+00 -9.74237950e-01   1.18087420e-01   5.60036100e-02
C     9.775141734100000e+00   3.158390837469868e+00   3.567753600000000e+00  2.06185086e+00   9.47131890e-01   3.49066960e-01
C     1.224400286080000e+01   4.615473325629567e+00   3.706940400000000e+00  2.22209524e+00  -1.96039092e+00   1.89193850e-01
C     3.729292140300000e+00   5.271325773352840e+00   3.995395200000000e+00 -4.71721445e+00   1.27003869e+00  -5.50429460e-01
C     4.862501299400000e+00   4.547097711551595e+00   4.324538400000000e+00  2.63466890e-01  -2.26509018e+00  -1.43495603e+00
C     6.044149680500000e+00   5.234968545311305e+00   4.527769800000000e+00  1.73458104e+00   1.80567243e+00   5.22987640e-01
C     7.316774309600000e+00   4.602373971212618e+00   4.474306500000001e+00  1.79520298e+00  -1.35544268e+00  -2.22456874e+00
C     8.560973840499999e+00   5.273581438361235e+00   4.208024999999999e+00  7.93495040e-01   2.30386233e+00   5.59479510e-01
C     9.787007948299999e+00   4.629019526464933e+00   3.693354300000000e+00 -2.51251710e+00  -2.34650756e+00   1.62623150e+00
C     1.099473647310000e+01   5.271268561982623e+00   3.792145200000000e+00  2.04145135e+00   3.71561652e+00  -4.71995240e-01
C     1.350660046150000e+01   6.725457606441174e+00   3.987870900000000e+00 -3.57738860e-01  -1.10506084e+00   2.04805190e+00
C     4.830994655400000e+00   7.403702242906570e+00   4.374275700000000e+00  5.29222500e-01   1.65768835e+00  -2.10084129e+00
C     6.060991990200000e+00   6.652466401028447e+00   4.538031600000000e+00  8.12478050e-01   2.55095820e+00  -1.40415300e-01
C     7.351336863399999e+00   7.445793416485424e+00   4.517450699999999e+00 -7.31352830e-01  -1.91886254e+00   1.74342400e-02
C     8.628204299800000e+00   6.737369269890459e+00   4.483059000000000e+00 -1.63279717e+00  -1.73867581e+00  -1.15170803e+00
C     9.839009489700000e+00   7.436689379681963e+00   4.333380600000000e+00 -1.49787404e+00   1.78089428e+00  -3.07122230e-01
C     1.102436897760000e+01   6.768547417295664e+00   3.975501300000000e+00 -8.97549710e-01  -2.23188276e+00   1.08688452e+00
C     1.221458249420000e+01   7.460938205472751e+00   4.036087500000000e+00  3.88476250e+00  -6.56533970e-01  -1.15594530e+00
