32
Lattice="9.86 0 0 4.93 8.53901048131456 0 0 0 30 " PBC="1 1 1" Properties=species:S:1:pos:R:3:force:R:3 Energy="-255.20325027"
C     5.066178579900000e+00   7.838533675848876e+00   3.064386000000000e-01 -5.08575690e-01  -2.07293386e+00  -1.12558041e+00
C     1.375199540200000e+00   1.234980007701440e-02   2.207247000000000e-01 -6.05943260e-01   3.48792100e-02   4.01018770e-01
C     7.551290958599999e+00   7.850932746016359e+00   2.984925000000000e-01 -7.27570340e-01   1.81499650e-01  -8.71359160e-01
C     3.836040937300000e+00   4.058463595986801e-02   1.363299000000000e-01 -1.53301024e+00  -1.33315957e+00   9.85407000e-02
C     9.966783602800000e+00   7.844831793808609e+00   3.470430000000000e-02 -6.33208620e-01  -9.41223110e-01   1.06890021e+00
C     1.114859280050000e+01   8.520705317843920e+00   2.445300000000000e-01  2.10371861e+00   2.84375233e+00  -1.66153033e+00
C     1.241988213910000e+01   7.905423502103327e+00   8.935410000000001e-02 -7.79129770e-01  -4.58637729e+00  -1.68084500e-02
C     1.368675572600000e+01   8.498340539325437e+00   1.723737000000000e-01 -9.15271910e-01   2.17788725e+00   8.00593600e-01
C     1.304168149500000e+00   1.421180389376748e+00  -2.210579999999851e-02  6.82652040e-01   2.91901600e-02  -6.16024620e-01
C     2.559838212800000e+00   2.101423666635093e+00  -2.827847999999982e-01 -1.34979788e+00   5.42299920e-01   1.11397043e+00
C     3.762658429600000e+00   1.419991673727827e+00  -3.146549999999948e-02  1.63603216e+00   1.28301618e+00  -5.05745430e-01
C     5.021300888500000e+00   2.149450391788700e+00  -4.936799999999408e-03 -1.93837612e+00   1.33411970e+00   2.71178400e-02
C     6.175700075000000e+00   1.457904367918398e+00   2.233713000000000e-01  3.22315682e+00  -1.07666174e+00   6.55964200e-02
C     7.462699351599999e+00   2.184216716787705e+00   2.204295000000000e-01 -4.95557660e-01  -2.62793488e+00   1.65965030e-01
C     8.697519311000001e+00   1.383919648636325e+00   1.902624000000000e-01  2.13100040e-01   2.67682172e+00  -4.93088280e-01
C     9.912046798799999e+00   2.139064820292400e+00  -2.871389999999963e-02  1.33133581e+00  -9.46574640e-01  -3.44572720e-01
C     2.565510572200000e+00   3.530430315287075e+00  -4.374494999999996e-01 -3.27737250e-01   3.23322760e-01   3.19717750e-01
C     3.761295531100000e+00   4.273572797642148e+00  -2.279631000000002e-01  8.92639380e-01  -1.04985427e+00  -7.55467280e-01
C     5.024209292700000e+00   3.600512279829265e+00  -8.686979999999878e-02 -4.88684060e-01  -3.05148080e-01   1.07706270e+00
C     6.205123744700000e+00   4.344754672124266e+00   2.117424000000000e-01  2.69239291e+00  -2.22063999e+00  -1.45713122e+00
C     7.478270855199999e+00   3.584566104708389e+00   2.277732000000000e-01  5.16928380e-01   7.59124540e-01  -1.52981010e-01
C     8.770015207500000e+00   4.272992486489928e+00   1.106019000000000e-01 -8.59569180e-01   5.72606900e-02  -8.24425420e-01
C     1.000829188570000e+01   3.554151601010410e+00  -2.700546000000017e-01 -3.72179720e+00  -1.57106830e-01   1.93536945e+00
C     1.118739298510000e+01   4.260024291273951e+00  -4.696701000000019e-01  8.79706340e-01   6.48835470e-01   6.81996340e-01
C     3.746309662200000e+00   5.664334328425573e+00  -1.359293999999984e-01  1.66104048e+00   2.15808818e+00   1.20555507e+00
C     5.025733550099999e+00   6.380418223591412e+00   2.117733000000000e-01  1.31073630e-01   1.24169663e+00  -1.37112096e+00
C     6.339201898100000e+00   5.744284315038870e+00   1.474494000000000e-01 -4.62435627e+00  -7.75025310e-01   1.51964687e+00
C     7.525504149900000e+00   6.419375921884526e+00   2.990847000000000e-01  6.31359540e-01   1.38868063e+00  -2.64847900e-02
C     8.721835599300000e+00   5.705161301502863e+00   1.966176000000000e-01  1.85953821e+00  -8.40520410e-01  -1.23050363e+00
C     9.930290954000000e+00   6.425955144069261e+00  -5.895540000000210e-02  5.98437420e-01  -6.94055530e-01   1.18319580e-01
C     1.116339423810000e+01   5.713035293846681e+00  -3.178127999999987e-01 -7.09917180e-01  -6.46500970e-01   4.60436190e-01
C     1.237713770800000e+01   6.390795768417861e+00  -1.612016999999994e-01  1.16539088e+00   2.59324145e+00   3.93016770e-01
