32
Lattice="9.86 0 0 4.93 8.53901048131456 0 0 0 30 " PBC="1 1 1" Properties=species:S:1:pos:R:3:force:R:3 Energy="-251.4601622"
C     9.960115629899999e+00   1.110318054412767e+00   3.539500500000000e+00 -3.49611115e+00   9.56505040e-01   5.10847120e-01
C     1.277935767400000e+00   1.900100099668971e+00   3.693597600000000e+00  5.59138630e-01  -2.69046827e+00  -9.75570080e-01
C     2.547892280500000e+00   1.124332278412543e+00   3.612392400000000e+00 -3.71212260e-01   2.33034354e+00   1.65771285e+00
C     3.729681856800000e+00   1.709249970616989e+00   4.247754600000000e+00  6.58039970e-01   3.02416611e+00  -2.62158156e+00
C     5.010217262499999e+00   1.067594310937554e+00   4.287950700000000e+00 -6.14568370e-01  -4.17668350e-01  -1.24501571e+00
C     6.229079551400001e+00   1.791500110483283e+00   4.197906000000000e+00  6.59714950e-01   2.59581711e+00  -8.67952300e-01
C     7.422329750800000e+00   1.165888995325454e+00   3.728611800000000e+00 -7.96628200e-01  -2.02190772e+00   8.52657160e-01
C     8.630178814099999e+00   1.829030513174665e+00   3.742777200000000e+00  4.47274050e+00   5.96637610e-01  -7.15729990e-01
C     1.107457486510000e+01   3.278635304466922e+00   3.935838000000000e+00  3.19594967e+00   1.04800867e+00   1.36306943e+00
C     2.505932163100000e+00   3.943753859412567e+00   4.205164799999999e+00  5.06592530e-01   1.25830720e-01   3.40926840e-01
C     3.805407100500000e+00   3.191986037181541e+00   4.178354700000000e+00 -1.01247060e+00   1.37260215e+00   2.36986434e+00
C     5.095426741600000e+00   4.001610010309912e+00   4.354750500000000e+00 -2.05853568e+00  -1.02359437e+00  -1.52199512e+00
C     6.311579354599999e+00   3.318094498845527e+00   4.175875199999999e+00 -3.57298261e+00  -4.88185470e+00   8.37105390e-01
C     7.471201136600000e+00   3.934393993855125e+00   3.881907600000000e+00  2.22273298e+00  -9.86983800e-02   6.53458140e-01
C     8.718346095999999e+00   3.231090862625225e+00   3.910190400000000e+00 -8.98180620e-01   1.66118293e+00  -1.11359280e-01
C     9.898379902099999e+00   4.049480130011315e+00   4.043734200000000e+00  3.76734310e-01  -1.04585434e+00  -5.78501690e-01
C     1.237370218820000e+01   5.411293049025864e+00   4.448633400000000e+00  2.52132508e+00  -1.98202690e+00  -3.17775746e+00
C     3.810051801400000e+00   5.996972677135440e+00   4.100857500000000e+00 -2.47582138e+00   4.43112635e+00  -1.17451914e+00
C     5.065179909799999e+00   5.428599915466727e+00   4.103531100000000e+00 -3.92504200e-01  -1.52910830e+00  -4.15626780e-01
C     6.239807330000000e+00   6.109161441645663e+00   3.626634600000000e+00  3.47619880e-01  -1.83144337e+00   9.59315220e-01
C     7.448054786599999e+00   5.287277071880004e+00   3.721860300000000e+00  1.66276464e+00   5.69548918e+00  -3.33363310e-01
C     8.660366436600000e+00   6.147554028225209e+00   3.816999900000000e+00  1.35498732e+00  -6.47651010e-01  -1.45697272e+00
C     1.000031139890000e+01   5.504543227582599e+00   4.076468700000000e+00 -4.31596875e+00  -1.83152460e+00  -2.92125030e-01
C     1.122255980900000e+01   6.169796442723513e+00   4.161975300000000e+00 -1.06476209e+00  -4.74646260e-01  -6.16017200e-02
C     1.356242033720000e+01   7.446082035039648e+00   3.530310000000000e+00  9.83388010e-01   6.30154150e-01   2.33047237e+00
C     4.917373826300000e+00   8.228563397115661e+00   3.455697900000000e+00  2.89537587e+00  -1.92875288e+00  -6.06734100e-01
C     6.224392156700000e+00   7.473684813366772e+00   3.368747100000000e+00 -1.61202050e-01   3.24190441e+00  -5.59699950e-01
C     7.506183184099999e+00   8.328342759255719e+00   3.220075500000000e+00 -2.13835035e+00  -3.05150042e+00   2.34085189e+00
C     8.676418565900001e+00   7.593802561448303e+00   3.523022100000000e+00  1.33550673e+00  -2.04989137e+00   2.43635663e+00
C     9.932533709599999e+00   8.206798227913085e+00   4.009244700000000e+00 -2.14523535e+00   1.40531615e+00  -1.59951792e+00
C     1.114132681860000e+01   7.553071737629018e+00   3.895669200000000e+00  2.88627639e+00  -3.94353900e-02   3.26833350e-01
C     1.237636064140000e+01   8.266520067210205e+00   3.607506600000000e+00 -1.12435380e+00  -1.56905747e+00   1.33615314e+00
