32
Lattice="9.86 0 0 4.93 8.53901048131456 0 0 0 30 " PBC="1 1 1" Properties=species:S:1:pos:R:3:force:R:3 Energy="-254.17063524"
C     9.781713424099999e+00   2.928439127798184e-01   4.292881800000000e+00 -3.61295050e-01   3.79997896e+00  -1.30059578e+00
C     1.143220855200000e+00   1.088592164658398e+00   4.160641200000001e+00  5.84301640e-01  -5.57708921e+00   1.65126753e+00
C     2.343144105400000e+00   3.110471191507680e-01   4.508661300000000e+00  9.18593470e-01  -6.22959260e-01   7.46653000e-03
C     3.634183171899999e+00   9.110283089627720e-01   4.570922100000000e+00 -1.07295312e+00   3.14885307e+00  -1.77328352e+00
C     4.890653324900000e+00   2.480188896056872e-01   4.629865200000000e+00 -1.55156038e+00   2.44977194e+00  -4.94438220e-01
C     6.078915448900000e+00   1.054701259013802e+00   4.498527900000000e+00  1.24693149e+00  -3.46776553e+00   4.83559340e-01
C     7.304828919599999e+00   2.391840024125552e-01   4.501295100000000e+00  1.88844945e+00   2.96259856e+00  -2.36912015e+00
C     8.540900112999999e+00   9.825192102341616e-01   4.183253700000000e+00 -1.39598756e+00   1.42737765e+00   1.14057766e+00
C     1.103497365410000e+01   2.421310796385281e+00   3.970535700000000e+00  2.58220270e-01   2.62860943e+00  -2.34174890e-01
C     2.413696595900000e+00   3.111871845396715e+00   4.084735200000000e+00  2.09821630e-01   1.06581880e-01   3.26873950e-01
C     3.622937348900000e+00   2.364684177606951e+00   4.247642400000000e+00  7.17823290e-01   5.14510000e-01   1.48824027e+00
C     4.833280203399999e+00   3.155541967403425e+00   4.416474300000000e+00  1.25684131e+00  -1.27571119e+00  -2.32857000e-03
C     6.119299593199999e+00   2.451505505953504e+00   4.460964600000001e+00 -1.31545366e+00   2.54991340e-01   5.73292700e-01
C     7.370863508799999e+00   3.146597524705835e+00   4.480110600000000e+00 -1.90970191e+00   1.17106149e+00  -9.49351840e-01
C     8.518179567099999e+00   2.497258634176706e+00   4.087735500000001e+00  3.39595009e+00  -3.08197438e+00   4.49130560e-01
C     9.843885604800001e+00   3.170971617780367e+00   3.915514200000000e+00 -3.76414770e+00   6.71222380e-01   1.26554305e+00
C     1.227089734190000e+01   4.553392755467556e+00   4.214695500000000e+00 -3.58828578e+00  -1.25478662e+00  -1.22332521e+00
C     3.571294612900000e+00   5.197588173034057e+00   4.353257399999999e+00  4.49486568e+00   4.03729683e+00   1.70912504e+00
C     4.844476824999999e+00   4.571591692333265e+00   4.528575000000000e+00  3.77389220e-01  -1.31163975e+00   1.40538630e-01
C     6.101828659200000e+00   5.253771190217950e+00   4.818299400000001e+00 -2.54194898e+00   2.32862365e+00  -1.99485306e+00
C     7.336119136599999e+00   4.579311640928023e+00   4.631692500000000e+00 -8.81178360e-01  -1.08155994e+00   2.81448460e-01
C     8.535117765300001e+00   5.256988945537129e+00   4.521804600000000e+00  1.48925781e+00   1.76291613e+00  -4.67070520e-01
C     9.761436482000001e+00   4.597437569254129e+00   4.132088100000000e+00  1.18660881e+00   9.02610800e-02   6.09699210e-01
C     1.101104757530000e+01   5.344700978066850e+00   4.202859000000000e+00  2.49295980e-01  -1.83625176e+00   1.48107220e-01
C     1.349051475890000e+01   6.658875526124421e+00   4.503380100000000e+00  1.14849399e+00  -1.58770830e-01  -1.45420036e+00
C     4.836147589999999e+00   7.493116441785374e+00   4.506566400000000e+00 -6.35747710e-01  -4.25388826e+00   6.51362750e-01
C     6.009491977700000e+00   6.774941342952983e+00   4.695122400000000e+00  2.85284158e+00  -3.70081488e+00   8.90401030e-01
C     7.278336332099999e+00   7.393809030754547e+00   4.729130100000000e+00 -7.41862190e-01   2.37012096e+00  -7.49645410e-01
C     8.522392202799999e+00   6.712042735586989e+00   4.685971200000000e+00  3.62255850e-01  -1.46021314e+00  -5.82461650e-01
C     9.747783438599999e+00   7.411659234432252e+00   4.555928100000000e+00  2.62221693e+00  -1.05279311e+00   3.51469660e-01
C     1.104986230340000e+01   6.741479607975112e+00   4.400769599999999e+00 -1.55593635e+00  -1.99491573e+00  -5.57226930e-01
C     1.233429127520000e+01   7.354166247650622e+00   4.346039700000000e+00 -3.94409974e+00   2.40635823e+00   1.98397250e+00
