32
Lattice="9.86 0 0 4.93 8.53901048131456 0 0 0 30 " PBC="1 1 1" Properties=species:S:1:pos:R:3:force:R:3 Energy="-256.72048805"
C     5.101584706000000e+00   6.694302599754369e+00  -3.341411999999977e-01 -2.80676021e+00   1.24169797e+00  -4.96449000e-03
C     6.274624074600000e+00   7.438739852268525e+00  -2.229863999999999e-01  1.22208718e+00   4.79397440e-01  -6.64266840e-01
C     7.520493100700000e+00   6.754123747743373e+00  -2.641892999999982e-01 -3.26802370e-01  -1.86611439e+00   5.37781670e-01
C     8.753080509600000e+00   7.400308669361608e+00  -2.859024000000012e-01  2.57426640e-01   9.23915240e-01   1.03342960e-01
C     9.973729036100000e+00   6.676753481586188e+00  -3.930954000000000e-01  1.78613020e-01   3.41256210e-01   1.09477750e-01
C     1.118056912560000e+01   7.415844374248711e+00  -4.742883000000013e-01  1.75594927e+00   4.04798400e-01   1.10102980e-01
C     1.243767066370000e+01   6.710833013972287e+00  -5.975570999999995e-01  7.34371110e-01   1.36962376e+00   1.20857383e+00
C     1.369665984950000e+01   7.456263353405266e+00  -4.124727000000021e-01 -3.09956180e-01  -6.63930060e-01  -7.28651030e-01
C     1.350035144000000e+00   3.292582668014640e-01  -2.927736000000003e-01 -8.79114000e-02   1.18057290e-01   1.11328600e-01
C     2.579456013900000e+00   1.041258124034929e+00  -2.978510999999990e-01  9.87023080e-01  -1.54881236e+00   4.95130190e-01
C     3.835301190800000e+00   2.878283541941808e-01  -1.961319000000010e-01 -1.90972264e+00  -9.17461300e-02  -8.86960440e-01
C     5.027809030800000e+00   9.710436340500896e-01  -1.980266999999998e-01  2.04509215e+00   2.22039581e+00  -6.40627210e-01
C     6.297934347099999e+00   3.190924894349192e-01  -3.379508999999992e-01 -1.53006043e+00  -8.27138830e-01  -2.09752610e-01
C     7.476735603899999e+00   1.095224328708110e+00  -4.135340999999997e-01  1.81298737e+00  -2.52792665e+00   4.60166050e-01
C     8.756418908399999e+00   3.667672365765408e-01  -3.674748000000001e-01 -1.24880860e+00  -1.01043638e+00  -7.03257860e-01
C     9.985209231299999e+00   1.062736638655692e+00  -3.422552999999979e-01  1.26335700e-02  -3.71026160e-01   7.77677880e-01
C     2.607959499100000e+00   2.442961457457321e+00  -3.580398000000002e-01  1.02304491e+00   5.03062260e-01   6.69872010e-01
C     3.866796693000000e+00   3.166966821865246e+00  -3.558723000000015e-01 -1.63181220e+00  -7.00635170e-01  -1.21053900e-02
C     5.062689766800000e+00   2.431042621239232e+00  -2.509797000000020e-01 -1.97566160e-01  -2.47092750e-01   7.08859680e-01
C     6.279898632300000e+00   3.154981039804995e+00  -1.282388999999995e-01 -4.35123920e-01   1.01641832e+00  -1.19226011e+00
C     7.487670393199999e+00   2.487287204688686e+00  -3.421631999999981e-01  3.02833060e-01  -5.30505780e-01   1.13075192e+00
C     8.715972646099999e+00   3.164100190657006e+00  -2.710659000000000e-01  1.38289625e+00   1.45449930e-01   8.99287000e-02
C     9.974018180600000e+00   2.466308392961213e+00  -2.191896000000000e-01  1.06263681e+00   7.17025650e-01  -7.75825520e-01
C     1.128134014970000e+01   3.167723634364088e+00  -2.366726999999997e-01 -3.00305199e+00  -4.03461630e-01  -8.31562250e-01
C     3.809781736000000e+00   4.580673442319374e+00  -4.439886000000008e-01  1.34655974e+00   1.87737310e-01   1.37613360e-01
C     5.063194746700000e+00   5.274728910589538e+00  -3.413588999999995e-01 -1.32121090e-01   5.58251170e-01   7.07750740e-01
C     6.286931030800000e+00   4.596135199375720e+00  -1.090316999999992e-01  8.67096100e-02  -7.07689270e-01  -1.11264397e+00
C     7.537446828400000e+00   5.307224371141493e+00  -2.006355000000006e-01 -1.51579001e+00   5.73551940e-01   1.75624700e-02
C     8.725717481299998e+00   4.573485388687415e+00  -2.647389000000011e-01  1.54306534e+00   3.31182280e-01   1.37145570e-01
C     1.000136424970000e+01   5.249375393012952e+00  -3.604352999999989e-01 -1.52451118e+00   8.14465360e-01   1.28858810e-01
C     1.122108559110000e+01   4.571709274507575e+00  -3.782084999999995e-01  1.24324154e+00   1.21691140e-01  -2.60145820e-01
C     1.245081143080000e+01   5.301479837231177e+00  -5.462045999999994e-01 -3.37172280e-01  -5.71461940e-01   3.81098390e-01
