32
Lattice="9.86 0 0 4.93 8.53901048131456 0 0 0 30 " PBC="1 1 1" Properties=species:S:1:pos:R:3:force:R:3 Energy="-252.90402776"
C     1.210139639900000e+00   9.982324411491432e-01   3.375432000000000e+00  1.27784361e+00  -4.02057465e+00   1.37355950e+00
C     2.504881481500000e+00   1.641286876135306e+00   3.201475200000000e+00 -3.18540368e+00   2.34981094e+00   3.36665030e-01
C     3.679511958300000e+00   1.018060706604542e+00   3.621689100000000e+00 -2.32818660e-01  -2.38346508e+00  -3.90881830e-01
C     4.918212863000000e+00   1.677272742611066e+00   3.607449000000000e+00 -1.33230833e+00   1.31030324e+00   4.97114360e-01
C     6.107530647900000e+00   1.000887731848004e+00   3.829644600000000e+00  2.06254122e+00  -2.83839638e+00  -1.10209303e+00
C     7.341773846599999e+00   1.673540682690677e+00   3.622408500000000e+00 -1.74515420e+00   2.85614696e+00   1.81883624e+00
C     8.544305263999998e+00   1.006275591290570e+00   3.562550700000000e+00  1.22019967e+00  -2.48726475e+00  -3.12547400e-01
C     9.825199475100000e+00   1.637715861952570e+00   3.406639200000000e+00 -2.55503600e-02   1.20593530e-01  -1.15904642e+00
C     2.423702129500000e+00   3.100878381744343e+00   2.911556400000000e+00 -1.16306699e+00  -9.56701290e-01   7.28986240e-01
C     3.642870423500000e+00   3.792006250271439e+00   3.004693200000000e+00  1.33139900e+00   1.83349895e+00   8.65974990e-01
C     4.844302007200000e+00   3.090651123502342e+00   3.464798400000000e+00  1.20058049e+00   2.07462319e+00  -3.76856290e-01
C     6.064758658099999e+00   3.875269970681710e+00   3.760374600000000e+00  2.31219710e-01  -5.06582340e-01  -1.15046628e+00
C     7.312611910599999e+00   3.147678904993022e+00   3.782433000000000e+00  4.31219120e-01  -1.92278993e+00  -1.73120979e+00
C     8.575458476300000e+00   3.752200799017871e+00   3.525544800000000e+00  1.26820100e-02   1.37400024e+00  -4.82242230e-01
C     9.821557141800000e+00   3.003438281525282e+00   3.158539200000000e+00 -2.55076878e+00   3.32785201e+00   1.77297353e+00
C     1.095090137810000e+01   3.817132288608839e+00   2.990755800000000e+00  3.51906717e+00  -5.27150040e-01   1.08224370e-01
C     3.658956372600000e+00   5.284595139468445e+00   2.989540800000000e+00  1.52547775e+00  -6.77001900e-02   2.68325496e+00
C     4.885493044600000e+00   6.035393442449571e+00   3.597202500000000e+00 -1.05515920e+00  -2.35150486e+00  -1.45568285e+00
C     6.127586479500000e+00   5.320036729416209e+00   3.748285800000000e+00 -7.70200900e-01  -4.58308040e-01   1.07480467e+00
C     7.403571741699999e+00   6.004092589463768e+00   4.023396600000000e+00 -3.10673050e-01  -4.66971600e+00  -2.34171883e+00
C     8.587677136199998e+00   5.197831791003050e+00   3.603320100000000e+00  6.43879070e-01   8.85345450e-01   2.75985170e+00
C     9.859104564099999e+00   5.912917646623988e+00   3.692405100000000e+00 -2.11475890e+00   5.49912070e-01  -1.21569535e+00
C     1.102569790840000e+01   5.254683498097633e+00   3.256960500000000e+00  4.44905110e-01  -1.01994240e+00  -1.14651721e+00
C     1.226525116080000e+01   5.988249907149910e+00   3.077934900000000e+00 -1.93098900e-02  -1.29537839e+00   2.27833222e+00
C     4.876018126899999e+00   7.445219851151482e+00   3.796495800000000e+00 -1.87172425e+00  -1.39534282e+00  -2.29908819e+00
C     6.118341743499999e+00   8.037172577920085e+00   3.747429900000000e+00  2.19141412e+00   3.94798980e+00   7.63917410e-01
C     7.411615233899999e+00   7.363661371134068e+00   4.064159699999999e+00 -2.74976298e+00   3.09059147e+00  -1.77223821e+00
C     8.566966600599999e+00   8.135203236103944e+00   3.918482100000000e+00  2.32310225e+00  -8.27179660e-01  -1.95464750e-01
C     9.807948468399999e+00   7.347178433814419e+00   3.859588200000000e+00  9.81286050e-01   1.12557135e+00  -3.28381800e-02
C     1.108358932080000e+01   8.050355700029844e+00   3.795244800000000e+00 -2.55612629e+00   1.02833890e+00   2.87606610e-01
C     1.226854977450000e+01   7.317274562943145e+00   3.610590300000000e+00  5.09032720e-01   1.57953834e+00  -1.94327497e+00
C     1.345663584820000e+01   8.108165996440910e+00   3.537637500000000e+00  1.77693740e+00   2.73880370e-01   1.75775997e+00
