26
Lattice="8.88768389401873 1.33226762955019e-15 0 4.44384194700937 7.69696003302603 0 0 0 30 " PBC="1 1 1" Properties=species:S:1:pos:R:3:force:R:3 Energy="-208.4604597"
C     1.263769146565252e+01   6.941043278784906e+00  -2.056910999999992e-01  1.06291576e+00  -3.66198269e+00  -9.60918700e-02
C     8.842494998882078e+00   6.711363374523295e+00  -9.241859999999846e-02  2.10714619e+00   2.18164312e+00  -7.93461050e-01
C     1.025519319726831e+01   6.312298395121483e+00  -1.717338000000019e-01 -9.64473480e-01   1.05373927e+00   9.79944970e-01
C     1.057649887796264e+01   4.952497094474264e+00  -1.161926999999991e-01  2.02527754e+00  -2.53795360e-01  -1.89982200e-02
C     6.500982018153968e+00   6.125528427270321e+00  -2.173233000000003e-01 -1.14884022e+00   5.55122730e-01  -1.18861140e-01
C     7.834829796051229e+00   5.761285495649032e+00  -1.056485999999985e-01  8.26731980e-01  -1.33563699e+00  -3.36103200e-02
C     8.186412971681582e+00   4.373224036555665e+00  -7.890659999999983e-02  2.23083215e+00   7.38573450e-01  -1.45010670e-01
C     9.583001132058683e+00   3.977203589693719e+00  -6.170700000000195e-02 -1.36196631e+00   7.38783400e-02  -2.05185410e-01
C     9.922659302289107e+00   2.621558570493099e+00  -1.186851000000004e-01 -7.85532970e-01  -3.11334563e+00  -1.07024850e+00
C     4.112754259897153e+00   5.474459665583887e+00  -2.135174999999983e-01  6.50466020e-01   2.79489821e+00   1.22378870e-01
C     5.513345077619336e+00   5.122130088697032e+00  -2.383050000000004e-01 -1.60031960e+00  -1.05008829e+00   4.12115160e-01
C     5.859789038912650e+00   3.727161993429545e+00  -1.727078999999989e-01 -1.21837942e+00   5.92263340e-01  -5.48606000e-01
C     7.243473215529145e+00   3.394050725132797e+00  -1.702980000000025e-01 -2.52757442e+00  -2.99645402e+00   5.22983680e-01
C     7.532630366000562e+00   1.948040701243966e+00  -1.553334000000000e-01  6.15688480e-01   1.80860779e+00  -3.34641500e-01
C     8.877227530913832e+00   1.555427082830499e+00  -2.137917000000016e-01  1.53905967e+00   1.74426790e+00   6.59247160e-01
C     3.096017753626794e+00   4.523853621312365e+00  -1.438866000000019e-01 -1.40856796e+00   6.65339400e-01  -5.28546760e-01
C     3.414921271120974e+00   3.166581849609404e+00  -2.353740000000002e-01  3.98795010e-01  -1.63349104e+00   3.12557080e-01
C     4.774759347406945e+00   2.726544104697495e+00  -2.110671000000011e-01  1.59267174e+00   3.03754154e+00  -6.32144600e-02
C     5.156019566109517e+00   1.402278129116779e+00  -2.000747999999994e-01 -1.26486446e+00  -1.72259229e+00   1.74567160e-01
C     6.511185031486859e+00   9.925651752094644e-01  -1.652057999999990e-01 -3.08305270e-01  -4.06254680e-01   3.08343400e-02
C     1.130547848832787e+01   7.302030396313506e+00  -1.476702000000003e-01 -1.86524299e+00   3.74564890e-01  -4.51870960e-01
C     2.390679293520398e+00   2.156264482756348e+00  -2.671349999999997e-01 -7.58318910e-01   3.34231927e+00   8.88042140e-01
C     2.732967684943274e+00   8.345581312336094e-01  -2.348973000000001e-01 -1.22168311e+00  -2.89201617e+00  -4.30420010e-01
C     4.078964126813728e+00   4.504773627093998e-01  -1.826459999999983e-01  1.36858377e+00  -2.19549511e+00   1.46536460e-01
C     3.435575980933376e-01   1.754280354293558e-01  -2.634311999999994e-01 -6.23309810e-01   1.31578990e+00   5.48193900e-02
C     6.115107980575249e+00   7.485584728203334e+00  -2.873312999999982e-01  2.63921062e+00   9.82603120e-01   5.34740460e-01
