26
Lattice="8.88768389401873 1.33226762955019e-15 0 4.44384194700937 7.69696003302603 0 0 0 30 " PBC="1 1 1" Properties=species:S:1:pos:R:3:force:R:3 Energy="-206.22146722"
C     1.244380428606717e+01   6.496523286169126e+00  -1.962918000000009e-01 -3.26612349e+00  -2.10087263e+00   5.42849360e-01
C     8.495237368915449e+00   6.238761715964463e+00  -4.293420000000125e-02  1.84529985e+00  -2.42715890e+00  -3.92314160e-01
C     9.915743042072453e+00   5.810081605272822e+00  -8.067000000000135e-02  4.36914450e-01   2.85073433e+00   1.64344890e-01
C     1.026540989976797e+01   4.463746521046088e+00  -1.971114000000007e-01  6.87990730e-01  -8.02337570e-01   6.84910660e-01
C     6.148738353108410e+00   5.686456958720577e+00  -1.759515000000000e-01  9.06291160e-01  -4.19868925e+00   4.14436120e-01
C     7.463445703752506e+00   5.161348947925093e+00  -4.540919999999815e-02  2.18290554e+00   3.16412162e+00  -1.56120858e+00
C     7.858268972426711e+00   3.792896879960956e+00  -2.758469999999988e-01 -1.62563553e+00   2.60833484e+00   1.37813232e+00
C     9.195177268737645e+00   3.471347523203672e+00  -1.951761000000012e-01  2.22863907e+00   2.11482945e+00  -2.71754730e-01
C     9.583304600854394e+00   2.175017741021442e+00  -9.026879999999693e-02  1.70146793e+00  -2.52834210e+00  -1.20471526e+00
C     3.862185743007660e+00   5.060086279348008e+00  -2.631282000000006e-01 -4.16670155e+00   1.03279102e+00   2.29903860e-01
C     5.143238323315387e+00   4.623949199840101e+00  -2.877317999999995e-01  2.00690074e+00   4.28882682e+00   1.38166850e+00
C     5.495278503723694e+00   3.347231040905510e+00  -2.616809999999958e-02  5.91623210e-01  -3.47849226e+00  -3.18368553e+00
C     6.809098863542606e+00   2.863744957229054e+00  -2.437919999999991e-01  1.24780081e+00  -2.94552200e-02   7.58241700e-01
C     7.180360837788532e+00   1.499190706793710e+00  -2.473851000000025e-01  2.18837366e+00   9.87367600e-01   5.72363190e-01
C     8.597106887409108e+00   1.169490808151857e+00  -2.058399000000009e-01 -3.30074320e-01  -1.75227036e+00   6.62450710e-01
C     2.796761526715399e+00   4.067528416250572e+00  -1.897886999999976e-01 -5.28663610e-01   1.56966289e+00  -3.32741920e-01
C     3.194975046844529e+00   2.693944400186433e+00  -1.759422000000015e-01 -4.18024570e+00   2.52959597e+00  -7.45497390e-01
C     4.500306024436478e+00   2.379031054488613e+00  -2.891547000000010e-01  2.09047418e+00  -4.52256648e+00   2.50204899e+00
C     4.833423259203211e+00   9.211304588670374e-01  -1.539260999999996e-01  5.18004000e-02   1.11893193e+00  -7.07996100e-01
C     6.216159964242094e+00   5.318034423863798e-01  -7.938629999999947e-02 -2.14131931e+00  -1.31322542e+00  -4.35531220e-01
C     1.101116945734914e+01   6.861961401743874e+00  -1.354320000000087e-02  8.68215700e-02  -2.05070569e+00  -1.35840431e+00
C     2.103057533718079e+00   1.814549706477266e+00  -1.453001999999977e-01  8.29574100e-02  -4.12799823e+00   1.43520867e+00
C     2.489423193469610e+00   3.597238924484752e-01   1.806900000000000e-02 -4.18836997e+00   1.19929683e+00  -1.82863997e+00
C     8.213257334217886e+00   7.628956849347748e+00  -1.634241000000003e-01  2.50406863e+00   2.97796850e-01   1.51912539e+00
C     4.558435346516307e+00   7.453999713933028e+00  -1.535286000000013e-01 -1.40725778e+00   1.94312686e+00  -1.56796980e-01
C     5.879139839673087e+00   7.012370160717313e+00  -6.232470000000134e-02  9.94061940e-01   3.62669710e+00  -6.63981900e-02
