32
Lattice="9.86 0 0 4.93 8.53901048131456 0 0 0 30 " PBC="1 1 1" Properties=species:S:1:pos:R:3:force:R:3 Energy="-253.02525789"
C     4.927446407900000e+00   8.462094574590457e+00   1.791300000000000e-02 -2.09215830e-01  -2.79587832e+00  -1.41294912e+00
C     1.227101452800000e+00   6.424386015503456e-01  -7.738379999999978e-02  6.16700670e-01  -1.82480406e+00   1.32998473e+00
C     7.314072275199999e+00   8.324582947551271e+00   6.468510000000000e-02  4.07965585e+00   6.79335740e+00  -1.89740051e+00
C     3.757200032200000e+00   5.873778665138384e-01  -1.682798999999982e-01 -2.47739300e+00  -9.90633630e-01   5.65980440e-01
C     9.924351832299999e+00   8.410699978313433e+00  -2.674929000000006e-01 -1.77875830e+00   2.36911406e+00  -8.22641500e-02
C     6.206802360399999e+00   6.402157263421919e-01  -2.922827999999988e-01 -6.04374700e-01  -1.33300019e+00   2.26199470e-01
C     1.231252567030000e+01   8.415169467178874e+00  -3.660917999999995e-01  2.40250190e+00  -1.94659387e+00  -5.94694050e-01
C     8.610157147399999e+00   5.306607342244208e-01  -1.197836999999993e-01  5.09260100e-01   2.53978140e+00   4.82510450e-01
C     1.324039056800000e+00   2.060574235960240e+00  -2.920101000000024e-01 -1.48378052e+00  -5.34133140e-01  -1.36835270e+00
C     2.529093007300000e+00   2.716521125139422e+00  -6.764915999999985e-01 -3.17038390e-01  -1.44094160e-01   1.17618209e+00
C     3.739196461000000e+00   1.999498109600992e+00  -3.996725999999988e-01  1.17411827e+00   2.31242680e-01  -4.54494900e-01
C     4.996371850499999e+00   2.747805156274579e+00  -3.947403000000023e-01 -1.62504474e+00  -3.78158990e-01   2.27378880e-01
C     6.225659363899999e+00   2.069378895056273e+00  -1.353374999999986e-01 -1.71791623e+00  -1.22953216e+00  -5.42602350e-01
C     7.428872008700000e+00   2.728135033293269e+00   3.123030000000000e-02  2.09535490e+00   8.19908290e-01  -6.51237420e-01
C     8.656946249099999e+00   1.967489884987026e+00  -1.054140000000103e-02  1.02842881e+00   2.18450201e+00  -1.29446256e+00
C     9.939936153900000e+00   2.757991000315751e+00  -3.455252999999985e-01 -1.92733452e+00  -4.33798510e-01   1.66248289e+00
C     2.474768844300000e+00   4.117780088456435e+00  -9.769019999999990e-01 -5.95754670e-01   6.05492180e-01   5.00391090e-01
C     3.690987174200000e+00   4.842861026624421e+00  -8.124293999999992e-01  1.15755989e+00   9.34532300e-02  -4.20917200e-02
C     4.869153200500000e+00   4.166970595348361e+00  -5.264844000000011e-01  3.98900622e+00  -7.08530320e-01   1.34422811e+00
C     6.132370650100000e+00   4.908931022482688e+00  -1.941654000000028e-01  1.56926547e+00  -2.64233625e+00  -9.00736000e-02
C     7.466657254199999e+00   4.162311113499739e+00  -1.893420000000035e-02 -3.26321162e+00  -2.42261290e-01  -7.76313150e-01
C     8.653723409500000e+00   4.860844438865615e+00  -2.190422999999981e-01  8.92301420e-01   1.93112478e+00  -5.82385870e-01
C     9.897504038299999e+00   4.230784499247706e+00  -5.018558999999989e-01 -5.68983440e-01  -3.55247517e+00  -3.18887470e-01
C     1.106434205850000e+01   4.848065980462504e+00  -9.856352999999984e-01  8.02031210e-01   2.31492148e+00   1.77840623e+00
C     3.866509865600000e+00   6.246760251981850e+00  -6.650385000000014e-01 -4.39109093e+00   1.24960977e+00   2.63223220e-01
C     4.934156532299999e+00   6.953751296447956e+00  -1.212204000000021e-01  2.66216771e+00   2.27897166e+00  -5.50938350e-01
C     6.213930400900000e+00   6.289520798592232e+00  -6.485729999999990e-02 -2.27996161e+00  -5.07368650e-01  -2.97569500e-02
C     7.430876990400000e+00   6.994088130323695e+00   2.475000000000000e-03 -5.98103890e-01  -2.29798923e+00  -9.00166300e-02
C     8.641230789500000e+00   6.306266139703930e+00  -2.673875999999993e-01 -2.13368940e-01  -7.53717320e-01   7.09979940e-01
C     9.826471020700000e+00   7.028584964151952e+00  -4.356839999999984e-01  3.40429292e+00  -1.22123189e+00  -1.02072734e+00
C     1.107897178420000e+01   6.349602557181083e+00  -8.339691000000009e-01  2.07824797e+00  -2.18245152e+00   8.36796500e-02
C     1.246955346670000e+01   6.963530000469442e+00  -7.676121000000009e-01 -4.40956198e+00   2.30750975e+00   1.44902167e+00
