32
Lattice="9.86 0 0 4.93 8.53901048131456 0 0 0 30 " PBC="1 1 1" Properties=species:S:1:pos:R:3:force:R:3 Energy="-251.77977744"
C     9.762341284899998e+00   5.071179138201176e-01   3.989337000000000e+00  7.68121740e-01  -4.39066204e+00  -1.60909133e+00
C     1.197309660000000e+00   1.113102369559981e+00   4.161461400000000e+00 -2.11016955e+00   1.65270314e+00   3.61763330e-01
C     2.398760667900000e+00   4.144949255831384e-01   3.828456600000000e+00 -9.96818430e-01  -1.80926174e+00  -6.50676900e-01
C     3.627761403200000e+00   1.064796162593363e+00   3.771596100000000e+00  1.62532531e+00  -1.93530740e-01   4.68050250e-01
C     4.929318673999999e+00   4.295431383619376e-01   3.627410100000000e+00 -2.61415778e+00  -4.12431322e+00   8.12569900e-02
C     6.120408350199999e+00   1.084144877220205e+00   3.834924000000000e+00 -1.34839249e+00   1.74512433e+00  -2.51619330e-01
C     7.302766996400000e+00   3.787503715435440e-01   4.086746100000000e+00 -1.47391980e-01  -5.85804530e-01  -2.11570862e+00
C     8.469875969399999e+00   1.090390821825906e+00   3.991918500000000e+00  4.10392676e+00   2.70754043e+00   2.75460922e+00
C     1.100597071060000e+01   2.528593472424219e+00   4.589037600000000e+00  1.00228603e+00  -1.01129732e+00  -1.28195778e+00
C     2.444802529500000e+00   3.204179744146981e+00   4.515854699999999e+00 -2.03042674e+00  -4.27756330e-01  -3.99223490e-01
C     3.635357300700000e+00   2.411051516853980e+00   4.067699699999999e+00 -1.42496304e+00   4.04999558e+00   1.19067714e+00
C     4.800706658099999e+00   3.168838316792148e+00   3.933831900000000e+00  2.89525177e+00   3.00797085e+00  -2.02646193e+00
C     6.045512036700000e+00   2.517201663932956e+00   3.715197300000000e+00  1.99028039e+00  -8.82502200e-02   2.40274394e+00
C     7.335201022700000e+00   3.254144226948815e+00   3.945147900000000e+00 -2.15290391e+00  -3.20752960e-01  -1.79441957e+00
C     8.515844472600000e+00   2.523449743291277e+00   4.273932300000000e+00 -5.53129300e-01   1.20789090e-01  -9.58929960e-01
C     9.719008359700000e+00   3.241013448973300e+00   4.569708300000000e+00  1.36717024e+00   1.03206910e-01  -1.81447165e+00
C     1.220565184850000e+01   4.625328624575058e+00   4.576271700000000e+00  2.98295965e+00   2.33940840e+00  -3.25816933e+00
C     3.638723356799999e+00   5.384047799067537e+00   3.996356400000000e+00 -3.81416280e-01  -1.87970334e+00   1.65831860e+00
C     4.893174231100000e+00   4.745532787442647e+00   3.753396900000000e+00 -1.68575284e+00  -3.27129132e+00   4.59444980e-01
C     6.095551438100000e+00   5.454587625351665e+00   3.386435400000000e+00  3.31147660e-01  -3.74230037e+00   1.03276494e+00
C     7.364978863599999e+00   4.615992326686540e+00   3.544827300000000e+00 -1.31359964e+00   1.40021403e+00   1.72585239e+00
C     8.569798096800000e+00   5.333944301175089e+00   3.781408200000000e+00 -6.36203210e-01   8.14366700e-02  -5.96073080e-01
C     9.762912129600000e+00   4.672913028985802e+00   4.246648800000000e+00 -8.16502470e-01  -1.94489330e-01   6.93182820e-01
C     1.096207665280000e+01   5.432783005920671e+00   4.363987499999999e+00  1.50037942e+00  -3.94056827e+00   8.07928480e-01
C     1.358459532930000e+01   6.762659684179599e+00   3.908570100000000e+00 -3.78904761e+00   3.00405706e+00  -8.78987900e-02
C     4.875037204800000e+00   7.517538011758175e+00   3.626983500000000e+00 -7.68763170e-01   2.72215061e+00   1.20092667e+00
C     6.076327593300000e+00   6.861942246689931e+00   3.348328800000000e+00 -3.52776350e-01  -4.70117100e-01   9.79556630e-01
C     7.268630788999999e+00   7.546162995029859e+00   3.491799600000000e+00  2.78743760e+00   1.12432620e-01   1.23322060e-01
C     8.499233675699999e+00   6.739779234818229e+00   3.557351100000000e+00  2.61170191e+00   2.24768798e+00   9.67135600e-02
C     9.825031411399999e+00   7.436284886755526e+00   3.599124000000000e+00 -1.58593042e+00   2.01067027e+00   1.90255447e+00
C     1.100077330740000e+01   6.778382308006109e+00   4.092593700000000e+00  1.20937254e+00   2.45654040e+00  -1.88004374e+00
C     1.229131577500000e+01   7.543118154672901e+00   4.028657100000000e+00 -4.67015810e-01  -3.31182956e+00   7.85079040e-01
