32
Lattice="9.86 0 0 4.93 8.53901048131456 0 0 0 30 " PBC="1 1 1" Properties=species:S:1:pos:R:3:force:R:3 Energy="-256.73749769"
C     1.240827953200000e+00   6.547139414559744e-01   3.591356100000000e+00  8.93629420e-01   3.17491897e+00   6.36438030e-01
C     2.482133426200000e+00   1.424497538777914e+00   3.540328500000000e+00 -5.69824230e-01  -1.01035971e+00  -5.78517350e-01
C     3.703122812900000e+00   6.931598968510216e-01   3.553331700000000e+00  2.16710840e-01   2.64875870e-01   5.69233040e-01
C     4.927445175400000e+00   1.398755154664067e+00   3.634046400000000e+00  1.04061709e+00   3.54561020e-01  -1.08688533e+00
C     6.179438986999999e+00   6.741323344083328e-01   3.565405500000000e+00 -2.49733240e-01   1.86748089e+00   1.16191758e+00
C     7.429114318200000e+00   1.376938324448086e+00   3.701393400000000e+00 -2.83266840e-01   5.01157500e-01  -3.53146720e-01
C     8.647632148000000e+00   6.906013531408992e-01   3.722770200000000e+00  1.46157048e+00   1.08642085e+00  -2.42468580e-01
C     9.923481342199999e+00   1.454317129615750e+00   3.660606300000000e+00 -2.14164103e+00  -2.34198045e+00   9.04343600e-02
C     2.487249336500000e+00   2.846517142104636e+00   3.381274200000000e+00  4.95921150e-01  -2.95000730e-01   4.50934320e-01
C     3.749962447100000e+00   3.541201679276861e+00   3.354732600000000e+00 -8.47041510e-01   3.47168280e-01   6.47669690e-01
C     4.962465923400000e+00   2.848079695632372e+00   3.562977600000000e+00 -8.15942670e-01  -1.86885015e+00  -9.25661400e-02
C     6.186534883899999e+00   3.513484392819201e+00   3.662445300000000e+00  1.19855397e+00  -8.21892600e-02   1.07015190e-01
C     7.461154289600000e+00   2.800358240103424e+00   3.722327100000000e+00 -2.38572273e+00   9.23850980e-01  -4.55762970e-01
C     8.608695205200000e+00   3.587391150935592e+00   3.619136700000000e+00  2.75624768e+00  -1.16974125e+00   5.39797440e-01
C     9.891408044000000e+00   2.851822856266384e+00   3.607543500000000e+00 -3.73910750e-01   1.33468927e+00  -5.48083440e-01
C     1.112129923590000e+01   3.570879522540730e+00   3.432624600000000e+00 -4.48246550e-01  -7.82516680e-01   9.17032000e-03
C     3.751926460500000e+00   4.980437379363045e+00   3.370323600000000e+00 -1.68968253e+00  -1.70528518e+00  -2.03947500e-02
C     4.925182453300000e+00   5.633069510063996e+00   3.584741400000000e+00  2.57472906e+00   2.46011837e+00   3.47744660e-01
C     6.172498927400000e+00   4.916212663669507e+00   3.685161900000000e+00  4.74107300e-01   1.23166732e+00  -3.35877550e-01
C     7.414810268300000e+00   5.654135419698366e+00   3.690012300000000e+00 -1.46210897e+00   2.51675001e+00   3.19025610e-01
C     8.636856006100000e+00   5.024513360537871e+00   3.606536700000000e+00  1.21333652e+00  -1.88027737e+00  -3.45401360e-01
C     9.911152053100000e+00   5.695888790022631e+00   3.465263700000000e+00 -1.58618145e+00   9.12094560e-01   6.96517840e-01
C     1.110022683830000e+01   4.974498497574205e+00   3.370893600000000e+00  2.02965319e+00   8.33400120e-01  -2.05897670e-01
C     1.239005544190000e+01   5.696887000347743e+00   3.322998000000000e+00 -1.67809820e+00  -6.15044040e-01   1.10494640e-01
C     4.940569229799999e+00   7.100391808811100e+00   3.679020900000000e+00  9.43562200e-02  -1.43068772e+00  -2.63161400e-02
C     6.165289098200000e+00   7.805451072936316e+00   3.718923600000000e+00  2.77040040e-01  -2.73449610e-01  -2.27597660e-01
C     7.406912260400000e+00   7.136626758222562e+00   3.723510300000000e+00 -3.19895300e-02  -2.79570571e+00  -5.58666470e-01
C     8.640254353700000e+00   7.797400750026087e+00   3.609093300000000e+00  7.32802400e-02   1.32466447e+00   1.69334700e-01
C     9.898705430000000e+00   7.140942544899364e+00   3.549542100000000e+00 -1.10510280e+00  -2.11375931e+00  -5.17203730e-01
C     1.109563957190000e+01   7.830295921658610e+00   3.507751500000000e+00  2.30838221e+00  -1.09772043e+00  -4.77205760e-01
C     1.238164323500000e+01   7.094596382398325e+00   3.407725800000000e+00 -1.31044247e+00   1.25369860e+00   1.15541977e+00
C     1.358799303600000e+01   7.824261488342499e+00   3.659551500000000e+00 -1.29199920e-01  -9.24949500e-01  -9.39155580e-01
