26
Lattice="8.88768389401873 1.33226762955019e-15 0 4.44384194700937 7.69696003302603 0 0 0 30 " PBC="1 1 1" Properties=species:S:1:pos:R:3:force:R:3 Energy="-208.85271667"
C     8.069409060504571e-01   9.178851126399882e-01   3.485896500000000e+00 -3.79039470e-01   6.62553990e-01  -2.08950710e-01
C     3.187219074631219e+00   3.056655251913750e-01   3.635482800000000e+00 -5.00399310e-01   1.77210270e-01  -4.30336980e-01
C     4.542701075394726e+00   7.032469155474051e-01   3.530628900000000e+00  2.50285840e-01  -1.79112410e-01  -5.25056390e-01
C     9.988874283467810e+00   7.393435876058571e+00   3.311546100000000e+00  3.47064830e-01   9.01238540e-01   5.06171240e-01
C     6.919940767057248e+00   1.089673255671157e-01   3.258253200000000e+00  6.93752530e-01  -1.41292330e+00  -8.27203900e-02
C     1.244997171677035e+01   6.837332361161478e+00   3.258321300000000e+00 -1.81084084e+00  -3.27301000e-03   1.40568780e-01
C     4.909544098361525e+00   7.268070869873942e+00   3.391411800000000e+00 -2.72872920e-01  -2.01780112e+00  -2.66344020e-01
C     5.906937448140668e+00   6.258997331761735e+00   3.380106300000000e+00  9.44551610e-01  -1.43660208e+00   3.92982960e-01
C     7.297136119740575e+00   6.612022482926500e+00   3.500000100000000e+00 -1.42359112e+00   5.91356220e-01  -4.65598240e-01
C     8.271226806689864e+00   5.602577104675244e+00   3.340415400000000e+00  1.52963902e+00   9.61849380e-01   4.87641560e-01
C     9.645685345732018e+00   6.032349490964743e+00   3.292670400000000e+00  3.01860550e-01  -1.06395033e+00   1.60111170e-01
C     1.070725612763522e+01   5.046990132765764e+00   3.306051900000000e+00 -6.95252410e-01   7.43662350e-01  -4.83968200e-01
C     3.180074135584130e+00   5.458533115889812e+00   3.256749600000000e+00  1.59439057e+00  -1.05841912e+00   4.69478410e-01
C     4.227214073989728e+00   4.408132290288524e+00   3.321278400000000e+00 -8.89096530e-01   2.59907744e+00   2.68732690e-01
C     5.600242673563461e+00   4.826578445954678e+00   3.309198600000000e+00 -1.15483679e+00   1.14310910e+00  -1.92504440e-01
C     6.605127096598427e+00   3.836436658610659e+00   3.257138400000000e+00  1.25849600e-01   2.70597650e-01   6.12788230e-01
C     7.962949357843403e+00   4.230897932279328e+00   3.317196000000000e+00 -3.08177970e-01  -2.02059600e-02  -7.59347440e-01
C     8.984688340179799e+00   3.257464474859632e+00   3.303699000000000e+00  6.03500770e-01  -3.40358100e-02   3.76403330e-01
C     1.035106388622563e+01   3.678427228577195e+00   3.362399100000000e+00  5.85243990e-01  -9.25993540e-01   9.17905220e-01
C     2.499516359877161e+00   2.689024041517655e+00   3.620484600000000e+00 -1.28674166e+00   6.81454990e-01  -1.24520404e+00
C     3.844082862790702e+00   3.081026367365540e+00   3.526096800000000e+00  1.47573201e+00  -9.85640880e-01  -3.41595130e-01
C     4.886450470488303e+00   2.082315554420122e+00   3.465122100000000e+00  1.09431810e-01   1.25004210e-01   5.58216100e-02
C     6.257744771845821e+00   2.469449168201030e+00   3.284770500000000e+00 -3.75682970e-01  -8.24942870e-01   1.10119470e-01
C     7.280591026250206e+00   1.450686081046256e+00   3.242683800000000e+00  1.97235180e-01   1.90717006e+00   5.00717340e-01
C     8.664784378766250e+00   1.871091959705648e+00   3.336467700000000e+00 -9.06654360e-01   3.06430960e-01  -1.37217130e-01
C     2.145054906030568e+00   1.323940625080247e+00   3.633056400000000e+00  1.24464806e+00  -1.10781474e+00   1.39401090e-01
