32
Lattice="9.72 0 0 4.86 8.41776692478474 0 0 0 30 " PBC="1 1 1" Properties=species:S:1:pos:R:3:force:R:3 Energy="-257.6214325"
C     8.994016520041249e-04   1.999329366743202e-04   2.999462578625903e+00 -7.32679600e-02  -4.79707900e-02   1.36225600e-02
C     1.214236764293979e+00   7.012645503762532e-01   2.999070222579537e+00  8.08513600e-02   1.85569900e-02   3.63874000e-03
C     2.430449474048829e+00  -1.516051250270495e-04   3.000136637260168e+00 -4.26878200e-02   2.91113200e-02  -8.90807000e-03
C     3.644677005181535e+00   7.012433257864138e-01   2.999059688902687e+00  2.07747400e-02   4.70529500e-02   1.23002400e-02
C     4.859871284956430e+00   2.076316331218168e-04   2.999178623802343e+00  6.87547000e-03  -4.10679400e-02   1.03753800e-02
C     6.075050346654969e+00   7.010578813019102e-01   3.000484022558205e+00 -2.58101400e-02   6.19735300e-02  -7.58737000e-03
C     7.289675338753868e+00   8.173900550865141e-04   2.999954663352091e+00  3.99670300e-02  -5.80606200e-02   1.24405100e-02
C     8.505040100584122e+00   7.011963840168468e-01   3.001209024376982e+00  1.40788800e-02   2.49267300e-02  -1.26536900e-02
C     1.215034614106452e+00   2.104585230652804e+00   2.998868712936504e+00  2.10567600e-02  -2.86174800e-02   8.01077000e-03
C     2.430534429964073e+00   2.805730346882267e+00   2.999846752354460e+00 -5.99120800e-02   4.55287700e-02  -5.96265000e-03
C     3.644469532831708e+00   2.105414397837664e+00   3.000412157835800e+00  4.31857300e-02  -8.30106400e-02  -1.15327200e-02
C     4.859893247063687e+00   2.805411532819377e+00   3.000062740081219e+00  1.51964700e-02   5.04844800e-02   8.69364000e-03
C     6.075143958209449e+00   2.105037770907412e+00   3.000797881396183e+00  9.78090000e-04  -6.70998100e-02  -6.30058000e-03
C     7.290786577518179e+00   2.804894759238887e+00   3.000352014830977e+00 -6.03843700e-02   1.11485940e-01   1.11591500e-02
C     8.504536495933097e+00   2.104500667725766e+00   3.001113164380208e+00  8.38294400e-02  -3.60323200e-02  -5.51480000e-03
C     9.720931178322799e+00   2.805425207754610e+00   3.000030073651962e+00 -7.51073400e-02   6.81386200e-02   2.96080000e-04
C     2.429000546874973e+00   4.209227834048915e+00   2.999106781945519e+00  6.79982100e-02  -5.12370200e-02   5.55980000e-03
C     3.645647560529429e+00   4.909335523101458e+00   2.999589436489155e+00 -5.57509200e-02   3.86446100e-02   7.58278000e-03
C     4.860437039356856e+00   4.208905850175461e+00   3.000377005120799e+00 -3.04199000e-03  -3.08873700e-02  -8.49635000e-03
C     6.075248152469484e+00   4.910896342032610e+00   2.999793982742066e+00 -1.77415000e-02  -2.54252300e-02   3.39007000e-03
C     7.289748596158954e+00   4.209673550074547e+00   3.000516500761391e+00  1.52395400e-02  -7.45171600e-02  -7.93459000e-03
C     8.504022987279717e+00   4.911195474306094e+00   2.999856195243086e+00  2.76794200e-02  -2.32070600e-02   3.96880000e-04
C     9.719693793863572e+00   4.209888694634278e+00   3.000116100580725e+00 -2.64013200e-02  -8.46968800e-02  -4.99422000e-03
C     1.093439720754875e+01   4.909215801135307e+00   2.999286205238061e+00  7.98529000e-03   1.19653960e-01  -2.72245000e-03
C     3.645220851428391e+00   6.312507866801626e+00   3.000818735438328e+00  9.97825000e-03   2.42422400e-02  -8.23697000e-03
C     4.860668743705850e+00   7.014001541393000e+00   3.000648796220159e+00 -4.24840500e-02   4.42145500e-02  -1.00402300e-02
C     6.074599939013236e+00   6.313258120618691e+00   2.999307606421708e+00  7.51151200e-02   2.43643300e-02   1.36072600e-02
C     7.291001388418417e+00   7.015435645246956e+00   3.000429044099144e+00 -9.75122600e-02  -2.60516900e-02  -1.47480400e-02
C     8.503836944363721e+00   6.313716118202909e+00   2.999014488204611e+00  9.39226300e-02  -6.38365000e-03   1.65042400e-02
C     9.720804725044580e+00   7.013864750826985e+00   3.000162395950745e+00 -9.41263100e-02   7.94426100e-02  -2.00832800e-02
C     1.093420934139087e+01   6.314031367697156e+00   2.998866849201037e+00  1.00338970e-01  -7.60552000e-02   1.21780000e-02
C     1.215071920997313e+01   7.015266103227101e+00   2.999980184962768e+00 -5.08233400e-02  -2.75007900e-02  -4.04011000e-03
