32
Lattice="9.86 0 0 4.93 8.53901048131456 0 0 0 30 " PBC="1 1 1" Properties=species:S:1:pos:R:3:force:R:3 Energy="-256.76339673"
C     9.614235802500000e+00   1.877331084394366e+00   3.845856300000000e+00 -1.03200839e+00   1.02885239e+00  -4.86210090e-01
C     1.084402228120000e+01   2.583345607621979e+00   3.751880400000000e+00  7.31389060e-01  -2.87942210e-01  -4.89645310e-01
C     2.205316341900000e+00   1.865821522948583e+00   3.624527100000000e+00  1.26853339e+00   9.79719430e-01   2.41567270e-01
C     3.482796182900000e+00   2.590357586857841e+00   3.532786500000000e+00 -1.78184428e+00   3.17378520e-01   6.17618430e-01
C     4.692584757500000e+00   1.877904564338202e+00   3.545646900000000e+00 -1.47608020e-01   3.50536630e-01   6.22101860e-01
C     5.915379608800000e+00   2.592524019206722e+00   3.617419800000000e+00 -1.14715388e+00   2.53337637e+00   5.73176770e-01
C     7.115177784899999e+00   1.941921355126553e+00   3.730362300000000e+00  1.87147043e+00  -2.86996682e+00  -3.85490850e-01
C     8.350375382299999e+00   2.571050542602141e+00   3.850989600000000e+00  1.50412012e+00   3.05494584e+00  -6.21878450e-01
C     1.089776529580000e+01   3.989101555418179e+00   3.635445900000000e+00 -2.46037704e+00  -5.93509170e-01   4.58979990e-01
C     1.207649156730000e+01   4.705486536093543e+00   3.573862200000000e+00  1.40726167e+00   1.64551722e+00   2.46987190e-01
C     3.468910049100000e+00   4.020856342201098e+00   3.622452000000000e+00 -3.81364700e-02  -5.12711780e-01  -6.41789600e-01
C     4.696219547899999e+00   4.746415208785650e+00   3.681902700000000e+00 -9.99193940e-01  -3.14830000e-04  -8.80005900e-02
C     5.920247293600000e+00   4.062869042273642e+00   3.730821000000000e+00 -3.09172700e-01  -2.08305772e+00  -5.30179780e-01
C     7.136221292699999e+00   4.758920931194030e+00   3.772139400000000e+00  1.68022880e+00  -7.91749100e-01   4.87636800e-02
C     8.387257698299999e+00   4.061363187775494e+00   3.760439400000000e+00 -7.78235610e-01  -3.41618496e+00   5.14407160e-01
C     9.635474045299999e+00   4.659702240482089e+00   3.683041500000000e+00  7.13773120e-01   3.26371442e+00   2.80428260e-01
C     1.205763900080000e+01   6.155731497001486e+00   3.564658800000000e+00  1.10328411e+00   6.17487430e-01   8.58815200e-02
C     1.332208106240000e+01   6.887951304101067e+00   3.577822800000000e+00 -8.77320860e-01  -9.62978320e-01  -2.03873460e-01
C     4.662223993400000e+00   6.159074178043987e+00   3.657069300000000e+00  2.13140762e+00   2.95723480e-01   6.89746000e-02
C     5.961418512400000e+00   6.845442743689951e+00   3.700803000000000e+00 -2.07342719e+00   6.84726130e-01   5.22235020e-01
C     7.191678221800000e+00   6.147001041906525e+00   3.788850600000000e+00 -9.28317540e-01   1.28436810e+00  -5.64519380e-01
C     8.415171111799999e+00   6.866840479271572e+00   3.751174200000000e+00  3.47559080e-01  -7.94943970e-01   2.61758040e-01
C     9.640163855699999e+00   6.127307265866186e+00   3.721111500000000e+00 -5.02619400e-02   5.82111600e-01  -5.69249040e-01
C     1.084642057830000e+01   6.915712395682490e+00   3.622129500000000e+00  2.88407490e-01  -2.12540595e+00   6.76431600e-02
C     1.336401031800000e+01   8.303578177231937e+00   3.561240300000000e+00 -2.87862544e+00   6.66685410e-01   6.64435300e-01
C     9.600909371600000e+00   4.893435365554736e-01   3.711747300000000e+00  2.30146949e+00  -1.74571968e+00   2.64109810e-01
C     5.909334590699999e+00   8.266724064170573e+00   3.753610500000000e+00  9.29888060e-01   1.14989996e+00  -6.97511620e-01
C     2.223644307100000e+00   4.719042300620648e-01   3.696496200000000e+00 -3.34233400e-02  -1.76057240e+00   2.78265000e-01
C     8.418279427500000e+00   8.287408963157324e+00   3.717631200000000e+00 -1.97202437e+00   5.66126900e-02   8.15371500e-02
C     4.667395662000000e+00   4.704448277809280e-01   3.699418500000000e+00  2.17493176e+00   1.98034800e-01  -1.06614573e+00
C     1.086686085130000e+01   8.330473413150688e+00   3.622636200000000e+00 -1.13989120e-01  -2.58139900e-02   2.40236470e-01
C     7.182628615200000e+00   5.046879676078240e-01   3.600789000000000e+00 -8.32604080e-01  -7.38819530e-01   2.05387200e-01
