26
Lattice="8.88768389401873 1.33226762955019e-15 0 4.44384194700937 7.69696003302603 0 0 0 30 " PBC="1 1 1" Properties=species:S:1:pos:R:3:force:R:3 Energy="-208.97482158"
C     1.269253220810609e+01   6.979593041277560e+00  -1.499850000000009e-01 -7.78465410e-01  -2.98252450e-01  -4.75260100e-02
C     8.933312730200759e+00   6.727963408219996e+00  -3.431594999999987e-01 -3.46764050e-01  -1.73103760e-01  -1.46790320e-01
C     1.028321322053629e+01   6.345636392038623e+00  -2.742699000000002e-01  4.23071930e-01  -6.74568050e-01  -7.30352000e-02
C     1.062787209053212e+01   4.968860985437244e+00  -2.789222999999978e-01  6.01262220e-01  -5.70940580e-01   1.58631080e-01
C     6.531408026322071e+00   6.150029082559415e+00  -2.327264999999983e-01  2.74397200e-02   1.33066301e+00  -3.08811470e-01
C     7.898226978398164e+00   5.772032914878121e+00  -3.892415999999983e-01 -3.85070950e-01  -2.09925147e+00   8.93867410e-01
C     8.226900593435870e+00   4.350887997335806e+00  -3.372692999999991e-01  1.08150860e-01   8.71748560e-01  -1.69533990e-01
C     9.614775668468802e+00   3.948422347053540e+00  -3.608904000000024e-01 -9.60311890e-01   2.90141750e+00   4.30964040e-01
C     9.936094103013474e+00   2.625512344921309e+00  -2.894837999999993e-01  1.16773786e+00  -2.70291798e+00   4.30522100e-02
C     4.131629567519363e+00   5.603742732302186e+00  -9.932249999999954e-02 -1.03635710e-01  -6.32045860e-01  -2.60710000e-04
C     5.484606396301227e+00   5.195344034319994e+00  -1.086483000000023e-01  9.86483140e-01  -5.08368330e-01  -2.17132500e-01
C     5.834416390118092e+00   3.806367714557461e+00  -9.239999999999782e-02  7.59952600e-02  -3.70777400e-01  -1.34596240e-01
C     7.189369617582789e+00   3.363787201930041e+00  -2.049605999999997e-01  7.15093330e-01   2.20022577e+00  -2.94093000e-02
C     7.571311299439378e+00   2.026823166539832e+00  -1.804743000000002e-01 -1.09030810e+00  -1.77022466e+00  -4.53633910e-01
C     8.925090952713553e+00   1.628472849876805e+00  -2.650457999999993e-01  2.03900290e-01   1.72192180e-01   4.26652820e-01
C     3.124980937921952e+00   4.576849500206924e+00  -1.265447999999978e-01 -1.17419737e+00   1.28390901e+00  -1.29262530e-01
C     3.446935064032852e+00   3.216984622669857e+00  -7.331669999999946e-02  8.35778800e-02  -1.38738182e+00  -6.23785200e-01
C     4.826965691510876e+00   2.814646895863288e+00  -5.791169999999823e-02 -9.91026460e-01  -5.50427700e-01  -1.73016620e-01
C     5.153747785241370e+00   1.419173572139431e+00  -1.530389999999997e-01  6.08172810e-01  -1.99163640e-01  -2.62201310e-01
C     6.523324407867220e+00   1.029427687093941e+00  -1.922703000000006e-01  8.46760900e-02   2.86476300e-02   4.46092080e-01
C     1.128211330066414e+01   7.335972912471401e+00  -1.860143999999977e-01  1.82776918e+00   8.07522180e-01  -1.98025300e-01
C     2.415770513879963e+00   2.193104981335139e+00  -2.112738000000007e-01  1.34789023e+00   1.73849051e+00   3.21389430e-01
C     2.827971604246961e+00   8.449633436197652e-01  -2.361450000000005e-01 -2.06174762e+00  -1.25562736e+00  -2.86826500e-01
C     4.161174180666444e+00   3.794543567589775e-01  -2.748074999999979e-01  1.30381930e-01   2.84790274e+00   5.65846160e-01
C     4.110801322809871e-01   2.599314971763201e-01  -1.957260000000005e-01 -1.06649210e+00  -5.94437700e-02  -1.75046810e-01
C     6.210274900046131e+00   7.564729797286214e+00  -2.401898999999972e-01  5.66416910e-01  -9.30224260e-01   1.42398670e-01
