2
Lattice="2.503 0 0 1.2515 2.16766158567245 0 0 0 30 " PBC="1 1 1" Properties=species:S:1:pos:R:3:force:R:3 Energy="-16.09990559"
C     0.000000000000000e+00   0.000000000000000e+00   3.000000000000000e+00  0.00000000e+00  -0.00000000e+00   0.00000000e+00
C     1.251500000000000e+00   7.225538618908166e-01   3.000000000000000e+00  0.00000000e+00   0.00000000e+00  -0.00000000e+00
