32
Lattice="9.86 0 0 4.93 8.53901048131456 0 0 0 30 " PBC="1 1 1" Properties=species:S:1:pos:R:3:force:R:3 Energy="-250.96968774"
C     5.201728190399999e+00   7.579660508461641e+00  -3.628140000000002e-01 -7.35352690e-01  -2.64994392e+00   6.84613250e-01
C     6.394015412899999e+00   8.283478968974009e+00  -2.054682000000021e-01  1.46963134e+00  -1.08554880e+00  -1.13123034e+00
C     7.642519326799999e+00   7.597292540421583e+00  -2.689839000000021e-01 -1.94021960e-01  -3.17868199e+00   1.58465465e+00
C     8.842752328900000e+00   8.304361460663268e+00  -1.111643999999998e-01  2.18458191e+00   4.64073130e-01  -9.43227970e-01
C     1.010495454360000e+01   7.667260167613446e+00  -1.489605000000012e-01  5.91540020e-01  -5.03736129e+00   1.34659522e+00
C     1.136618830910000e+01   8.316265353613018e+00  -1.369413000000002e-01 -1.26492012e+00  -4.47843330e-01  -2.72946410e-01
C     1.257907573380000e+01   7.563368418026220e+00  -1.366893000000005e-01  1.40225356e+00  -1.08228048e+00  -6.92853770e-01
C     1.385191452210000e+01   8.341580104082025e+00  -3.333374999999990e-01 -3.04143621e+00  -4.02845021e+00   2.98406420e-01
C     1.451313760900000e+00   1.137027396073369e+00   6.138000000000001e-04  5.16729788e+00  -2.81944762e+00   9.44598260e-01
C     2.759033630300000e+00   1.762340499765446e+00   3.155235000000000e-01 -2.62601854e+00   4.07936792e+00  -8.83497500e-01
C     3.980086170300000e+00   1.214357528881297e+00   1.734960000000000e-02 -1.53841404e+00  -2.91873256e+00   8.53595900e-02
C     5.169252752100000e+00   1.928807996732417e+00  -7.112070000000159e-02  1.22527814e+00  -1.62601274e+00   1.75050734e+00
C     6.378546305400000e+00   1.199041703514054e+00  -1.358199000000013e-01  8.43707830e-01  -7.90073170e-01  -1.38277003e+00
C     7.591182102900000e+00   1.890115007764183e+00  -2.481948000000003e-01  1.37386490e+00  -4.82958480e-01   1.06642638e+00
C     8.837818582099999e+00   1.187298941692063e+00  -3.162713999999980e-01  7.71841140e-01  -1.76053537e+00   6.71641860e-01
C     1.011831942850000e+01   1.695914854120687e+00  -1.862700000000217e-03 -3.84367089e+00   4.80196876e+00  -4.64317910e-01
C     2.797707508300000e+00   3.255066610860865e+00   5.085546000000000e-01 -5.23115781e+00  -2.86626789e+00   1.91763200e-02
C     3.972057616000000e+00   3.879581573243376e+00   5.563911000000000e-01  3.62629403e+00   4.78033845e+00  -9.85408350e-01
C     5.242352179199999e+00   3.265399411272399e+00   2.930724000000000e-01 -2.98081159e+00  -1.84444460e-01  -8.82001760e-01
C     6.399499199799999e+00   3.959021353980493e+00   2.692590000000000e-02  1.95321421e+00  -1.44727597e+00   1.20925718e+00
C     7.607453863699999e+00   3.250130379682586e+00  -2.425829999999962e-02  2.75332882e+00   1.70542851e+00  -9.08081060e-01
C     8.982639205500000e+00   3.975330607826978e+00   3.888179999999999e-02 -4.35143136e+00  -6.70746915e+00   3.02935660e-01
C     1.007041358320000e+01   3.062778768614365e+00   1.815558000000000e-01  3.70700985e+00   7.03050753e+00   1.09864211e+00
C     1.135288273210000e+01   3.957778842565548e+00   4.503492000000000e-01 -6.78475220e-01  -3.00150417e+00  -7.22831750e-01
C     3.992552414800000e+00   5.368013586748613e+00   3.708927000000000e-01 -3.73593560e-01   8.65095280e-01  -3.86017230e+00
C     5.220941583599999e+00   6.028136137442619e+00  -2.383899000000014e-01 -1.93646320e+00   1.72799320e+00   3.04810697e+00
C     6.452397113800000e+00   5.303737380821880e+00  -7.220699999999880e-02 -5.38680270e-01   5.48809492e+00  -1.11020578e+00
C     7.657782508199999e+00   6.082502309366683e+00  -1.365549000000001e-01  8.86875420e-01  -2.38933200e-02   2.06060610e-01
C     8.896912815899999e+00   5.293017934015812e+00   9.892260000000000e-02  1.37655804e+00   7.01386173e+00  -1.23516669e+00
C     1.017794575720000e+01   6.061291407334363e+00   7.711290000000000e-02 -5.87744922e+00   4.28800039e+00  -6.27000320e-01
C     1.128691681780000e+01   5.391211004179000e+00   3.220437000000000e-01  5.20129144e+00  -1.60134286e+00  -8.38734190e-01
C     1.258320598920000e+01   6.066840056344267e+00   3.662910000000000e-02  6.77328180e-01   1.49533798e+00   2.62346431e+00
