32
Lattice="9.7 0 0 4.85 8.40044641670905 0 0 0 30 " PBC="1 1 1" Properties=species:S:1:pos:R:3:force:R:3 Energy="-257.46774509"
C     3.301365502210900e-03   1.555495921324285e-03   3.002937402236630e+00 -1.95687370e-01  -6.57320000e-03  -3.24335100e-02
C     1.212703380288831e+00   7.012794897029885e-01   2.999631330322333e+00  1.11920490e-01  -1.42713200e-01   4.35902000e-03
C     2.423646168159745e+00  -4.783397064078692e-04   2.999619631499785e+00  1.80160970e-01   6.16108000e-03   1.37400700e-02
C     3.639264767948789e+00   6.985671368790931e-01   2.999595870990735e+00 -1.48341550e-01   1.13255450e-01   2.88105000e-03
C     4.850074768772443e+00   3.006055919968096e-04   3.001851874099553e+00 -4.94396000e-03  -1.04922600e-01  -3.46223500e-02
C     6.059119530801929e+00   7.007262158869613e-01   2.998817239274122e+00  3.26183470e-01  -9.00151900e-02   6.03501400e-02
C     7.277733558532050e+00  -3.266984852854613e-03   3.003099187886437e+00 -2.84957270e-01   3.17714250e-01  -3.59380600e-02
C     8.487535806039933e+00   6.971650356905227e-01   3.000902795603918e+00  1.37573910e-01   7.46698000e-02  -6.17270000e-04
C     1.216768132154737e+00   2.096525415605778e+00   2.998409135078349e+00 -1.73484640e-01   3.43336730e-01   5.38012100e-02
C     2.425546285250030e+00   2.801984084151622e+00   3.003432466289455e+00  1.67662710e-01  -2.44190120e-01  -8.17089800e-02
C     3.640961086370780e+00   2.101113435351149e+00   2.999034658965861e+00 -2.05999100e-01  -8.60257500e-02   3.48726400e-02
C     4.848522089781868e+00   2.802218347257205e+00   3.001602699604564e+00  2.41952330e-01  -1.55831690e-01  -1.73589900e-02
C     6.063793506349335e+00   2.099295113091546e+00   3.002667055165255e+00 -1.08711840e-01   8.33265100e-02  -2.71352600e-02
C     7.276676934410355e+00   2.798694526847390e+00   3.001132258293540e+00  2.00924600e-02  -2.92809600e-02  -3.63017900e-02
C     8.489570952739346e+00   2.096275663194394e+00   2.996336027266423e+00  3.84134500e-02   2.05990870e-01   6.19120300e-02
C     9.703760002610045e+00   2.801445025656509e+00   3.001961330204643e+00 -8.69293300e-02  -1.71916460e-01  -5.72092800e-02
C     2.428455608302679e+00   4.197431194511998e+00   2.997698207624546e+00 -2.27740310e-01   3.16383290e-01   9.93217000e-02
C     3.639045814407843e+00   4.900755490312210e+00   3.002626102996101e+00  3.97079600e-02   4.08763000e-02  -7.60799600e-02
C     4.850591823288461e+00   4.198816922703998e+00   2.999538860313091e+00  3.85881500e-02   2.12115150e-01   5.50611400e-02
C     6.064137290844612e+00   4.901800404956740e+00   3.003456552366931e+00 -6.56570300e-02  -9.67493300e-02  -6.40500400e-02
C     7.276322464050437e+00   4.199031174887785e+00   2.997801315117027e+00 -3.05762800e-02   4.10219600e-02   4.58422500e-02
C     8.487819914234887e+00   4.900276938175383e+00   2.998123538863123e+00 -2.63228100e-02  -5.02438800e-02   4.08256000e-03
C     9.700567458811124e+00   4.202592277061610e+00   3.001357359885379e+00  5.39127900e-02  -1.26499180e-01   1.21198600e-02
C     1.091204342989837e+01   4.901660709302366e+00   3.004432416903876e+00  1.70678340e-01  -3.32342600e-02  -7.13132100e-02
C     3.641099537296272e+00   6.303309727137877e+00   2.998249299351788e+00 -2.61210390e-01  -1.07826060e-01   5.41480100e-02
C     4.848833192124849e+00   7.003765751060047e+00   3.000505964114359e+00  2.08721870e-01  -8.36014000e-02   2.63059000e-03
C     6.061337375496612e+00   6.301606376526612e+00   3.000283093173580e+00  1.08828980e-01  -1.19395000e-02   3.45043700e-02
C     7.277427328300965e+00   6.999469515353022e+00   3.002472479136264e+00 -1.80252010e-01   3.87484200e-02  -3.94359800e-02
C     8.487331767554045e+00   6.298167158097894e+00   2.998848620115757e+00  1.36880480e-01   1.22276600e-01   2.30239900e-02
C     9.703007164564125e+00   6.999186491804680e+00   3.000547539371983e+00 -2.80621310e-01   8.51763000e-02  -1.86241000e-03
C     1.091060688946763e+01   6.302837152129531e+00   3.000041940756931e+00  2.74100180e-01  -1.28689820e-01   3.78293300e-02
C     1.212580201976710e+01   7.004278873048627e+00   3.002170474849851e+00  2.60566300e-02  -3.30800090e-01  -2.44128600e-02
