32
Lattice="9.86 0 0 4.93 8.53901048131456 0 0 0 30 " PBC="1 1 1" Properties=species:S:1:pos:R:3:force:R:3 Energy="-252.20661465"
C     4.910737849100000e+00   8.210393578275688e+00   1.758087000000000e-01  1.20025608e+00   7.08459480e-01  -5.76806980e-01
C     1.220815308400000e+00   4.068165619694176e-01   2.164239000000000e-01  9.39792250e-01   2.10464203e+00  -8.86742540e-01
C     7.387615402300000e+00   8.288519034519725e+00   2.468058000000000e-01  1.45917820e+00  -1.11008778e+00  -1.11166379e+00
C     3.699971556900000e+00   4.603897159902040e-01  -4.889909999999986e-02 -2.40971700e-02  -6.64141860e-01   1.63584690e+00
C     9.897029328600000e+00   8.244250498658575e+00   4.103700000000000e-02  6.57464320e-01   3.42587965e+00  -1.18447641e+00
C     6.222884217600000e+00   4.401019663808768e-01   4.104390000000000e-02  1.41605790e-01  -5.43751330e-01   9.08611900e-02
C     1.236783903780000e+01   8.316093121771635e+00   7.395000000000000e-04 -4.20858530e-01  -3.87133738e+00  -7.38459480e-01
C     8.642832990199999e+00   4.690910530594288e-01   1.392798000000000e-01  1.20563501e+00  -3.61051475e+00   2.57440200e-01
C     1.329174095500000e+00   1.883477805698289e+00  -9.190590000000043e-02 -2.01477634e+00   8.92111900e-02   6.44669500e-02
C     2.533638023600000e+00   2.666622136547970e+00  -3.450191999999994e-01 -7.69378100e-02  -2.63635095e+00   1.01021900e-02
C     3.776302401800000e+00   1.922059189799549e+00  -2.299556999999979e-01 -1.96040459e+00  -3.74342045e+00   4.70364160e-01
C     5.012167866299999e+00   2.462937277013813e+00  -1.605519000000015e-01  2.95491513e+00   3.84494277e+00  -7.33052920e-01
C     6.381715605199999e+00   1.813804005857043e+00   5.270670000000000e-02 -5.94570350e+00   2.09438141e+00   5.80398980e-01
C     7.500007126600000e+00   2.611502994679779e+00   2.939277000000000e-01  1.19989110e-01  -1.81078870e+00  -1.39670379e+00
C     8.724886381899999e+00   1.807722437203082e+00   2.757864000000000e-01  1.19206180e-01   5.86728470e+00  -1.43846287e+00
C     9.912612467000001e+00   2.589959925139787e+00  -1.155333000000027e-01  8.46414400e-01  -7.85873030e-01   1.75910827e+00
C     2.518168521700000e+00   4.018700412835107e+00  -6.926279999999991e-01  2.76478700e-01   9.82255230e-01   2.66885430e-01
C     3.871410334899999e+00   4.744632092617216e+00  -6.747876000000019e-01 -5.27001714e+00  -2.79068809e+00   2.97199350e-01
C     4.953194565400000e+00   3.923345197414843e+00  -3.402510000000021e-01  2.44728084e+00   9.89796320e-01   1.63709819e+00
C     6.114557130400000e+00   4.674904667790157e+00   1.028217000000000e-01  1.55695405e+00   1.36024870e-01  -1.23029437e+00
C     7.358960960500000e+00   4.018033516116620e+00   1.444518000000000e-01  3.43219259e+00  -4.62017470e-01   1.85943990e-01
C     8.656100507599998e+00   4.721912262042975e+00  -8.590590000000020e-02 -2.28326155e+00   2.08760572e+00   1.41865179e+00
C     9.868202090299999e+00   4.043279100600739e+00  -2.286068999999991e-01  1.12627677e+00  -1.73932755e+00  -1.53153736e+00
C     1.109089168610000e+01   4.723513924238709e+00  -6.681242999999988e-01  9.05505920e-01  -2.10943135e+00   9.81212460e-01
C     3.710306808900000e+00   6.115673547208025e+00  -4.848272999999992e-01  3.59254370e+00   2.20609650e+00   2.00173572e+00
C     4.976034910300000e+00   6.787293875513351e+00  -2.618429999999705e-02 -1.08533135e+00   1.17880156e+00   1.81022000e-02
C     6.241809994600001e+00   6.107113103811720e+00   1.846929000000000e-01 -4.37954403e+00  -1.39903952e+00  -9.77306760e-01
C     7.425839615000000e+00   6.797587054916258e+00   2.684583000000000e-01  7.90609030e-01   3.76465578e+00  -8.53171200e-02
C     8.635158064799999e+00   6.205477381135032e+00   1.756050000000000e-02  4.09080064e+00  -2.92041094e+00  -9.24085200e-01
C     1.001155682750000e+01   6.900105987788614e+00  -1.564064999999992e-01 -4.37235263e+00  -3.88395908e+00  -6.05578920e-01
C     1.115573888480000e+01   6.094260868358062e+00  -6.261732000000002e-01 -1.05117760e+00   4.76199891e+00   2.94056416e+00
C     1.235426502230000e+01   6.856193614054584e+00  -3.466719000000005e-01  1.02136351e+00  -1.60895860e-01  -1.19549361e+00
