2
Lattice="2.513 0 0 1.2565 2.17632183971029 0 0 0 30 " PBC="1 1 1" Properties=species:S:1:pos:R:3:force:R:3 Energy="-16.08195791"
C     0.000000000000000e+00   0.000000000000000e+00   3.000000000000000e+00 -0.00000000e+00   0.00000000e+00  -0.00000000e+00
C     1.256500000000000e+00   7.254406132367646e-01   3.000000000000000e+00  0.00000000e+00   0.00000000e+00   0.00000000e+00
