26
Lattice="8.88768389401873 1.33226762955019e-15 0 4.44384194700937 7.69696003302603 0 0 0 30 " PBC="1 1 1" Properties=species:S:1:pos:R:3:force:R:3 Energy="-206.57383137"
C     1.242332720099748e+00   1.465162831349081e+00   3.673686000000000e+00 -1.54732440e+00   3.87622521e+00  -9.35474930e-01
C     3.580081054956797e+00   9.288799891340422e-01   3.728043300000000e+00 -2.10786390e+00  -1.33667239e+00  -7.10888350e-01
C     4.920594285154690e+00   1.260546230154759e+00   3.808429500000000e+00 -8.34489410e-01   1.97753614e+00  -1.80182030e-01
C     5.897084513461526e+00   2.857444841505299e-01   3.840776700000000e+00  1.91249158e+00  -3.19535931e+00   6.30591970e-01
C     7.274213534823039e+00   6.245866779768157e-01   3.804927900000000e+00  1.53786035e+00   2.08372838e+00  -1.29154590e-01
C     1.284455675234591e+01   7.420863146459872e+00   3.812819100000000e+00 -1.43926973e+00  -1.42889040e-01  -1.11153956e+00
C     8.738910284271787e-01   1.865227414949990e-01   3.615184200000000e+00 -8.39259470e-01  -6.67785202e+00   1.16641697e+00
C     6.295108997648459e+00   6.754044249403251e+00   3.644618400000000e+00  8.95060300e-02   3.74488897e+00  -3.72635440e-01
C     7.643489339076544e+00   7.210834273881255e+00   3.661566600000000e+00  1.52119980e-01  -1.09997252e+00   9.73985750e-01
C     8.556363925692882e+00   6.112062518728235e+00   3.845850000000000e+00  5.30956274e+00   2.85445598e+00  -4.99933630e-01
C     1.007753159601616e+01   6.532036597929944e+00   3.921659700000000e+00 -3.23367399e+00   2.53580261e+00  -3.88578650e-01
C     1.117105808986581e+01   5.672183793010546e+00   3.890210100000000e+00 -3.66911806e+00  -3.49957213e+00  -1.06747221e+00
C     3.601293071205353e+00   6.009473740907581e+00   3.766200300000000e+00  2.86006312e+00   1.83870672e+00   5.54742640e-01
C     4.628851797819826e+00   5.020747501482679e+00   3.684197700000000e+00 -1.19586177e+00   2.41390220e-01  -2.97530540e-01
C     5.983516087214023e+00   5.398298400026238e+00   3.670962300000000e+00 -8.41234490e-01  -4.78097790e-01  -9.91165610e-01
C     6.971973804048138e+00   4.388546990644188e+00   3.544338900000000e+00 -2.38270760e-01  -3.67730460e-01   1.78802465e+00
C     8.296100589288649e+00   4.755171361698759e+00   3.734925300000000e+00  1.68444894e+00  -3.20710990e-01  -1.48425490e-01
C     9.385286116047322e+00   3.761387526807745e+00   3.788382300000000e+00 -2.46148870e-01   2.11953205e+00  -1.28487416e+00
C     1.077465187843328e+01   4.240343025871343e+00   3.714809400000000e+00 -1.17145590e+00   9.70943500e-01   2.26884050e+00
C     2.912578623645064e+00   3.296502532496589e+00   3.826467900000000e+00 -1.98663353e+00   2.53060460e-01  -2.43563355e+00
C     4.222214395810656e+00   3.663696016775778e+00   3.621102000000000e+00  2.34285793e+00   2.72593800e-01   1.74620991e+00
C     5.191901057644755e+00   2.663458357869209e+00   3.750201900000000e+00  4.07153779e+00  -6.28454790e-01  -5.66270650e-01
C     6.664897436808232e+00   3.025582624272640e+00   3.709874700000000e+00 -4.18627666e+00   5.12411350e-01  -8.94159400e-01
C     7.631202112747807e+00   2.052620143837180e+00   3.698721000000000e+00  9.55760590e-01  -2.64755850e+00   3.18900080e-01
C     9.007581191346844e+00   2.397869595070838e+00   3.644693400000000e+00  1.73252876e+00   1.02622231e+00   1.03482987e+00
C     2.562482266891175e+00   1.972934979068996e+00   3.629588100000000e+00  8.88143150e-01  -3.91262776e+00   1.53137644e+00
