32
Lattice="9.86 0 0 4.93 8.53901048131456 0 0 0 30 " PBC="1 1 1" Properties=species:S:1:pos:R:3:force:R:3 Energy="-257.46000455"
C     9.860632124600000e+00   2.779161000487872e-01   3.565003800000000e+00 -1.09378256e+00   5.54632140e-01   9.75423060e-01
C     1.198670438600000e+00   1.022638897073394e+00   3.658650900000000e+00  1.08117967e+00  -1.58993750e-01  -5.75792000e-01
C     2.447447326600000e+00   3.226943294454880e-01   3.644721600000000e+00 -2.78931090e-01  -1.34770280e+00   4.07579450e-01
C     3.695583068100000e+00   9.778486276719160e-01   3.605132700000000e+00 -1.13284028e+00   2.17508166e+00  -2.40212970e-01
C     4.905960876299999e+00   2.674760496656248e-01   3.542631600000000e+00  1.89681960e-01   7.99491180e-01   1.00160855e+00
C     6.114716172200000e+00   1.009925164369722e+00   3.624535800000000e+00  6.17591130e-01   1.50603100e-01  -2.75150360e-01
C     7.348314526899999e+00   3.110007523238616e-01   3.597845700000000e+00  9.95330910e-01  -3.40700800e-01   4.58428170e-01
C     8.618537062800000e+00   9.952215006637903e-01   3.628966800000000e+00 -8.08115980e-01   4.23361440e-01  -4.29886210e-01
C     1.107368209140000e+01   2.441566439315203e+00   3.620274000000000e+00 -8.27913410e-01  -1.07754990e-01  -1.00313060e-01
C     2.444279357900000e+00   3.140923779192399e+00   3.572150100000000e+00  1.02316560e-01  -1.99535630e-01  -8.86260900e-02
C     3.655665301800000e+00   2.455002743085693e+00   3.586544100000000e+00  1.48987713e+00  -2.06446076e+00   5.46916000e-02
C     4.897007749799999e+00   3.168013533769884e+00   3.603527400000000e+00 -5.40723270e-01  -8.21525740e-01   2.45057080e-01
C     6.121580654900000e+00   2.439698530772703e+00   3.676733700000000e+00 -5.74370340e-01  -3.62146750e-01  -7.37849110e-01
C     7.334847590999999e+00   3.140036832173842e+00   3.625254300000000e+00  1.78218793e+00   7.01784600e-02   4.20601590e-01
C     8.596165462300000e+00   2.429457183163410e+00   3.643354800000000e+00 -1.61748310e-01  -3.98393310e-01  -2.74384670e-01
C     9.829391059699999e+00   3.142150493437956e+00   3.602630400000000e+00 -1.68948030e-01   7.61680500e-02   1.33276190e-01
C     1.235019230000000e+01   4.545794829332556e+00   3.504210000000000e+00 -2.46372547e+00   1.05162533e+00   6.66863780e-01
C     3.641097546200000e+00   5.314667826576909e+00   3.569341200000000e+00  2.43287451e+00  -1.22902025e+00  -1.76330380e-01
C     4.893817201700000e+00   4.566356510398083e+00   3.610718100000000e+00  2.70240820e-01   1.71059690e+00  -2.03955910e-01
C     6.148985193800000e+00   5.277054510093766e+00   3.628785900000000e+00 -3.99522420e-01  -3.03996500e-02   4.20974370e-01
C     7.381837590200000e+00   4.566277353770933e+00   3.618791100000000e+00 -6.06604120e-01  -2.81209100e-02  -4.47912300e-02
C     8.619079264200000e+00   5.283758487221614e+00   3.591973500000000e+00 -9.14488140e-01  -4.18625570e-01   3.15609440e-01
C     9.818916239400000e+00   4.562573984925756e+00   3.581917800000000e+00  2.03022203e+00   9.20216200e-02  -2.21827140e-01
C     1.110520766660000e+01   5.255308041324141e+00   3.546895800000000e+00 -1.33603330e+00   7.04321500e-02  -1.47146970e-01
C     1.351489355960000e+01   6.729799266319730e+00   3.571920600000000e+00  8.46354010e-01  -7.11193740e-01   2.12033840e-01
C     4.908450181200000e+00   7.398707775676818e+00   3.600145200000000e+00  2.51805090e-01   5.26657360e-01   1.73411700e-01
C     6.146546322799999e+00   6.705624302969592e+00   3.702100800000000e+00 -6.02309110e-01  -6.44009490e-01  -6.64328540e-01
C     7.360530524600000e+00   7.414870243933152e+00   3.711399600000000e+00  8.02529680e-01   5.93522880e-01  -5.68362310e-01
C     8.600572339999999e+00   6.693490710637931e+00   3.635385000000000e+00 -5.76784700e-02   7.39671300e-01   1.09799430e-01
C     9.834013230499998e+00   7.405620702391111e+00   3.607340100000000e+00  4.22983100e-01  -1.12459890e+00  -5.45918330e-01
C     1.108092450790000e+01   6.679646839897232e+00   3.556353600000000e+00 -1.89319630e-01   2.69056100e-01   4.49487150e-01
C     1.230465867210000e+01   7.417730385493428e+00   3.609385500000000e+00 -1.15812061e+00   6.84083370e-01  -7.49970100e-01
