32
Lattice="9.86 0 0 4.93 8.53901048131456 0 0 0 30 " PBC="1 1 1" Properties=species:S:1:pos:R:3:force:R:3 Energy="-257.50574395"
C     9.857469085900000e+00   2.606832668287848e-01  -1.575986999999976e-01  2.96968600e-02   4.30847130e-01   4.42485700e-02
C     1.217116033600000e+00   9.754043359220160e-01  -1.575573000000006e-01  1.07946993e+00   3.19368170e-01   4.37217830e-01
C     2.481093442700000e+00   2.811133617428136e-01  -1.090470000000003e-01 -1.11197662e+00   2.49829480e-01  -1.05028640e-01
C     3.703759867500000e+00   9.949753209916520e-01  -7.212960000000024e-02  2.90673420e-01  -7.67639020e-01  -3.72525470e-01
C     4.934387601400000e+00   3.022785800690656e-01  -1.220862000000018e-01  1.16311485e+00  -1.21178440e+00   6.78572660e-01
C     6.202020704100000e+00   9.994827230636247e-01  -7.549769999999967e-02 -1.44486299e+00  -1.09597420e-01  -8.46900840e-01
C     7.407169803600000e+00   2.839236354818864e-01  -1.500780000000006e-01 -6.39715300e-02  -2.23138330e-01   3.74042640e-01
C     8.624439160199998e+00   9.888174135840000e-01  -1.487906999999993e-01  8.42734650e-01  -3.40565940e-01  -6.37980900e-02
C     1.109886403840000e+01   2.406880807965234e+00  -1.212102000000002e-01  4.53751150e-01  -6.58474380e-01  -6.09327170e-01
C     2.485346257900000e+00   3.102385175533644e+00  -1.604285999999995e-01 -5.78879400e-01   1.17622254e+00   6.68111350e-01
C     3.704933108900000e+00   2.387775028186548e+00  -9.274110000000135e-02  7.72615380e-01   1.78407119e+00  -3.66573570e-01
C     4.955588770599999e+00   3.130575437781792e+00  -1.252598999999996e-01  3.43389200e-02  -1.80892486e+00   1.00288960e-01
C     6.225563031699999e+00   2.417224367529972e+00  -1.313169000000016e-01 -2.14595138e+00  -1.73163320e-01   2.95174910e-01
C     7.424498359200000e+00   3.110596544181527e+00  -1.499516999999990e-01  2.79015750e-01   1.77983829e+00   1.87125680e-01
C     8.646346206799999e+00   2.403190418415987e+00  -1.369244999999992e-01 -1.59891790e-01  -1.84254260e-01  -2.10418020e-01
C     9.872437502599999e+00   3.096769324511262e+00  -1.511861999999979e-01  5.06446600e-02   9.44065200e-01   1.87998940e-01
C     1.233019735390000e+01   4.571278396038755e+00  -1.348818000000023e-01  3.94271520e-01  -1.92675352e+00   4.37914400e-02
C     3.696393609399999e+00   5.255704592970832e+00  -1.138286999999991e-01  9.35471200e-01   7.87054790e-01  -4.75824560e-01
C     4.944958852499999e+00   4.517792254534759e+00  -1.390989000000005e-01 -1.03028167e+00   1.42770686e+00   2.84906160e-01
C     6.161968841799999e+00   5.243081886118877e+00  -1.123706999999996e-01  2.08134000e-02   7.05931260e-01  -5.47454210e-01
C     7.386268969999999e+00   4.572871006883378e+00  -1.271051999999990e-01  6.98501110e-01  -2.08258086e+00   8.03433100e-02
C     8.617963999599999e+00   5.245960215771476e+00  -9.760110000000211e-02  1.15490835e+00   5.28881670e-01  -2.01890820e-01
C     9.856455280699999e+00   4.516977803715177e+00  -1.426175999999977e-01  4.99482270e-01   1.03876808e+00   3.78657100e-01
C     1.110774602500000e+01   5.262586181516664e+00  -1.037387999999986e-01 -1.03479575e+00  -4.42060510e-01  -2.14538930e-01
C     1.357938545320000e+01   6.713993728701459e+00  -1.587081000000019e-01 -1.10089248e+00  -2.18432426e+00   4.08632360e-01
C     4.935527861100000e+00   7.379410038942542e+00  -1.387022999999985e-01  8.73754260e-01   6.52834860e-01  -5.06397310e-01
C     6.167906878900000e+00   6.663780504524343e+00  -1.717481999999997e-01  3.55082890e-01   8.81574020e-01   7.55839050e-01
C     7.401139427600000e+00   7.419671558745847e+00  -1.149021000000019e-01  8.05547980e-01  -2.10173648e+00  -5.57914800e-02
C     8.671368618999999e+00   6.673642293117799e+00  -7.419660000000050e-02 -1.62243674e+00   4.85966450e-01  -3.43096770e-01
C     9.893564278099999e+00   7.380586373026266e+00  -1.060611000000016e-01 -3.66375760e-01   1.34087286e+00   2.40118720e-01
C     1.112683113960000e+01   6.683195567262615e+00  -8.568570000000264e-02 -4.84451510e-01  -6.99908200e-02  -3.78960350e-01
C     1.233961976710000e+01   7.406946981498865e+00  -1.451039999999999e-01  4.10879060e-01  -2.48844480e-01   1.33456550e-01
