32
Lattice="9.86 0 0 4.93 8.53901048131456 0 0 0 30 " PBC="1 1 1" Properties=species:S:1:pos:R:3:force:R:3 Energy="-256.97373671"
C     9.868444104000000e+00   1.595136683924784e-01   3.818826600000000e+00 -2.03819864e+00   1.57519768e+00   3.50133330e-01
C     1.196879517500000e+00   9.085714648674664e-01   3.875516700000000e+00  1.66083097e+00  -2.98967420e-01   1.33209150e-01
C     2.454203940900000e+00   1.787866419963624e-01   3.763237800000000e+00 -3.07611350e-01   9.17704410e-01  -6.54121600e-02
C     3.682220352400000e+00   9.234659754576257e-01   3.779962800000000e+00 -5.81042010e-01  -5.21317370e-01   3.24512120e-01
C     4.913824472800000e+00   1.929215222142208e-01   3.734147400000000e+00 -7.04774730e-01  -5.58259810e-01  -8.43023000e-03
C     6.133953130800000e+00   8.843122214838912e-01   3.755421000000000e+00 -3.46619200e-01   1.43132278e+00   4.70470720e-01
C     7.349601897800000e+00   2.501515074730672e-01   3.850483200000000e+00  1.71010369e+00  -3.06103138e+00   2.12446200e-02
C     8.604380370599999e+00   8.775949234996944e-01   3.906135000000000e+00  5.93054100e-01   2.40797489e+00  -4.11153290e-01
C     1.105926405990000e+01   2.328528640992954e+00   4.070462400000000e+00  2.90075290e-01  -4.01442930e-01  -4.53232590e-01
C     2.449416812300000e+00   3.054591309195827e+00   4.065771300000000e+00 -4.84924020e-01  -1.47501993e+00  -3.22994180e-01
C     3.654002018399999e+00   2.352092638143248e+00   3.919508400000000e+00  1.82548202e+00  -1.32117268e+00  -3.61458630e-01
C     4.940775106600000e+00   3.015184032000941e+00   3.825150600000000e+00 -1.78367597e+00   9.92036940e-01  -3.49867400e-02
C     6.158104855700000e+00   2.292786392486190e+00   3.783195000000000e+00 -4.70904790e-01   1.41605611e+00  -1.63653300e-01
C     7.368967825200000e+00   3.054324465118326e+00   3.808366800000000e+00  3.45376290e-01  -7.45733550e-01  -3.48148650e-01
C     8.599136132400000e+00   2.372304646729618e+00   3.913661700000000e+00 -2.56128350e-01  -3.39086565e+00   2.54107520e-01
C     9.815567438300000e+00   3.023018147165817e+00   4.058300400000000e+00  7.99087140e-01   1.00253852e+00  -3.16513540e-01
C     1.233137946930000e+01   4.440495765428122e+00   4.034780700000000e+00 -1.21979717e+00   1.69316523e+00   2.71543010e-01
C     3.652457991700000e+00   5.214592416943510e+00   3.931740300000000e+00  1.71190859e+00  -2.04704778e+00  -5.21570780e-01
C     4.900697115300000e+00   4.447389650149046e+00   3.771823500000000e+00  9.18839100e-01   1.32560970e+00   4.35828520e-01
C     6.168940601299999e+00   5.181973396909910e+00   3.656879100000000e+00 -1.46201107e+00  -8.94458050e-01  -6.36480700e-02
C     7.407018896300000e+00   4.459879148437513e+00   3.667879200000000e+00 -1.75444904e+00   4.38796440e-01   7.43009050e-01
C     8.599990600000000e+00   5.185588728557037e+00   3.768726300000000e+00  1.41702344e+00  -1.31130990e+00   2.35079310e-01
C     9.821109547100001e+00   4.441908459321933e+00   4.007454300000000e+00  2.77877990e-01   8.07424810e-01  -5.31117830e-01
C     1.107647118960000e+01   5.117321730692371e+00   4.014798900000000e+00 -2.57627880e-01   1.83431459e+00  -9.00374600e-02
C     1.352540974260000e+01   6.622969414006546e+00   3.884713500000000e+00  3.04870720e-01   2.70694770e-01  -3.28504100e-01
C     4.914140091399999e+00   7.304194762860195e+00   3.726496500000000e+00 -2.38906500e-02  -5.32861000e-01   4.26867030e-01
C     6.140331762000000e+00   6.600783698537828e+00   3.636919200000000e+00  4.34632500e-01  -5.16145300e-01   1.29271870e-01
C     7.387158095500000e+00   7.293305731305995e+00   3.644944200000000e+00 -7.59253640e-01   9.44627970e-01   7.06126400e-02
C     8.602045719800000e+00   6.583953821222377e+00   3.683522700000000e+00  6.44805240e-01   5.52681430e-01   1.64258260e-01
C     9.834992870799999e+00   7.294491202130932e+00   3.750756600000000e+00  5.39261130e-01  -4.15909400e-02   2.87465870e-01
C     1.107629794940000e+01   6.570314118222254e+00   3.903755700000000e+00  3.21049700e-02   5.38626770e-01  -1.25425370e-01
C     1.230719540360000e+01   7.349837481677891e+00   3.909228600000000e+00 -1.05442468e+00  -1.03154934e+00  -1.71326090e-01
