32
Lattice="9.86 0 0 4.93 8.53901048131456 0 0 0 30 " PBC="1 1 1" Properties=species:S:1:pos:R:3:force:R:3 Energy="-255.52438597"
C     1.183165835100000e+00   8.991776994384184e-01   3.831869100000000e+00  4.82809820e-01  -2.37002919e+00  -6.14551000e-01
C     2.420950893700000e+00   1.552848003033527e+00   3.811578300000000e+00  3.10382760e-01   1.09644029e+00   7.25335600e-01
C     3.679937959600000e+00   9.029147973749904e-01   3.755010300000000e+00 -3.07267074e+00  -3.63635084e+00  -5.55021960e-01
C     4.834419477100000e+00   1.600403630978953e+00   3.766895400000000e+00  2.19458161e+00   1.67826007e+00   5.51742000e-03
C     6.040819859899999e+00   8.903895206326120e-01   3.685661700000000e+00  4.33081400e+00  -4.42623510e-01  -5.72725610e-01
C     7.380107702500000e+00   1.520250672086547e+00   3.709960200000000e+00 -9.48948870e-01   3.10665105e+00  -1.34425420e-01
C     8.639274417599999e+00   9.128115105213105e-01   3.810384900000000e+00 -1.39791312e+00  -2.39214688e+00  -8.44696690e-01
C     9.851506793200000e+00   1.652435664388309e+00   3.843180600000000e+00 -7.91733210e-01  -1.54589138e+00   3.24895330e-01
C     2.404712016000000e+00   2.956062314360355e+00   3.962687700000000e+00  6.27590150e-01   2.11879455e+00  -2.45654200e-02
C     3.643866776499999e+00   3.720369246530737e+00   3.988314300000000e+00 -2.60881760e-01   1.00345840e+00  -3.79009150e-01
C     4.857369859599999e+00   3.038870051610993e+00   3.833949300000000e+00  2.21793787e+00  -1.00903668e+00  -3.84335470e-01
C     6.201018139300000e+00   3.676644389466849e+00   3.659701800000000e+00 -2.56115652e+00  -1.39846133e+00   2.30792440e-01
C     7.460337635099999e+00   2.990016750242922e+00   3.617364000000000e+00 -3.20156274e+00  -1.56916397e+00   1.37197152e+00
C     8.589181821500000e+00   3.749937619680252e+00   3.831334800000000e+00  1.39792134e+00   1.38348044e+00  -1.04424448e+00
C     9.830718511500001e+00   3.047921146549479e+00   3.892670700000000e+00 -5.04053640e-01   3.56079540e-01   1.73253760e-01
C     1.104490213180000e+01   3.719897978542346e+00   3.962006100000000e+00  1.07173343e+00   5.45459010e-01  -5.82218050e-01
C     3.661859797500000e+00   5.190009801233057e+00   3.977155800000000e+00 -6.03624820e-01  -8.78891580e-01  -1.07239141e+00
C     4.900761994100000e+00   5.862005162878664e+00   3.744552900000000e+00 -4.02334650e-01  -2.48788473e+00   2.54922710e-01
C     6.152556288600000e+00   5.035343131359340e+00   3.607860300000000e+00 -2.00906064e+00   4.21270345e+00   7.95260600e-01
C     7.308543083000000e+00   5.827569297585236e+00   3.623604900000000e+00  1.49875892e+00   7.26358730e-01  -6.11393610e-01
C     8.544981167000000e+00   5.227460620346765e+00   3.740545800000000e+00  2.69328767e+00  -2.92600329e+00   7.95419100e-02
C     9.857942513799999e+00   5.890605639190272e+00   3.716292600000000e+00 -2.15652578e+00  -5.61530520e-01  -1.65074120e-01
C     1.103632082590000e+01   5.147320896920602e+00   3.798896100000000e+00  1.22582986e+00   9.79207300e-02   1.12162582e+00
C     1.225440037870000e+01   5.917212768895427e+00   3.866629200000000e+00  1.25128566e+00  -3.49630882e+00  -3.40317480e-01
C     4.856991284899999e+00   7.272676335887362e+00   3.721884000000000e+00  2.34780008e+00   5.81049000e-02   1.30284600e-01
C     6.117927968599999e+00   7.964435664239454e+00   3.736277700000000e+00  1.48611890e-01   1.49460078e+00  -7.32834600e-01
C     7.366418768700000e+00   7.241698172107599e+00   3.554903100000000e+00 -1.30634771e+00   1.79262540e+00   1.32680896e+00
C     8.603626721500000e+00   7.965541551486719e+00   3.616224000000000e+00  8.69584800e-01   1.10989623e+00   1.83649920e-01
C     9.904577454399998e+00   7.300128656849829e+00   3.615494400000000e+00 -3.15391985e+00  -5.05677920e-01  -2.01067540e-01
C     1.108646602510000e+01   8.014060550594499e+00   3.564271800000000e+00 -6.87696320e-01   4.74723540e-01   8.11709710e-01
C     1.229300025740000e+01   7.259390404091426e+00   3.649263000000000e+00  3.81902900e-01   3.56636372e+00   3.26385300e-01
C     1.352562730350000e+01   7.996760515362019e+00   3.717399000000000e+00  7.59759000e-03   3.98079820e-01   3.96916410e-01
