32
Lattice="9.86 0 0 4.93 8.53901048131456 0 0 0 30 " PBC="1 1 1" Properties=species:S:1:pos:R:3:force:R:3 Energy="-257.37892566"
C     4.994511909400000e+00   7.358023831025068e+00  -1.955199000000007e-01 -1.01563282e+00   2.38492570e-01  -2.07895400e-01
C     6.208208840100000e+00   8.066816265142034e+00  -2.082125999999995e-01  3.48937890e-01   2.85980480e-01  -1.60065900e-02
C     7.432289879099999e+00   7.362666747193358e+00  -1.668701999999982e-01  1.30189131e+00   3.20408800e-02  -2.69121860e-01
C     8.685977145700001e+00   8.070184904776394e+00  -2.398308000000000e-01 -1.19686978e+00   3.20410570e-01   9.60991430e-01
C     9.896244275399999e+00   7.361471541896472e+00  -1.652364000000013e-01  7.95728480e-01  -1.55075130e-01  -4.36995530e-01
C     1.114301332230000e+01   8.080286383394025e+00  -2.051154000000004e-01 -8.04591500e-01  -7.23300360e-01  -1.73695900e-01
C     1.234672646070000e+01   7.367254074403423e+00  -2.700044999999989e-01  1.69965054e+00  -1.66487930e-01   4.70696110e-01
C     1.361451924610000e+01   8.069395900208042e+00  -2.735796000000015e-01 -7.39706210e-01  -1.00048300e-02   1.58081190e-01
C     1.283502378300000e+00   9.527535005524536e-01  -2.716692000000016e-01  7.20222930e-01  -5.25035010e-01  -2.94908240e-01
C     2.505298559500000e+00   1.672998370135092e+00  -2.387745000000017e-01  6.51926520e-01   7.02555200e-02   6.82167000e-02
C     3.725431753100000e+00   9.549657873876120e-01  -1.948337999999978e-01  1.53131858e+00   1.61215300e-01   2.04508800e-02
C     4.999534346899999e+00   1.669298075333689e+00  -1.125857999999980e-01 -1.59857757e+00  -1.35022263e+00  -6.12143320e-01
C     6.226657738200000e+00   9.404845649046848e-01  -1.836576000000001e-01 -2.33914940e-01   1.19029727e+00   4.25272170e-01
C     7.452204614099999e+00   1.661956063342775e+00  -1.857194999999976e-01  1.14830690e-01   5.22431740e-01  -5.58399400e-01
C     8.678230192999999e+00   9.586431122508240e-01  -2.918067000000022e-01  4.39984730e-01  -6.66605010e-01   4.55862500e-02
C     9.939986439900000e+00   1.641488396782634e+00  -3.537020999999996e-01 -1.91566432e+00   5.14286300e-01   9.31983140e-01
C     2.539265667900000e+00   3.105916227147334e+00  -2.419475999999996e-01 -1.49808442e+00  -4.46891370e-01  -1.54167540e-01
C     3.745900768000000e+00   3.816059532722237e+00  -1.581252000000006e-01  4.92797560e-01  -3.54457500e-02  -1.28628200e-01
C     4.952998055600000e+00   3.059615748352363e+00  -1.113393000000009e-01  1.53026564e+00   1.86311650e+00   2.15105990e-01
C     6.211594221800000e+00   3.791047917125269e+00  -9.200099999999978e-02 -9.96985260e-01   4.68577240e-01  -3.77978960e-01
C     7.440479151399999e+00   3.109022975330272e+00  -1.740293999999984e-01 -5.61255840e-01  -1.28418644e+00   3.87353210e-01
C     8.646138308699999e+00   3.807472447613234e+00  -1.928283000000022e-01  2.44746648e+00  -1.18568735e+00  -1.85968800e-01
C     9.897044266500000e+00   3.041913440336171e+00  -2.586534000000000e-01  5.93756660e-01   2.31782541e+00  -6.40947540e-01
C     1.114810418820000e+01   3.796668464603414e+00  -3.124221000000027e-01 -5.42526430e-01  -1.30756410e-01   4.04554650e-01
C     3.759700380300000e+00   5.251579823958468e+00  -1.744713000000004e-01 -1.09817208e+00  -9.18623950e-01  -3.11748700e-02
C     4.972896620200000e+00   5.943027649208250e+00  -1.350609000000027e-01  1.16478356e+00   2.46331200e-02  -1.48364920e-01
C     6.209153181600000e+00   5.221448132287588e+00  -1.173539999999988e-01  1.09377834e+00   3.13490040e-01   3.44267200e-01
C     7.489793793499999e+00   5.956319045970893e+00  -1.119599999999998e-01 -1.62034317e+00  -1.53902686e+00  -2.58445100e-01
C     8.730604393100000e+00   5.209421021416611e+00  -1.547748000000020e-01 -2.40836007e+00   8.36695030e-01   1.84459700e-01
C     9.914917932200000e+00   5.930390426038478e+00  -1.722674999999967e-01  1.29051966e+00   5.44654060e-01  -6.84440810e-01
C     1.115688200390000e+01   5.233844469971718e+00  -3.158961000000033e-01 -8.22348310e-01  -8.49874670e-01   1.03262904e+00
C     1.236445607180000e+01   5.942111584163955e+00  -2.342757000000013e-01  8.35173180e-01   2.82821690e-01  -4.70364660e-01
