32
Lattice="9.86 0 0 4.93 8.53901048131456 0 0 0 30 " PBC="1 1 1" Properties=species:S:1:pos:R:3:force:R:3 Energy="-257.53038794"
C     1.227589374900000e+00   2.196608358016072e-01   3.302676000000000e+00  1.13652489e+00   3.17002110e-01  -1.05286100e-02
C     2.471905697500000e+00   9.512017915680280e-01   3.296663400000000e+00 -8.27773980e-01   2.02648760e-01   5.75576820e-01
C     3.685875060000000e+00   2.302561253952960e-01   3.359480700000000e+00  5.62372550e-01   4.19890080e-01  -2.20080290e-01
C     4.943419065600000e+00   9.242392682466944e-01   3.324564300000000e+00 -4.08924870e-01  -7.72557990e-01   6.08426170e-01
C     6.180819387000000e+00   2.363017448151360e-01   3.367032900000000e+00 -1.01323910e-01  -1.35826384e+00  -4.85238580e-01
C     7.414978282700000e+00   9.315994683299305e-01   3.323388300000000e+00 -9.45480520e-01   9.68027870e-01  -2.05221400e-01
C     8.635079677800000e+00   2.551517812299456e-01   3.301900800000000e+00  4.79026440e-01  -4.35567890e-01   2.97070070e-01
C     9.877554349599999e+00   9.371468364882624e-01   3.303410400000000e+00 -2.26337120e-01   8.80381510e-01  -8.46939600e-02
C     2.460903317900000e+00   2.390922849009895e+00   3.360266700000000e+00  2.28471310e-01  -9.15582070e-01  -3.77100290e-01
C     3.701757646600000e+00   3.072610072940408e+00   3.368285400000000e+00  5.25046300e-02  -2.55494180e-01  -2.43071550e-01
C     4.942401365699999e+00   2.308499025670437e+00   3.357621000000000e+00 -7.81280930e-01   2.72762771e+00  -4.09877490e-01
C     6.152237120400000e+00   3.055427363711923e+00   3.305685300000000e+00  7.01800350e-01   2.76332070e-01   5.08571970e-01
C     7.389631476499999e+00   2.347332225190753e+00   3.276084900000000e+00  6.79851040e-01   1.20301746e+00   3.41845340e-01
C     8.637305276999999e+00   3.099082884010713e+00   3.311966100000000e+00 -9.84065000e-02  -1.82787439e+00  -1.31590300e-02
C     9.884316633399999e+00   2.374540159673282e+00   3.321486600000000e+00 -1.26858801e+00  -1.89475230e-01  -7.12304100e-02
C     1.108298490280000e+01   3.102240097745589e+00   3.348916500000000e+00  8.74564090e-01  -7.03375240e-01   2.40896820e-01
C     3.678306031000000e+00   4.501046998813165e+00   3.316794600000000e+00  2.39819779e+00  -2.95575990e-01   6.30895940e-01
C     4.960846566299999e+00   5.203219479665407e+00   3.330451200000000e+00 -1.72691226e+00   1.13942746e+00   2.62947770e-01
C     6.174535904800000e+00   4.506432723503111e+00   3.379308000000000e+00  4.39088750e-01  -1.02306191e+00  -1.13640407e+00
C     7.425793568800000e+00   5.211512139693059e+00   3.298065000000000e+00 -8.96085460e-01  -2.93006680e-01   7.56106950e-01
C     8.648411827499999e+00   4.497676907547024e+00   3.355835100000000e+00 -1.40431840e-01   6.16454520e-01  -2.67928780e-01
C     9.867413093099998e+00   5.228417245690839e+00   3.399685800000000e+00 -1.10132680e-01  -1.95481300e-01   6.18028000e-02
C     1.109323890840000e+01   4.501460116140187e+00   3.410451600000000e+00  2.99602990e-01   1.40825760e+00  -3.15789520e-01
C     1.234473222640000e+01   5.219848775624683e+00   3.385854300000000e+00 -1.07840057e+00  -1.32718630e-01   5.20701000e-03
C     4.947586887600000e+00   6.658696633854865e+00   3.341850900000000e+00 -1.05665255e+00  -1.07674958e+00  -1.64409460e-01
C     6.176015545699999e+00   7.330714965438665e+00   3.315858600000000e+00 -6.93898200e-02   7.35588830e-01  -5.32120500e-02
C     7.407843734600000e+00   6.624723326759137e+00   3.314166300000000e+00 -2.10068640e-01   2.07967420e-01   3.64670640e-01
C     8.611685595299999e+00   7.362416383406084e+00   3.409647000000000e+00  2.72736240e-01  -4.61134460e-01  -6.83973080e-01
C     9.836169908299999e+00   6.654713100075841e+00   3.407148600000000e+00  1.17596003e+00  -5.28619680e-01  -1.00006890e-01
C     1.109789381440000e+01   7.329098616144906e+00   3.358264500000000e+00 -4.14145480e-01   1.16650009e+00   6.89704010e-01
C     1.233498852510000e+01   6.642432124423296e+00   3.403106100000000e+00  1.86655000e-02   1.67687340e-01  -5.01831890e-01
C     1.354956738350000e+01   7.395860271852052e+00   3.350510700000000e+00  1.04096855e+00  -1.97227175e+00   3.50200000e-05
