32
Lattice="9.86 0 0 4.93 8.53901048131456 0 0 0 30 " PBC="1 1 1" Properties=species:S:1:pos:R:3:force:R:3 Energy="-252.78753893"
C     5.152378249500000e+00   7.626241237580566e+00  -7.662182999999985e-01  1.52255796e+00   4.93285739e+00   6.29699890e-01
C     6.386428931700000e+00   8.332570081783949e+00  -6.482054999999995e-01  1.83328448e+00   9.65587320e-01  -1.59242103e+00
C     7.654972358899999e+00   7.629490501848415e+00  -7.173791999999999e-01 -1.80995817e+00   5.22177080e-01   5.69940720e-01
C     8.833190396699999e+00   8.429949298858286e+00  -7.824159000000002e-01 -1.49859000e+00  -1.57162512e+00   1.49193090e-01
C     1.004020269110000e+01   7.796607475952495e+00  -7.827824999999997e-01  2.33094320e+00  -4.84825937e+00  -8.39936000e-03
C     1.126677826080000e+01   8.484239729759393e+00  -8.625128999999987e-01  1.53401602e+00  -3.41030091e+00   4.68541360e-01
C     1.253248112060000e+01   7.712494892510408e+00  -7.899330000000013e-01  6.67168300e-01   1.20955900e+00   8.42596550e-01
C     1.386218287400000e+01   8.428650600754384e+00  -6.153018000000010e-01 -4.40120878e+00  -2.35611960e-01  -1.88467073e+00
C     1.535703479600000e+00   1.268547370238949e+00  -7.374231000000009e-01 -1.86465564e+00  -1.82697226e+00   2.09256931e+00
C     2.673439759100000e+00   1.999203599129537e+00  -4.186650000000007e-01  2.59501587e+00  -2.15029306e+00  -2.46004920e+00
C     3.865219388800000e+00   1.248333995410902e+00  -6.844521000000015e-01  2.02955506e+00   3.09865961e+00   1.55323882e+00
C     5.159694320200000e+00   1.945859973710453e+00  -6.108249000000008e-01 -3.79474810e+00   1.87124376e+00   3.21127320e-01
C     6.327202179500000e+00   1.308892230784539e+00  -7.990902000000020e-01  3.78740692e+00  -6.25782500e-02  -1.17771080e-01
C     7.626889402700000e+00   1.992770991754743e+00  -7.953227999999974e-01 -1.44161099e+00  -1.26073638e+00   9.97058810e-01
C     8.846616512199999e+00   1.348656438617488e+00  -6.616211999999990e-01  3.76014250e+00  -3.61212194e+00  -9.69047510e-01
C     1.021335124240000e+01   1.995397847548706e+00  -7.405148999999973e-01 -5.46156888e+00  -2.93993461e+00   1.68844830e-01
C     2.715330264900000e+00   3.378316638766669e+00  -4.234338000000015e-01 -1.69298110e-01   2.59481869e+00   3.07638870e-01
C     3.940984959900000e+00   4.175181537045719e+00  -5.448002999999986e-01  1.17188406e+00  -3.01407193e+00   1.63263783e+00
C     5.179716134800000e+00   3.370469373525654e+00  -4.269798000000016e-01 -2.84221017e+00  -1.70910590e-01  -2.11860449e+00
C     6.367872214499999e+00   4.013908490933941e+00  -6.495117000000015e-01 -7.85658100e-02   3.11753496e+00   4.26780020e-01
C     7.582941361400000e+00   3.348063863927182e+00  -6.833063999999993e-01  2.04186204e+00   2.48944501e+00  -3.90392370e-01
C     8.825590949600000e+00   4.085860157210832e+00  -6.560762999999987e-01  8.12134680e-01  -2.68075547e+00   2.70202160e-01
C     1.004152200840000e+01   3.316920043344108e+00  -6.517139999999984e-01  3.20842363e+00   4.79904885e+00   1.14037359e+00
C     1.133019428050000e+01   4.033525672050274e+00  -4.010765999999997e-01 -1.51948672e+00   2.17925537e+00  -1.31194608e+00
C     4.040180356000000e+00   5.563699186655210e+00  -6.267263999999990e-01 -5.67755197e+00   1.05871898e+00  -1.44480631e+00
C     5.167706506900000e+00   6.297563692563343e+00  -9.538209000000002e-01  1.61921510e+00  -5.33613208e+00   2.41244063e+00
C     6.342320961200000e+00   5.447238184421634e+00  -7.493552999999977e-01  3.37744901e+00   3.27516160e+00  -3.21186740e-01
C     7.673341144500000e+00   6.226291475350346e+00  -6.273003000000017e-01 -1.59828597e+00  -2.79389238e+00  -8.97531470e-01
C     8.934698258599999e+00   5.452362444610682e+00  -5.736692999999988e-01 -2.84479434e+00   3.86028456e+00  -5.23442530e-01
C     1.008978468710000e+01   6.262798989976329e+00  -6.361002000000013e-01  1.58663270e+00  -8.00189400e-02   6.56521810e-01
C     1.133663197310000e+01   5.487596365823572e+00  -4.585910999999996e-01 -1.82533930e-01   2.39342309e+00  -1.52313578e+00
C     1.254295283500000e+01   6.305313613084887e+00  -6.635498999999996e-01  1.30737604e+00  -2.37355999e+00   9.23999050e-01
