32
Lattice="9.86 0 0 4.93 8.53901048131456 0 0 0 30 " PBC="1 1 1" Properties=species:S:1:pos:R:3:force:R:3 Energy="-256.84545542"
C     9.803743277000001e+00   1.285458709714379e+00   3.375813900000000e+00  8.17467900e-02   8.53751870e-01   5.22159610e-01
C     1.102580178350000e+01   2.023553782974724e+00   3.424182900000000e+00 -4.40832110e-01  -2.86522600e-01   3.68983200e-02
C     2.396569135000000e+00   1.312206647702350e+00   3.392618100000000e+00 -8.79995600e-02   7.06444100e-01   5.23597830e-01
C     3.627794384900000e+00   2.006703412034121e+00   3.556810200000000e+00  8.32685550e-01  -8.66637220e-01  -7.82110960e-01
C     4.862978967100000e+00   1.295494352561209e+00   3.475135800000000e+00  1.18641824e+00   6.88467180e-01   7.63813640e-01
C     6.129961014000000e+00   2.009436834678874e+00   3.440631000000000e+00 -1.60599436e+00   1.34653491e+00   4.03532250e-01
C     7.342172042699999e+00   1.327060854163044e+00   3.483829500000000e+00  1.84906240e-01  -1.35537339e+00   5.16044370e-01
C     8.595378634299999e+00   2.011851581452513e+00   3.443766900000000e+00 -7.09516980e-01   3.41076720e-01  -3.48585920e-01
C     1.099094880340000e+01   3.432314864729150e+00   3.604049400000000e+00  1.63475465e+00   8.12594570e-01   1.67968630e-01
C     2.418792046700000e+00   4.105095559168604e+00   3.754018800000000e+00 -6.91764690e-01   8.92229690e-01  -2.54752610e-01
C     3.664014700500000e+00   3.390359034466404e+00   3.680696400000000e+00 -6.07931780e-01   2.37330398e+00  -9.90498100e-02
C     4.881443789100000e+00   4.182772034241601e+00   3.592656600000000e+00  4.53513220e-01  -3.51732262e+00  -1.05930000e-04
C     6.136266631900000e+00   3.460132826120371e+00   3.452131500000000e+00 -1.36830552e+00  -6.58903030e-01  -4.45236430e-01
C     7.348307181199999e+00   4.161454138407967e+00   3.326306100000000e+00  4.71920630e-01  -7.07161130e-01   8.75335400e-01
C     8.590059706600000e+00   3.437381230427144e+00   3.421384500000000e+00 -6.45765560e-01   7.97364030e-01  -1.01795980e-01
C     9.778548955700000e+00   4.196750394397361e+00   3.576975600000000e+00  6.58169970e-01  -1.12429717e+00   1.50704400e-01
C     1.229091417720000e+01   5.560895658734416e+00   3.823650600000000e+00 -2.02076800e-02  -2.81606930e-01  -1.09695290e-01
C     3.682065747600000e+00   6.278819283708172e+00   3.738658500000000e+00 -1.80642032e+00   9.46909040e-01  -6.13109700e-02
C     4.889518241699999e+00   5.551790426469487e+00   3.586435800000000e+00 -3.13824750e-01   1.79367437e+00  -5.50651330e-01
C     6.101027534200000e+00   6.246294363570061e+00   3.313801500000000e+00 -4.57994240e-01   1.89028026e+00   9.68908680e-01
C     7.319385139000000e+00   5.571323839893011e+00   3.322658700000000e+00  2.07428171e+00   7.33418040e-01  -1.87384440e-01
C     8.569572697200000e+00   6.329558254760541e+00   3.419220300000000e+00 -2.09510300e-01  -3.73958620e-01   5.80199200e-01
C     9.790239957699999e+00   5.618639436253844e+00   3.699251100000000e+00 -3.44262170e-01  -3.02860170e-01  -1.18374184e+00
C     1.104183581970000e+01   6.298663858673586e+00   3.798699600000000e+00  2.08601120e-01  -7.86840790e-01  -1.46377180e-01
C     1.347056871840000e+01   7.743706171276275e+00   3.659422800000000e+00  3.46647170e-01  -1.80548632e+00  -1.17197480e-01
C     1.469346044420000e+01   8.420027395631051e+00   3.423004200000000e+00  1.17891161e+00  -6.87349330e-01   1.44005290e-01
C     6.084132917200000e+00   7.692819987683230e+00   3.327792600000000e+00  4.15370440e-01   3.28999320e-01  -2.10881610e-01
C     7.338818558100000e+00   8.452886447249243e+00   3.308336400000000e+00 -8.94520640e-01  -1.31032097e+00   3.89537300e-02
C     8.591468996400000e+00   7.769026386711991e+00   3.396479400000000e+00 -1.54533804e+00  -2.00789117e+00   3.31543530e-01
C     9.803931405800000e+00   8.426014266658790e+00   3.581184900000000e+00  3.26954840e-01   4.64594120e-01  -7.95809440e-01
C     1.102573024920000e+01   7.704830959824399e+00   3.702947400000000e+00 -3.52487310e-01   4.02325120e-01   3.85737800e-01
C     1.221746333970000e+01   8.432755217702015e+00   3.704356500000000e+00  2.04779381e+00   7.00564130e-01  -1.01471547e+00
