32
Lattice="9.86 0 0 4.93 8.53901048131456 0 0 0 30 " PBC="1 1 1" Properties=species:S:1:pos:R:3:force:R:3 Energy="-256.65657988"
C     9.825805667899999e+00   2.047419890315800e-01   3.789282300000000e+00  1.55303027e+00  -1.00587619e+00   8.02711780e-01
C     1.220593704900000e+00   8.973623058103705e-01   3.895852500000000e+00 -1.98259873e+00   9.49510790e-01  -2.39989410e-01
C     2.422227467900000e+00   2.133867124613224e-01   3.781815900000000e+00  1.06743571e+00  -7.58193380e-01   1.07414850e-01
C     3.687969669099999e+00   8.756031993052344e-01   3.832955100000000e+00  1.53150100e-01  -6.99297510e-01  -6.01081610e-01
C     4.907996374700000e+00   1.486941443835848e-01   3.708132900000000e+00  7.70057550e-01   8.55160300e-01   9.44718400e-01
C     6.131444746800000e+00   9.122245389409153e-01   3.781745100000000e+00  7.62688910e-01  -9.07732070e-01  -2.83127200e-02
C     7.406729702499999e+00   1.691223607153080e-01   3.831332100000000e+00 -1.92976926e+00   2.42010033e+00   8.14069820e-01
C     8.632675908400001e+00   9.308189173819537e-01   3.963794100000000e+00 -1.13185817e+00  -3.06390258e+00  -1.34659801e+00
C     1.104219891420000e+01   2.332378283087653e+00   4.050379800000000e+00  9.98660210e-01  -5.61417310e-01  -1.14357620e-01
C     2.445492335100000e+00   2.984815980519973e+00   4.100162100000000e+00  6.46200890e-01   1.34926881e+00  -9.19145110e-01
C     3.728896902200000e+00   2.269693577934182e+00   3.905325900000000e+00 -3.10790232e+00   1.52170875e+00   3.20846900e-01
C     4.873161537000000e+00   3.036619510008885e+00   3.737261100000000e+00  1.93717684e+00   9.11496100e-02   9.03245520e-01
C     6.119757343700000e+00   2.347104404391146e+00   3.800277000000000e+00  8.29252630e-01  -8.57508890e-01  -8.44475860e-01
C     7.397923884400000e+00   3.027844310499008e+00   3.800683500000000e+00 -1.67252512e+00  -2.04988430e-01   5.52469350e-01
C     8.598290834600000e+00   2.296931484343496e+00   3.948888000000000e+00  6.21329470e-01   3.03192278e+00  -1.44607320e-01
C     9.819008381099998e+00   3.068418016525461e+00   4.002082800000000e+00  2.73091530e-01  -1.52719369e+00   4.81837950e-01
C     1.230890586710000e+01   4.447624131376826e+00   4.059168900000000e+00  1.35434922e+00  -1.14215634e+00   8.67761500e-02
C     3.731260590700000e+00   5.153657696597810e+00   3.964552500000000e+00 -3.35361707e+00   1.79072043e+00  -6.90459930e-01
C     4.907586100100000e+00   4.471406983365723e+00   3.757132200000000e+00 -3.96561580e-01  -1.98932222e+00   1.49470080e-01
C     6.122819958300000e+00   5.122300059192316e+00   3.649608000000000e+00  1.62200212e+00   1.69874091e+00   4.83912580e-01
C     7.369398411400000e+00   4.445261131006696e+00   3.744114000000000e+00  8.82787630e-01  -2.42186670e-01  -3.18774390e-01
C     8.607821412000000e+00   5.166304739629633e+00   3.785500800000000e+00 -5.77119810e-01   9.55034400e-01   8.99458000e-03
C     9.842286657899999e+00   4.474548656101524e+00   4.000376400000000e+00 -5.62513640e-01   2.06570700e-02  -8.76508770e-01
C     1.108702829160000e+01   5.156626966712021e+00   3.986412300000000e+00  8.83239600e-02   3.91363930e-01   5.32281200e-02
C     1.351917482090000e+01   6.610278992801485e+00   3.859671900000000e+00  3.57530160e-01  -1.43572705e+00   3.77548800e-01
C     4.893918809000000e+00   7.285213396464203e+00   3.703729200000000e+00  8.87176200e-02   9.57415260e-01   6.66973450e-01
C     6.137513083799999e+00   6.549533582318126e+00   3.680001900000000e+00 -2.73215280e-01   1.57701254e+00  -5.89316010e-01
C     7.352319264499999e+00   7.342841385001523e+00   3.649540200000000e+00  3.13709270e-01  -1.99918098e+00   2.33961560e-01
C     8.599663740999999e+00   6.608967315401651e+00   3.658261200000000e+00 -8.71773600e-02  -8.67246660e-01   8.57346220e-01
C     9.861679157999999e+00   7.262741453364197e+00   3.772264800000000e+00 -1.30824347e+00   1.06240021e+00  -9.32266690e-01
C     1.107866720880000e+01   6.579092220995695e+00   3.846828300000000e+00 -4.32520670e-01  -6.22436230e-01   7.47899710e-01
C     1.226041635910000e+01   7.318508620737714e+00   3.924142200000000e+00  2.49612842e+00  -7.87799880e-01  -9.47532360e-01
