76
Lattice="10.7446858958278 0 0 5.37234294791388 9.3051709414712 0 0 0 30 " PBC="1 1 1" Properties=species:S:1:pos:R:3:force:R:3 Energy="-605.56063037"
C     5.450159940821583e+00   9.259976096951258e+00   1.458960000000000e-02 -8.83657360e-01   2.60417345e+00   5.61442060e-01
C     1.240516079462013e+01   8.503106799086101e+00   6.301079999999999e-02  3.02905751e+00  -9.16838310e-01   5.52594790e-01
C     1.390786217201726e+01   8.253778651920596e+00   9.549720000000000e-02 -2.87622983e+00   5.58643290e+00  -5.93011900e-02
C     1.438606048874430e+01   6.982000462057208e+00   1.207128000000000e-01  3.66769259e+00   3.26150197e+00  -5.73228100e-02
C     8.254789858719340e+00   9.078551690306726e+00  -7.069710000000029e-02 -2.68732450e-01  -4.68782804e+00   6.40508350e-01
C     9.660964147673209e+00   8.868323406172555e+00  -2.782470000000004e-02 -4.20785730e-01   4.74490310e-01   3.78374000e-01
C     1.018446098568605e+01   7.537520842105977e+00  -2.951909999999813e-02 -1.00708580e-01   3.23461370e-01  -5.21395400e-02
C     1.158770992645679e+01   7.373292670513695e+00   5.554110000000000e-02 -1.02821635e+00  -1.36802449e+00  -2.64601000e-03
C     1.210431877612658e+01   6.021764699212454e+00   4.442100000000000e-02 -3.29113430e-01   6.35735830e-01  -6.13495920e-01
C     1.349547725908834e+01   6.028719104817882e+00  -4.169549999999944e-02 -1.05383820e-01  -9.22468028e+00  -4.10059440e-01
C     5.992843618169486e+00   7.952961923237661e+00   7.026900000000000e-02 -3.38657340e-01   2.58173080e-01  -1.55319610e-01
C     7.407918697476056e+00   7.743545794423132e+00  -7.623480000000171e-02 -9.08972870e-01   5.69928056e+00   4.55760850e-01
C     7.939175508816168e+00   6.502974635496349e+00  -6.406620000000274e-02  8.49220150e-01  -9.48277150e-01   4.29877680e-01
C     9.363135959851174e+00   6.386814092377115e+00  -8.450520000000239e-02 -7.61189920e-01  -1.29976036e+00   5.91808000e-01
C     9.845457334898615e+00   5.043020206954366e+00  -1.476510000000175e-02  1.89587596e+00   2.94749740e-01  -6.34888870e-01
C     1.125321818417248e+01   4.785778663266357e+00  -4.420019999999880e-02 -5.24291940e-01   6.86759709e+00  -2.19979700e-01
C     1.181880475047396e+01   3.613896694339594e+00  -2.920973999999994e-01  1.37850227e+00  -3.75740644e+00   9.47770260e-01
C     5.082322388187200e+00   6.866862743327699e+00   1.663734000000000e-01  9.51755750e-01  -2.05047941e+00  -1.02981425e+00
C     5.685027062887952e+00   5.557627983620981e+00   5.765310000000000e-02 -3.06118351e+00  -4.26996920e-01  -5.06315500e-01
C     7.052572057094142e+00   5.392606080947517e+00   8.066219999999999e-02  2.38256077e+00  -2.61424895e+00  -8.72555360e-01
C     7.670580119305116e+00   4.009360876187030e+00   3.561030000000000e-02 -3.24285769e+00   9.85260350e-01  -2.48766480e-01
C     9.052856024156776e+00   3.878311129046702e+00  -5.527530000000169e-02 -9.35787420e-01   1.58127019e+00   3.21553930e-01
C     9.616759435412019e+00   2.622404769255672e+00  -8.402339999999953e-02  8.72539500e-01  -2.46878908e+00  -5.56577400e-02
C     1.104710255221220e+01   2.420919158478176e+00  -2.090378999999984e-01 -1.80425539e+00   1.00606718e+00   6.86824590e-01
C     3.389202397907963e+00   4.582277273308129e+00  -2.023290000000024e-01 -3.18221373e+00   1.48231770e+00   4.66180760e-01
C     4.759040469255501e+00   4.376656258461479e+00  -1.839918000000011e-01  1.76343666e+00   4.18331499e+00   1.24433008e+00
C     5.346956641794359e+00   3.151611800816890e+00  -1.121435999999996e-01  2.67154094e+00  -2.09762829e+00   5.81528310e-01
C     6.766508601928023e+00   2.857944048863738e+00   1.680690000000000e-02  1.25353978e+00   2.90994253e+00  -2.18556490e-01
C     7.341466414654333e+00   1.555821789616718e+00   8.453820000000001e-02  1.66460996e+00   3.80170874e+00   1.08689810e-01
C     8.776320043148477e+00   1.482370864491572e+00   6.718800000000000e-02  4.33855430e-01  -1.69623736e+00  -5.11774890e-01
C     9.390326408266285e+00   1.645016505662088e-01   5.704140000000000e-02 -4.16041010e-01  -1.53522049e+00   1.95597210e-01
C     2.459538650419955e+00   3.458926516470646e+00  -2.076935999999989e-01  3.98251005e+00  -2.09479110e-01   1.99755850e-01
C     3.113372718827300e+00   2.152894131342929e+00  -5.485199999998969e-03  1.06863378e+00   2.20601439e+00  -5.35923820e-01
C     4.571734162091187e+00   2.043190911597509e+00   2.082780000000000e-02 -2.78447682e+00  -2.96125218e+00  -3.16783000e-03
C     5.165507477807853e+00   7.071608886002569e-01   1.251639000000000e-01 -5.06300061e+00   5.38726830e-01  -9.06289410e-01
C     6.480113995542466e+00   5.166708261157222e-01   1.392510000000000e-01  2.97057654e+00  -3.36924519e+00  -4.55413810e-01
C     8.865582165943880e-01   1.186003403293597e+00   4.120800000000000e-03  2.51258170e-01  -2.81817293e+00  -5.08473270e-01
C     2.322420985988259e+00   1.026776854133274e+00   8.617830000000000e-02 -2.00834764e+00  -2.14074670e-01  -1.13040769e+00
C     1.608108637140847e+01   9.299056698278745e+00   3.596150400000000e+00  3.35250175e+00  -4.48559030e-01  -3.63457930e-01
C     1.190501070853539e+01   8.893645195644739e+00   3.367175100000000e+00 -2.58543827e+00  -3.96001732e+00   6.34473440e-01
C     1.326663607921527e+01   9.068021679715896e+00   3.254518200000000e+00  1.02669198e+00  -1.78512502e+00   1.17119362e+00
C     1.417168138747548e+01   7.993392053506576e+00   3.274056900000000e+00 -4.34641260e-01  -5.81442790e+00   6.32210930e-01
C     7.740222660540837e+00   8.234438691587192e+00   3.574497000000000e+00 -6.49078188e+00   1.75619512e+00  -1.10049751e+00
C     9.040398903941464e+00   8.464800201877404e+00   3.330332700000000e+00  1.51010350e+00  -2.08031000e-01   3.36044490e-01
C     9.857526195888930e+00   7.347216696936823e+00   3.414138300000000e+00  3.90494873e+00  -4.18143820e-01  -1.02240400e-02
C     1.133111398726514e+01   7.530898724154817e+00   3.619394400000000e+00 -3.44321320e-01  -4.60431780e-01  -2.22168300e+00
C     1.217299456424845e+01   6.332867922162722e+00   3.607747500000000e+00  4.67455300e-01   1.89725720e+00  -1.44499321e+00
C     1.363340260155914e+01   6.559264964373948e+00   3.376062900000000e+00 -3.28608355e+00   2.46229253e+00   6.32220100e-01
C     4.856779235927704e+00   7.995321945959533e+00   3.404433000000000e+00 -2.90592139e+00   1.93831099e+00  -7.62226300e-02
C     5.647799090075351e+00   6.861368412094467e+00   3.321631800000000e+00  6.94472070e-01  -1.90366391e+00   1.56128430e-01
C     7.062030281751335e+00   6.988966592178020e+00   3.351998400000000e+00  1.37446866e+00  -6.65366670e-01   4.95007460e-01
C     7.912906954451278e+00   5.823869395590449e+00   3.240705600000000e+00  8.47406550e-01   3.17545630e+00   4.82794440e-01
C     9.338793068093281e+00   6.068603579862875e+00   3.258939000000000e+00 -8.07206500e-02  -3.14782937e+00   1.23562349e+00
C     1.021437413750822e+01   4.859951669656447e+00   3.369425700000000e+00 -2.81045945e+00   7.80809450e-01  -4.59144900e-02
C     1.158165653159102e+01   4.991690836911719e+00   3.466114200000000e+00  1.31009800e-02   4.17556589e+00   3.77615700e-01
C     1.240404694675631e+01   3.926675499421028e+00   3.419701200000000e+00  9.15700890e-01  -2.21509644e+00  -1.08816800e-02
C     3.618368335912362e+00   5.383341852759652e+00   3.373710600000000e+00  3.84809153e+00   2.54090554e+00  -5.84040260e-01
C     5.089352582448140e+00   5.522039147688729e+00   3.249901200000000e+00 -8.25048140e-01   7.30620920e-01   7.02338290e-01
C     5.945651775781237e+00   4.395161824116695e+00   3.316422300000000e+00 -5.27666460e-01   1.15161149e+00   5.60413710e-01
C     7.359133364445409e+00   4.580807428506446e+00   3.389058300000000e+00 -1.50179233e+00  -7.91488110e-01  -6.95454770e-01
C     8.133211373929941e+00   3.463587290491073e+00   3.503423400000000e+00  3.46790384e+00  -3.46473997e+00  -6.35496280e-01
C     9.642315939442316e+00   3.543065547040895e+00   3.416940900000000e+00 -1.98445378e+00   1.23169910e+00   2.50681800e-02
C     1.050434484397845e+01   2.403713711306697e+00   3.416046300000000e+00 -2.14505177e+00   1.84463810e-01   5.30762780e-01
C     1.188958612096822e+01   2.596747528371100e+00   3.381792000000000e+00  7.86639660e-01  -1.04964629e+00   9.13197760e-01
C     3.023734532025395e+00   4.174283399634855e+00   3.460969800000000e+00  1.94150555e+00  -4.91012941e+00   8.86746900e-02
C     3.926797445737056e+00   2.992219619613835e+00   3.484138800000000e+00  7.17969700e-02  -1.95205150e-01  -9.25109540e-01
C     5.349516240869456e+00   3.128890992725854e+00   3.437202000000000e+00 -9.25058040e-01  -4.49910180e-01  -1.14792730e-01
C     6.135414855376586e+00   1.953042787737626e+00   3.451455600000000e+00  9.60745150e-01  -1.05872430e-01  -9.11620940e-01
C     7.556856859483490e+00   2.120057020561054e+00   3.463868100000000e+00  3.69264640e-01   1.62734558e+00   4.00949750e-01
C     8.419283478568209e+00   1.004152261509758e+00   3.421769400000000e+00  2.07520173e+00   2.28264309e+00  -2.30308100e-01
C     9.860878376719441e+00   1.117899322442284e+00   3.509214900000000e+00  5.04713560e-01   9.36557300e-01  -2.23945170e-01
C     2.012596195188586e+00   1.449869670380630e+00   3.519082800000000e+00 -3.08225300e-02  -8.02144170e-01  -4.00324030e-01
C     3.448645331159392e+00   1.640015534592094e+00   3.383196900000000e+00 -2.17255794e+00  -4.84284580e-01   4.17477340e-01
C     4.219602815241418e+00   4.206066606756066e-01   3.215705100000000e+00  3.97460760e-01   3.29636609e+00   1.57960689e+00
C     5.606189380629298e+00   6.282772324735010e-01   3.297211500000000e+00  7.67360630e-01   1.26470717e+00   3.93220200e-01
C     1.453351626016153e+00   9.518715307902061e-02   3.661997100000000e+00 -2.72359520e-01   1.75701422e+00  -9.12198320e-01
