64
Lattice="9.86 0 0 4.93 8.53901048131456 0 0 0 30 " PBC="1 1 1" Properties=species:S:1:pos:R:3:force:R:3 Energy="-511.22449103"
C     5.021451500000000e+00   8.096974940086032e+00  -2.647544999999987e-01  1.41705117e+00   9.35496050e-01   8.46448110e-01
C     1.399904066000000e+00   2.949153913321616e-01  -8.278170000000173e-02 -2.76763856e+00  -1.61690934e+00  -2.16290957e+00
C     9.709256622500000e+00   5.010811749711769e-01   3.713923200000000e+00  2.32167143e+00  -1.69477961e+00   3.19629090e-01
C     1.173068159800000e+00   1.167803953815699e+00   3.631614600000000e+00 -1.51760235e+00  -2.43365567e+00   1.17010807e+00
C     7.506836064000000e+00   8.090610986355498e+00  -2.652885000000005e-01  6.77767010e-01   9.41737000e-03   1.02877830e+00
C     3.794337820800000e+00   2.465635860495808e-01  -4.325358000000001e-01  6.14323740e-01   4.20494080e-01   1.42465083e+00
C     2.398252089100000e+00   4.595704833247528e-01   3.953682900000000e+00 -1.79353480e-01  -1.12360770e+00  -1.26551028e+00
C     3.612834398500000e+00   1.187764659323642e+00   3.782746800000000e+00  4.64915120e-01  -2.34386022e+00   1.52445186e+00
C     1.000803311000000e+01   8.033642294817339e+00  -2.811363000000000e-01 -3.03775675e+00   3.48520311e+00  -1.34664749e+00
C     6.202663477499999e+00   3.019885098830600e-01  -2.727762000000027e-01  2.65758034e+00  -1.83849345e+00  -3.91365610e-01
C     4.897030329200000e+00   4.750553810994992e-01   3.935263800000000e+00 -3.88486736e+00  -1.13414978e+00  -2.42741060e-01
C     6.086496753600000e+00   1.148368995183010e+00   3.869971800000000e+00  1.03027908e+00  -1.74895042e+00   3.84179590e-01
C     1.243427478110000e+01   8.151540839465223e+00  -4.111863000000007e-01 -1.30635318e+00  -1.99550845e+00   9.56141850e-01
C     8.731114155100000e+00   2.258661347174232e-01  -2.011301999999979e-01 -5.85232610e-01   3.81579289e+00  -7.81797330e-01
C     7.258207339299998e+00   3.890700218789384e-01   3.771474900000000e+00  2.77059083e+00   7.30957780e-01  -2.27259830e-01
C     8.485832752499999e+00   1.172425864018209e+00   3.679686000000000e+00  2.57050720e-01  -3.39998630e-01  -8.63829930e-01
C     1.334720444100000e+00   1.668448614571138e+00  -3.250548000000002e-01 -1.84605662e+00   1.37846075e+00  -7.10507490e-01
C     2.507459477100000e+00   2.413618514184477e+00  -5.499513000000000e-01  1.28085444e+00  -2.49982103e+00   3.18110280e-01
C     1.101083469790000e+01   2.518519233250020e+00   3.414494400000000e+00  7.33356450e-01   3.86608236e+00  -2.69186370e-01
C     2.401311449900000e+00   3.292422903128559e+00   3.420330900000000e+00 -8.73092240e-01  -9.37578400e-02   3.46042330e-01
C     3.739433248900000e+00   1.693771904050626e+00  -5.008296000000030e-01  1.83500048e+00  -3.56350680e-01   1.57141160e-01
C     5.017715743200000e+00   2.420131815208307e+00  -4.333859999999987e-01 -3.40095412e+00   1.15912741e+00  -3.33189330e-01
C     3.598944813700000e+00   2.579471031616679e+00   3.695550900000000e+00  7.98558840e-01   4.24169870e-01  -4.58587320e-01
C     4.858563018200000e+00   3.209348492580630e+00   3.904241100000000e+00 -2.22219900e-02   2.45747664e+00   4.48724330e-01
C     6.156346423300000e+00   1.702320136661945e+00  -2.342165999999999e-01  2.05743792e+00  -1.49123810e-01  -1.62746960e-01
C     7.384611011000000e+00   2.407793969745965e+00  -2.071635000000001e-01  2.89153800e+00  -2.34842770e-01  -4.71362500e-01
C     6.131598020500000e+00   2.512135127454753e+00   4.022274900000000e+00 -2.10803534e+00   2.80123451e+00  -1.68556204e+00
C     7.267902677300000e+00   3.301718811497507e+00   3.788702999999999e+00  2.31248259e+00  -7.77777340e-01  -3.07711500e-02
C     8.667980624400000e+00   1.725013154743278e+00  -2.192265000000013e-01  1.06722580e-01  -1.73990193e+00  -2.72191980e-01
C     9.900648589499998e+00   2.383302123716915e+00  -4.680258000000030e-01  1.01512323e+00   3.07283220e-01   1.84268879e+00
C     8.544516563799998e+00   2.594614539752435e+00   3.497765400000000e+00 -2.23495589e+00   3.69377170e-01   1.61931521e+00
C     9.767130779900000e+00   3.284825916284713e+00   3.419760000000000e+00  2.52365660e-01   5.26568630e-01   2.95958840e-01
C     2.552218158300000e+00   3.771787068916266e+00  -7.112909999999992e-01 -2.03699660e-01   3.27200334e+00   5.45029860e-01
C     3.756635645800000e+00   4.523247742940327e+00  -6.168405000000021e-01  1.57889314e+00   6.83473130e-01  -1.22112510e-01
C     1.226952187190000e+01   4.740476839337439e+00   3.394286100000000e+00 -1.81283927e+00  -1.86653121e+00   1.04038596e+00
C     3.595841674499999e+00   5.363580217897502e+00   3.739018800000000e+00  1.90824293e+00   2.19060503e+00   7.51065000e-03
C     5.023389729500000e+00   3.874118741288796e+00  -5.117876999999993e-01  6.07501200e-02  -1.19087470e+00   7.89258790e-01
C     6.275612441000000e+00   4.563843223443504e+00  -3.060048000000002e-01 -4.63041890e-01   8.15531330e-01  -6.42027970e-01
C     4.800707989199999e+00   4.676319240266273e+00   3.974579400000000e+00  2.39423399e+00  -8.90454660e-01  -1.49851310e-01
C     6.069330395000000e+00   5.442788676840715e+00   4.137850500000000e+00 -2.03268404e+00   3.14898460e-01  -7.56189090e-01
C     7.493972313600000e+00   3.813770565572968e+00  -3.110414999999982e-01 -3.59488930e-01   8.03430110e-01   8.48158470e-01
C     8.763408267999999e+00   4.529837126547532e+00  -3.272595000000003e-01 -2.24344895e+00   8.25011410e-01  -3.82025420e-01
C     7.267331931200000e+00   4.713177366662565e+00   3.924527700000001e+00  1.97729640e-01   2.85900000e-01   3.69558460e-01
C     8.517475020799999e+00   5.400449018056893e+00   3.861008700000000e+00  7.73376160e-01   1.06397836e+00   3.89853800e-01
C     9.960194263399998e+00   3.830042333163446e+00  -4.857923999999976e-01  5.02149780e-01  -8.16581280e-01  -4.64536350e-01
C     1.120717751880000e+01   4.532809726875831e+00  -6.574856999999987e-01 -1.35587895e+00  -3.65167370e-01  -4.67808000e-02
C     9.744996065899999e+00   4.750112771103700e+00   3.616777500000000e+00  1.17188646e+00  -2.21710519e+00  -1.23477166e+00
C     1.101004816570000e+01   5.441149101438450e+00   3.511250100000000e+00 -7.99845080e-01  -4.75843810e-01   7.73303590e-01
C     3.791295616400000e+00   5.977633184639917e+00  -5.327513999999987e-01  8.00030000e-02  -8.06359820e-01  -7.88886810e-01
C     4.992758209800000e+00   6.721593960369288e+00  -4.616162999999993e-01  3.22344891e+00  -1.89512135e+00   1.71976893e+00
C     1.355577563390000e+01   6.817773190300873e+00   3.791316000000000e+00 -3.20197658e+00  -5.82654230e-01  -5.35996060e-01
C     4.837896162400000e+00   7.587179619529911e+00   3.885667800000000e+00  6.78696440e-01   1.61237949e+00   4.06293410e-01
C     6.314944178199999e+00   6.009626465985542e+00  -2.517396000000005e-01 -4.10412347e+00  -2.00432301e+00  -7.02034810e-01
C     7.514721352500000e+00   6.647708208218678e+00  -1.311405000000008e-01 -1.34461837e+00   3.18164445e+00  -8.96474510e-01
C     6.058370906400000e+00   6.942155405606220e+00   4.151576400000000e+00  3.41917150e-01  -4.19918460e+00  -5.16837690e-01
C     7.321613203200000e+00   7.502602428527607e+00   4.158576300000000e+00  3.25802820e-01   4.36756933e+00  -6.56100820e-01
C     8.677842645700000e+00   5.991764136912955e+00  -2.979848999999994e-01  3.80230154e+00  -3.03989657e+00  -1.52046700e-01
C     9.929680619999999e+00   6.673747493726914e+00  -4.317969000000019e-01  8.86112350e-01  -2.18546184e+00  -3.20584600e-02
C     8.562040150200000e+00   6.828223999837240e+00   4.077329700000000e+00 -6.97303870e-01  -3.55006490e-01  -4.34235730e-01
C     9.762306084699999e+00   7.580386238962337e+00   3.984239400000000e+00  2.00648293e+00  -9.21192770e-01  -5.30666820e-01
C     1.114288509300000e+01   5.943175032529135e+00  -6.720216000000008e-01  2.45247981e+00   1.31611061e+00   1.32058914e+00
C     1.247336169450000e+01   6.703387167613937e+00  -5.658014999999992e-01 -4.14071932e+00   3.02431650e-01  -2.62572260e-01
C     1.101704368780000e+01   6.811688035262510e+00   3.792603300000000e+00 -2.96980200e-02   1.54898905e+00  -5.33039990e-01
C     1.229029230700000e+01   7.506134334042344e+00   3.719707200000000e+00 -1.28459051e+00   6.59793800e-01   6.55620420e-01
