64
Lattice="9.86 0 0 4.93 8.53901048131456 0 0 0 30 " PBC="1 1 1" Properties=species:S:1:pos:R:3:force:R:3 Energy="-514.96569684"
C     9.789219447699999e+00   6.538021459169201e-02  -2.043011999999997e-01  2.40978693e+00  -6.52835620e-01   1.05838260e-01
C     1.198623455700000e+00   7.962332676738439e-01  -1.939262999999976e-01 -5.28194470e-01  -2.80057996e+00  -2.94365390e-01
C     1.270350814500000e+00   6.241380504599241e-01   3.547995900000000e+00 -6.92108260e-01   1.71287107e+00   8.37066100e-02
C     2.501521440000000e+00   1.344669745404586e+00   3.666865800000000e+00  4.33973580e-01   8.86962670e-01  -8.25676590e-01
C     2.418247971900000e+00   4.919878973209200e-02  -2.234700000000025e-01  6.78292030e-01   2.35420680e-01   3.84175120e-01
C     3.693851750700000e+00   7.689027983909272e-01  -1.667075999999987e-01 -8.44433110e-01  -7.37664670e-01  -6.47893480e-01
C     3.752060260700000e+00   6.454232418834200e-01   3.510292200000000e+00 -1.55461535e+00  -1.06432760e-01   2.71051840e-01
C     4.937501438700000e+00   1.397318466150807e+00   3.526774200000000e+00  4.89887730e-01   3.94432160e-01  -3.45857550e-01
C     4.951664342700000e+00   5.567972790620240e-02  -2.241080999999987e-01 -1.82648432e+00   1.26171418e+00   5.09155790e-01
C     6.161811180400000e+00   7.848358234356640e-01  -2.005020000000002e-01  5.04990800e-02  -3.94577200e-01   8.84784600e-02
C     6.159106976800000e+00   6.830231521201088e-01   3.460140300000000e+00  1.55643400e+00  -6.90715150e-01   4.23637450e-01
C     7.441528452599999e+00   1.329071364180560e+00   3.458159700000000e+00 -2.61712829e+00   2.59325339e+00  -9.35379000e-03
C     7.411253815599999e+00   8.979845435040480e-02  -1.366496999999995e-01 -2.30411638e+00  -2.42080515e+00  -3.94701060e-01
C     8.600991488600000e+00   7.560743867765087e-01  -1.704219000000009e-01  1.06771180e-01   2.03903230e+00  -8.91414700e-02
C     8.617134329899999e+00   6.556031086172568e-01   3.478391400000000e+00  3.68922964e+00  -6.79676470e-01   7.71846200e-02
C     9.899046536699998e+00   1.364641380845943e+00   3.533821500000000e+00 -6.79540660e-01   9.33595580e-01   1.02543510e-01
C     1.104786580130000e+01   2.170472923249831e+00  -1.657992000000021e-01 -1.55680150e-01   1.38876326e+00   1.12457224e+00
C     2.422526620300000e+00   2.864934592248529e+00  -3.452309999999770e-02  1.71730980e-01   9.90851900e-01  -4.85239390e-01
C     2.504250540100000e+00   2.810715291304721e+00   3.736128000000000e+00  2.71607010e-01  -1.87813819e+00  -2.88424280e-01
C     3.732609488000000e+00   3.524940756229693e+00   3.698409900000000e+00 -6.36474970e-01   2.03307420e-01   5.15076730e-01
C     3.655793333899999e+00   2.181938252621327e+00  -1.071005999999990e-01  1.32160897e+00   1.08570200e-01   3.76230200e-02
C     4.932990143600000e+00   2.905263057893997e+00  -1.283525999999995e-01 -2.40436824e+00   5.21468150e-01   3.55631710e-01
C     4.931052653599999e+00   2.853028906106579e+00   3.564270600000000e+00  1.40225730e+00  -2.56057414e+00  -4.54781050e-01
C     6.190994167500000e+00   3.503654454734834e+00   3.420655800000000e+00  1.67333050e-01  -6.16109730e-01   1.01745074e+00
C     6.114908787300000e+00   2.208092558600729e+00  -2.220996000000000e-01  1.79357808e+00  -1.04464923e+00   3.28329440e-01
C     7.375588371499999e+00   2.893295890876591e+00  -2.164679999999990e-01 -9.73571190e-01  -6.74447190e-01   2.74687220e-01
C     7.442697207699998e+00   2.769145338925565e+00   3.463851000000000e+00 -9.48873140e-01   4.01100700e-01  -4.57291050e-01
C     8.628450799800000e+00   3.533798442580806e+00   3.500016300000000e+00  1.68159597e+00  -1.07188463e+00   6.50366320e-01
C     8.586302750800000e+00   2.193073036897142e+00  -1.764845999999984e-01  5.87993430e-01  -9.04557840e-01   3.90140100e-02
C     9.802346460100001e+00   2.867990704099320e+00  -9.936119999999704e-02  1.16837744e+00   2.24958520e+00  -8.14778060e-01
C     9.914887612699998e+00   2.826277637904521e+00   3.597237600000000e+00 -1.58469181e+00  -1.72569384e+00  -5.59122400e-01
C     1.114430340470000e+01   3.505534574062321e+00   3.671726400000000e+00 -6.50475120e-01   1.31425250e-01   5.02217070e-01
C     1.230927719470000e+01   4.295135677686454e+00   1.567800000000000e-02 -1.73979475e+00   3.61536780e-01   1.14749280e-01
C     3.652691870900000e+00   5.005445067015193e+00  -6.024719999999917e-02  1.26433575e+00   3.78833900e-01   3.11873910e-01
C     3.755864002200000e+00   4.937269521952768e+00   3.781353000000000e+00 -9.68012120e-01   2.48841520e-01  -9.61917200e-01
C     4.933544571400000e+00   5.644459952313582e+00   3.543696000000000e+00  1.91285724e+00  -7.63471790e-01  -1.08561700e-01
C     4.931051716899999e+00   4.338827232609470e+00  -4.314480000000032e-02 -1.79494414e+00  -1.44959597e+00  -7.97702190e-01
C     6.128343579599999e+00   5.017017731748423e+00  -1.499249999999996e-01  1.68244808e+00   3.98051950e-01  -1.67021700e-02
C     6.185167893499999e+00   4.899940981469133e+00   3.458598600000000e+00 -2.05606400e-02   1.92639506e+00  -2.34668640e-01
C     7.416413553600000e+00   5.649967443292972e+00   3.424227900000000e+00 -8.19310480e-01  -1.18960600e-02   4.71344650e-01
C     7.379322353499999e+00   4.265697439056654e+00  -1.890414000000007e-01  1.48959510e-01   3.27253141e+00  -3.71823240e-01
C     8.631412940999999e+00   5.027865349101795e+00  -2.347836000000001e-01 -1.87219174e+00   4.76631680e-01   5.62776530e-01
C     8.622051265400000e+00   4.951515153136552e+00   3.550291800000000e+00  1.46405799e+00  -1.89275070e-01  -1.07066157e+00
C     9.906660477999999e+00   5.637405192635216e+00   3.550626600000000e+00 -8.64054200e-01  -3.06831500e-02   7.41570460e-01
C     9.848012211999999e+00   4.359666773076015e+00  -1.312524000000010e-01 -7.83174150e-01  -2.89668168e+00   5.76222510e-01
C     1.103789295360000e+01   5.039188418558695e+00   4.502880000000000e-02  2.34706390e+00   1.02466445e+00  -7.16521900e-01
C     1.110597620430000e+01   4.907826074526575e+00   3.702782100000000e+00  1.85125406e+00   1.65045752e+00  -1.38282000e-02
C     1.239475333750000e+01   5.652740486946352e+00   3.785599200000000e+00 -2.16399328e+00  -1.91702215e+00  -6.88993860e-01
C     1.351525630900000e+01   6.426779329360790e+00  -1.543083000000003e-01 -2.02320000e-03   4.80953490e-01   4.83380560e-01
C     4.854318830500000e+00   7.183449995239117e+00  -2.016417000000033e-01  1.70912480e+00  -1.20487865e+00   1.74559100e-02
C     4.957716114900000e+00   7.053383104486919e+00   3.415055400000000e+00 -1.98747400e-01   4.65567380e-01   9.17406070e-01
C     6.171836926999999e+00   7.770911287885346e+00   3.437298300000000e+00  1.30598359e+00  -5.95891470e-01  -1.81202840e-01
C     6.128352355000001e+00   6.442471298139677e+00  -2.046326999999977e-01 -2.09070347e+00   1.87899550e-01   6.49504800e-02
C     7.313053934399999e+00   7.144246288054075e+00  -2.297738999999979e-01  2.22814943e+00   1.34230161e+00  -1.84702880e-01
C     7.422647538600000e+00   7.080054618331094e+00   3.431170800000000e+00 -7.01319480e-01  -1.12088731e+00  -4.86885640e-01
C     8.657899957600000e+00   7.735146837951333e+00   3.387213300000000e+00  9.12385810e-01   1.95890306e+00   1.30711935e+00
C     8.585214551899998e+00   6.462180615179089e+00  -2.294744999999985e-01 -4.83138110e-01  -1.66687040e-01   2.36497290e-01
C     9.796299815099999e+00   7.203847983473741e+00  -1.602054000000024e-01  1.66906505e+00  -1.46538657e+00   2.97865060e-01
C     9.909348363299999e+00   7.067228597639610e+00   3.536657700000000e+00 -2.07503900e-02  -4.34516120e-01  -6.18415140e-01
C     1.113972866050000e+01   7.802090545361913e+00   3.563415900000000e+00 -5.29173940e-01  -1.39589908e+00  -4.77976210e-01
C     1.105154338410000e+01   6.499546300358311e+00   8.566200000000000e-03 -1.58108360e-01  -1.39989628e+00  -9.19768980e-01
C     1.231729283240000e+01   7.157290992803953e+00  -1.069575000000000e-01 -1.38233544e+00   1.51195745e+00   4.04620940e-01
C     1.237690540640000e+01   7.013352137966574e+00   3.590753400000000e+00 -4.86750500e-02   3.70579500e+00   3.23759390e-01
C     1.361266694650000e+01   7.783543985379563e+00   3.502914000000000e+00 -1.48265247e+00  -1.42094607e+00  -1.87855840e-01
