76
Lattice="10.7446858958278 0 0 5.37234294791388 9.3051709414712 0 0 0 30 " PBC="1 1 1" Properties=species:S:1:pos:R:3:force:R:3 Energy="-613.22486096"
C     1.432882838206365e-01   7.164618722133340e-02  -1.273029000000001e-01 -7.77165580e-01  -4.08077400e-02   5.19504490e-01
C     1.256368735315444e+01   8.549881474057038e+00  -2.593148999999997e-01 -7.11562400e-02   3.58666590e-01   5.96194100e-02
C     1.394900669028727e+01   8.374512686556839e+00  -2.631159000000025e-01  1.89403529e+00  -1.14270401e+00   5.66465790e-01
C     1.453790428243624e+01   7.029468558366593e+00  -2.172531000000006e-01 -5.46637800e-02   1.75938988e+00  -1.55714920e-01
C     8.362444143880639e+00   9.070217513954317e+00  -1.043343000000014e-01 -3.11811730e-01  -5.61203570e-01   1.81172160e-01
C     9.770950137121666e+00   8.868291861643069e+00  -1.382316000000010e-01 -1.77502760e-01   1.96447260e-01  -2.59811880e-01
C     1.031458042129736e+01   7.544127699576795e+00  -1.916441999999989e-01  5.06725050e-01   6.92113560e-01   3.94685450e-01
C     1.174100650912927e+01   7.407269943890848e+00  -1.995038999999998e-01 -1.05575617e+00  -1.02406567e+00   8.56146300e-02
C     1.228012520714241e+01   6.076662881465720e+00  -1.025883000000007e-01 -3.00816550e-01   4.39684930e-01  -6.34748800e-02
C     1.368076539190005e+01   5.900780262426216e+00  -1.561565999999992e-01  8.08997730e-01   1.24843480e-01   3.18364630e-01
C     6.081448219911239e+00   8.074725202831578e+00  -1.530416999999993e-01 -3.74768480e-01   1.25695000e-02  -1.87245050e-01
C     7.493481586086379e+00   7.937158765326840e+00  -1.352580000000003e-01  2.09588260e-01  -1.07045554e+00  -5.70625300e-02
C     8.038926916327730e+00   6.609238757114055e+00  -1.701468000000013e-01  4.05408170e-01  -4.86822630e-01  -2.83433360e-01
C     9.468355714081252e+00   6.402563745555031e+00  -1.597988999999984e-01 -1.21578010e+00   1.30523778e+00  -3.20641300e-02
C     9.997907666109610e+00   5.112909298747099e+00  -1.101287999999983e-01  1.21398783e+00  -5.85418270e-01   3.00736700e-01
C     1.141317179816459e+01   4.939092427656275e+00   1.221930000000000e-02  3.62324720e-01   5.30132590e-01  -9.82449000e-01
C     1.199208252711008e+01   3.645346218030897e+00  -3.361500000000461e-03  2.70438170e-01   1.28936230e-01   2.73941200e-01
C     5.228550686687224e+00   6.916887714507976e+00  -2.109579000000004e-01 -3.14127240e-01   1.38715910e-01  -5.01535200e-02
C     5.791947271108564e+00   5.612967044873383e+00  -2.495967000000014e-01 -6.66002840e-01   1.99623720e-01   5.47752360e-01
C     7.194695616963219e+00   5.438135258788133e+00  -2.432690999999991e-01  4.85559260e-01   1.04170133e+00   2.37636710e-01
C     7.765476594216192e+00   4.141893216213228e+00  -2.253812999999987e-01  6.04523400e-01   2.72891870e-01   2.29215870e-01
C     9.181569034107204e+00   3.969899786419806e+00  -1.502733000000021e-01 -5.00968810e-01  -4.40797500e-01   2.43166250e-01
C     9.756204882320519e+00   2.662905991030568e+00  -5.972219999999950e-02 -1.54869818e+00  -4.09676670e-01  -2.67132810e-01
C     1.113968236539638e+01   2.494434940644774e+00   1.953300000000000e-03  9.14303280e-01   1.25261327e+00   2.24644400e-02
C     3.536030464774925e+00   4.600302319936003e+00  -8.394719999999722e-02 -1.74016583e+00   1.82547057e+00  -2.50815270e-01
C     4.906952782376632e+00   4.497142031137043e+00  -1.539758999999989e-01  2.45429172e+00  -1.58705269e+00  -3.95545750e-01
C     5.510821858688367e+00   3.182974228108194e+00  -1.745184000000002e-01 -2.36100400e-01  -2.45785840e-01   1.71376510e-01
C     6.925803889015043e+00   3.023351371717537e+00  -1.922514000000000e-01 -5.18930840e-01  -7.80788720e-01  -1.95616470e-01
C     7.491418391499860e+00   1.706969961573770e+00  -1.939835999999993e-01 -8.26735000e-02  -2.13874670e-01   1.94313600e-02
C     8.892072007114880e+00   1.497948278955388e+00  -1.197173999999990e-01  4.29304830e-01   1.28938957e+00  -1.59483570e-01
C     9.444293634689355e+00   1.960997778374232e-01  -1.581023999999971e-01  7.17963800e-01   2.36313620e-01  -2.31009850e-01
C     2.674049588984768e+00   3.507271625141125e+00  -3.474779999999811e-02 -6.95798000e-02  -1.73482737e+00   4.69548400e-02
C     3.274365720009950e+00   2.198304854357479e+00  -6.395459999999886e-02 -7.06963160e-01   1.12052900e-02   1.50621080e-01
C     4.682252550725991e+00   2.006987934383216e+00  -1.344752999999983e-01 -2.80445630e-01   1.66714635e+00   1.30155180e-01
C     5.238729181363723e+00   7.235022575982474e-01  -1.580073000000013e-01  3.93520570e-01  -1.01154329e+00  -2.56088020e-01
C     6.653325155126014e+00   5.684501011733180e-01  -2.421983999999995e-01 -6.33137980e-01  -3.10636270e-01   3.64635760e-01
C     9.720817796543164e-01   1.234171899819635e+00   4.977900000000000e-03  1.29589801e+00  -2.02320635e+00  -6.41376650e-01
C     2.431764926730763e+00   1.063195059951409e+00  -3.502619999999723e-02 -1.34789728e+00   2.11971970e-01  -7.49779000e-03
C     1.597638306050618e+01   9.224330778631399e+00   3.460464900000000e+00  2.76202160e-01   3.76396190e-01   3.55968070e-01
C     1.173320436290984e+01   8.766135879943663e+00   3.643001700000000e+00  2.65485990e-01  -2.15094860e-01  -2.14561910e-01
C     1.315883281898396e+01   8.909142213431634e+00   3.601478700000000e+00 -3.06294620e-01   7.28647170e-01  -2.40884160e-01
C     1.399244912080729e+01   7.757616236453216e+00   3.570624300000000e+00  4.90306460e-01   2.10454100e-01   8.26343100e-02
C     7.520119112965076e+00   8.284817910625154e+00   3.559172100000000e+00  5.27049960e-01  -8.27161670e-01  -7.16624800e-02
C     8.936226702863205e+00   8.450987233927229e+00   3.581053200000000e+00 -9.82399800e-02  -1.15580073e+00  -3.11327460e-01
C     9.765279145627076e+00   7.253562105511620e+00   3.565158900000000e+00 -1.77065000e-03   1.91011872e+00   3.27885620e-01
C     1.118353304025716e+01   7.445560815360658e+00   3.590737500000000e+00 -6.88233250e-01   1.00617135e+00  -1.68221810e-01
C     1.203094530388237e+01   6.347984730665009e+00   3.507483300000000e+00  1.20465280e-01  -2.30802352e+00   3.17820520e-01
C     1.344727095718084e+01   6.448650768393501e+00   3.543288600000000e+00 -5.15298310e-01   5.98007350e-01  -2.58734350e-01
C     4.658775143417343e+00   7.935430050669607e+00   3.567778500000000e+00  6.55960530e-01  -3.95458500e-02  -2.48252400e-01
C     5.555955932556477e+00   6.824680821577619e+00   3.614787000000000e+00 -1.21781950e+00  -7.24380970e-01  -3.73575250e-01
C     6.964892250467800e+00   6.984164658714432e+00   3.615328200000000e+00 -1.01272080e-01  -1.07279141e+00  -2.00692590e-01
C     7.789606042788680e+00   5.796845038991373e+00   3.588424500000000e+00 -7.47137340e-01   9.45871270e-01   4.59144500e-01
C     9.195910234995083e+00   5.968180872354464e+00   3.561470100000000e+00 -6.14748700e-02  -4.64038890e-01  -3.51314810e-01
C     1.004721798449333e+01   4.832068538831318e+00   3.473586600000000e+00  1.79116540e-01   1.35984920e-01   4.53863960e-01
C     1.145157862419071e+01   5.025485449783321e+00   3.466918800000000e+00  7.55869030e-01  -4.83053110e-01  -5.59775960e-01
C     1.231423587795827e+01   3.863010264263223e+00   3.376627200000000e+00 -1.00353395e+00  -1.17292300e-01   8.28825690e-01
C     3.535543032099072e+00   5.304782760995284e+00   3.505975800000000e+00  4.77238250e-01   6.90461570e-01   4.44541000e-01
C     4.958866699324213e+00   5.512367818272240e+00   3.569705100000000e+00 -7.64710710e-01   3.82167310e-01   2.33992260e-01
C     5.755626794467076e+00   4.374489549408100e+00   3.624669300000000e+00  1.93567637e+00  -6.43106910e-01   8.68033300e-02
C     7.181842608795920e+00   4.508668160277002e+00   3.648766500000000e+00  8.12986160e-01   3.07318440e-01  -6.80276260e-01
C     8.052686990878705e+00   3.378918330435791e+00   3.559988100000000e+00  2.30398110e-01  -2.72861320e-01   5.19678540e-01
C     9.485713485535554e+00   3.527258015699733e+00   3.501474000000000e+00 -8.60121370e-01   2.01265130e-01  -3.91350010e-01
C     1.031609472360468e+01   2.384768569376276e+00   3.421889100000000e+00  9.44294970e-01  -1.08865330e-01   1.21829260e-01
C     1.174208398623132e+01   2.541505613103311e+00   3.372874200000000e+00 -2.33311200e-02   1.18861740e-01   8.38541900e-02
C     2.963393020692149e+00   4.002376321827756e+00   3.501906000000000e+00  1.14495912e+00  -7.18076400e-02  -6.29094860e-01
C     3.837311296240637e+00   2.849235432432701e+00   3.528165600000000e+00 -3.82074670e-01   1.79420598e+00   1.78321610e-01
C     5.249185479894168e+00   3.062056044139048e+00   3.625617600000000e+00 -1.00706751e+00  -9.01894690e-01  -2.33123100e-01
C     6.094134470553369e+00   1.915044098635333e+00   3.648470700000000e+00 -2.26660810e-01  -3.11741810e-01  -4.95188200e-02
C     7.501759775614605e+00   2.063715978501832e+00   3.610587900000000e+00  3.42298730e-01   2.01565480e-01  -3.94839230e-01
C     8.361322183778961e+00   9.310607951380242e-01   3.528615900000000e+00 -4.00398400e-01  -1.01608331e+00   5.85565600e-01
C     9.775027960314434e+00   1.074371686870862e+00   3.472981800000000e+00 -4.74745250e-01   1.59185700e-01  -3.18551750e-01
C     1.848438400497520e+00   1.384452178483114e+00   3.412105800000000e+00 -3.09208840e-01   7.22498490e-01   2.66582200e-02
C     3.264789196360997e+00   1.580454531180795e+00   3.491547900000000e+00 -5.01768590e-01  -9.92904410e-01  -9.52898000e-02
C     4.114845566015905e+00   4.509792969340230e-01   3.552040500000000e+00 -8.41888200e-02  -7.12958650e-01   3.11484290e-01
C     5.510427367545550e+00   6.029223165927702e-01   3.640950000000000e+00  9.06910340e-01   4.87893320e-01  -1.93707420e-01
C     1.282022989125717e+00   6.900109932992900e-02   3.450421200000000e+00 -2.95203920e-01   1.43810505e+00   1.51123920e-01
