76
Lattice="10.7446858958278 0 0 5.37234294791388 9.3051709414712 0 0 0 30 " PBC="1 1 1" Properties=species:S:1:pos:R:3:force:R:3 Energy="-609.39636924"
C     2.046718685158940e-01   4.267984144707920e-02   4.477500000000000e-03  3.49361714e+00   8.01558240e-01  -9.64540510e-01
C     1.261074811037471e+01   8.688016364454500e+00   1.344786000000000e-01  1.49211690e+00  -5.65061653e+00  -3.48842300e-01
C     1.404197067971581e+01   8.403547983647760e+00   1.055529000000000e-01  8.81016290e-01   3.03646662e+00   8.76881900e-02
C     1.460044797086812e+01   7.112578157875749e+00   1.055382000000000e-01  2.09801833e+00   1.69521559e+00   4.00007370e-01
C     8.347339425612706e+00   9.021340893919744e+00  -4.303140000000027e-02 -1.80223490e-01  -2.09339530e-01  -8.67310570e-01
C     9.752815739770512e+00   8.852973596189932e+00   7.883310000000000e-02 -1.93779200e-02   1.61918725e+00  -5.85114180e-01
C     1.032405535394113e+01   7.566334024766559e+00   6.056639999999999e-02  2.30202677e+00   2.75121827e+00   3.86659410e-01
C     1.177988454335553e+01   7.480068018222844e+00   8.025060000000001e-02 -7.82565540e-01  -7.14049020e-01  -9.88557770e-01
C     1.233878544374945e+01   6.174553372806229e+00  -1.602089999999983e-01  1.42471834e+00   5.69585700e-01   1.33469819e+00
C     1.378329693316481e+01   6.033464648945572e+00   3.689249999999999e-02 -2.44558242e+00  -3.93687261e+00  -1.77780151e+00
C     6.140150092176146e+00   8.048754842944875e+00   8.141759999999999e-02 -2.13189354e+00   1.00920532e+00  -3.68315510e-01
C     7.465810635317821e+00   7.869809333838762e+00  -3.267600000000215e-02  3.80496301e+00   5.45245100e-02   1.99599910e-01
C     8.030194495203082e+00   6.557924089241494e+00  -7.222110000000015e-02  2.31517781e+00   1.72926713e+00   9.57442940e-01
C     9.485318725775588e+00   6.518774257442213e+00  -6.218699999998023e-03 -1.01094127e+00  -5.34857606e+00  -1.58399346e+00
C     1.010475002908088e+01   5.179038357066397e+00  -2.218988999999993e-01 -8.43002850e-01   3.14148500e-02   1.23474019e+00
C     1.153681347754051e+01   5.005905974349919e+00  -3.183069000000032e-01 -1.73762728e+00  -5.10355500e-02   5.96021410e-01
C     1.203721343129585e+01   3.648072633116317e+00  -3.566994000000001e-01  1.80770987e+00   1.06195605e+00  -3.96405200e-01
C     5.315687456888179e+00   6.950352738224884e+00   1.196004000000000e-01 -2.13342291e+00  -2.36534505e+00   1.95914570e-01
C     5.847619732907394e+00   5.605013450012418e+00   1.234443000000000e-01  3.68204700e-02   6.29294140e-01  -6.96219630e-01
C     7.258112042507326e+00   5.402808363417842e+00   7.986600000000000e-03 -9.75732460e-01   3.19962220e-01   6.40891800e-02
C     7.832235906437507e+00   4.110743039871065e+00  -1.888200000000140e-02 -6.19833550e-01   1.55947280e-01   6.40368270e-01
C     9.252168174728602e+00   4.005713528333678e+00  -8.028930000000045e-02  1.86499490e-01   4.87049300e-02  -1.28897421e+00
C     9.800763631982116e+00   2.684211296518211e+00  -2.015054999999997e-01  1.84373867e+00   1.72113204e+00   1.93538450e-01
C     1.122447400045280e+01   2.517908444013147e+00  -3.224580000000010e-01 -7.54650360e-01  -1.27097649e+00  -6.52847800e-02
C     3.575068379927382e+00   4.689532395630945e+00  -1.184523000000013e-01 -9.03704220e-01  -1.10930627e+00   6.61978100e-02
C     4.975331211316218e+00   4.489543242444021e+00   2.354280000000000e-02 -1.07547727e+00  -4.65611150e-01  -1.13921300e-01
C     5.445140775697116e+00   3.153015671956608e+00   2.741700000000000e-02  4.01669380e+00  -2.63373270e-01   9.69973600e-02
C     6.945182413546560e+00   2.971984687939420e+00   9.183180000000001e-02 -2.08273280e-01   1.35220257e+00  -3.86831490e-01
C     7.572627694553792e+00   1.717320475417170e+00   1.234947000000000e-01 -4.73747710e-01  -6.57674910e-01  -1.27889504e+00
C     9.034342285669922e+00   1.564577211057583e+00  -9.171870000000126e-02 -2.75307217e+00  -1.69326406e+00   1.34399748e+00
C     9.646206375312989e+00   2.620905613165528e-01   2.728920000000000e-02 -6.68627055e+00  -1.03576600e+00   6.05960700e-02
C     2.722428450547819e+00   3.455722746116004e+00  -3.581082000000002e-01  3.68982050e-01   2.58720450e+00   9.16297310e-01
C     3.268544410359618e+00   2.156780435986020e+00  -3.307181999999997e-01  5.27995610e-01  -2.23186780e-01   4.34326070e-01
C     4.683817836567903e+00   1.972338269353938e+00  -7.771259999999813e-02 -2.04923253e+00   2.13850906e+00  -4.39945750e-01
C     5.231811698857874e+00   7.162802352765852e-01   4.606590000000000e-02  7.11838250e-01  -1.34087043e+00   1.29955320e-01
C     6.657256474526535e+00   5.958591335390538e-01   9.920130000000001e-02  2.89978820e-01   2.20391971e+00   5.25968630e-01
C     1.052904166568988e+00   1.166803206627711e+00  -2.933286000000024e-01 -2.34060861e+00   1.43921543e+00   5.42286980e-01
C     2.406036830066642e+00   1.014125078464703e+00  -3.364452000000000e-01  2.53126780e+00  -5.26044520e-01   1.15187531e+00
C     1.589735815209572e+01   9.257194409150454e+00   3.501867600000000e+00  2.32130890e+00  -1.19156061e+00  -4.96911290e-01
C     1.168371326518585e+01   8.724272474194859e+00   3.235102200000000e+00  7.89536520e-01  -5.72167960e-01   8.44490220e-01
C     1.312763041230065e+01   8.902758214804829e+00   3.331429800000000e+00 -1.36548481e+00   7.65497080e-01  -2.18949800e-01
C     1.396303215857998e+01   7.769627816361115e+00   3.365737500000000e+00  8.80633300e-02  -3.82867010e-01  -2.02881210e-01
C     7.502769185131481e+00   8.278950907295775e+00   3.362956500000000e+00 -3.17860507e+00  -1.08449401e+00   5.61136160e-01
C     8.861291597970293e+00   8.409318771509620e+00   3.359574300000000e+00  1.42871814e+00   1.33381832e+00   3.84262890e-01
C     9.694826132733919e+00   7.295890397600586e+00   3.357053100000000e+00  1.36718684e+00  -3.31646067e+00   3.95432580e-01
C     1.114312566116332e+01   7.401198133749079e+00   3.292237200000000e+00 -4.71938090e-01   5.11696680e-01   4.27523030e-01
C     1.201656278967721e+01   6.260067056279444e+00   3.432480900000000e+00 -5.06049180e-01   1.58142429e+00   5.82486090e-01
C     1.344755859242238e+01   6.456892730501897e+00   3.413239800000000e+00 -2.19545628e+00  -9.80961380e-01   1.84911740e-01
C     4.611321399310281e+00   7.953876528489354e+00   3.371592000000000e+00  1.00258934e+00  -6.50189610e-01   4.34447190e-01
C     5.471519301922193e+00   6.796990959152914e+00   3.357675900000000e+00  3.16617060e-01  -8.77246200e-02   2.18078770e-01
C     6.938197991647552e+00   6.963939404417796e+00   3.349777500000000e+00 -2.09847377e+00  -7.30863000e-01   4.63404700e-02
C     7.733816732530688e+00   5.775033718308013e+00   3.403347600000000e+00  3.24440500e-02   1.22589465e+00  -5.00916000e-03
C     9.139560481920544e+00   5.913880547334094e+00   3.496605300000000e+00  2.93686160e-01   2.28416947e+00  -7.92971010e-01
C     9.982308369949703e+00   4.789463697062016e+00   3.602314200000000e+00  1.42046028e+00   2.43070394e+00   3.62058300e-01
C     1.142152906858104e+01   5.007262016911005e+00   3.727143300000000e+00 -1.98954873e+00   9.92097130e-01  -1.60012086e+00
C     1.220831771914470e+01   3.907948377645731e+00   3.711148800000000e+00  3.60797759e+00  -2.93559995e+00   5.97017230e-01
C     3.491186927213550e+00   5.262701986453322e+00   3.499343100000000e+00 -3.34839900e-01   2.87185941e+00   1.02233590e-01
C     4.856877012569393e+00   5.471904189387940e+00   3.427837200000000e+00  3.42577793e+00  -3.16805600e-02  -1.83631840e-01
C     5.763100475638539e+00   4.328675354181591e+00   3.415289700000000e+00 -1.59037937e+00   3.73163180e-01  -2.15078450e-01
C     7.133138881654682e+00   4.504272955835203e+00   3.380286600000000e+00  2.10716120e+00  -1.24599850e+00   5.75246000e-03
C     8.023837616684064e+00   3.344389260421895e+00   3.362322900000000e+00 -4.52667000e-01   9.32758590e-01   1.05755586e+00
C     9.446981310420382e+00   3.527658789412119e+00   3.545050800000000e+00 -1.26040435e+00  -1.73678570e+00  -3.29571290e-01
C     1.029834842430823e+01   2.392307339716736e+00   3.605123100000000e+00  2.97908220e-01  -9.96028600e-02   1.79390020e-01
C     1.172358201317553e+01   2.582288595454271e+00   3.723810900000000e+00 -2.01796503e+00  -1.32384150e+00  -6.11929520e-01
C     2.912532082962769e+00   4.015555793740335e+00   3.647485500000000e+00 -5.10057390e-01  -1.44668500e-01  -8.05872020e-01
C     3.796836816583349e+00   2.931765040637168e+00   3.490068900000000e+00 -1.30806481e+00  -3.41336753e+00   7.43329150e-01
C     5.204196889073144e+00   3.022086705935081e+00   3.396486900000000e+00  2.76763110e-01  -7.11219590e-01  -6.72887200e-02
C     6.029836873318603e+00   1.804527886104884e+00   3.316428300000000e+00  3.87912550e-01   3.08274860e+00   8.69603780e-01
C     7.473503615528504e+00   2.043532318319297e+00   3.403473300000000e+00 -1.42280061e+00  -6.45552660e-01  -9.82896710e-01
C     8.325595458480306e+00   9.194814404202881e-01   3.396170100000000e+00 -5.04745310e-01  -7.93086020e-01   1.86172610e-01
C     9.724360426931254e+00   1.089688370444939e+00   3.501302100000000e+00 -1.13797060e-01   6.53817260e-01   2.03553070e-01
C     1.773769656368067e+00   1.393047457932101e+00   3.622681500000000e+00  1.68558727e+00   6.84601310e-01  -6.15941900e-02
C     3.217290378296586e+00   1.559495564155539e+00   3.543250800000000e+00 -3.78338030e-01   1.18119513e+00  -8.55728400e-02
C     4.048949750476943e+00   4.181431166692416e-01   3.457956300000000e+00 -9.18517120e-01  -2.36789100e-01  -6.65719570e-01
C     5.425373078642303e+00   5.351797416324762e-01   3.341360400000000e+00  2.18853821e+00   3.76680220e-01  -3.35338150e-01
C     1.228989368460497e+00   7.694324883063780e-02   3.515987400000000e+00 -4.75052220e-01   1.00264115e+00  -1.28800230e-01
