64
Lattice="7.10842262195238 0 0 0 7.10842262195238 0 0 0 7.10842262195238 " PBC="1 1 1" Properties=species:S:1:pos:R:3:force:R:3 Energy="-511.04085175"
C     7.740027295054860e-02   4.489928521583700e-02   7.067095530403392e+00 -2.86034136e+00  -1.37848016e+00   3.12353240e-01
C     1.750426962980652e+00   1.777342081136341e+00   2.375713032252820e-02  1.53199282e+00  -3.23050450e-01   2.61231590e-01
C     7.086951416223611e+00   1.800145474395944e+00   1.687872843924652e+00  8.70100060e-01  -1.61096317e+00   3.39216180e+00
C     1.748424093823240e+00   7.079804323784558e+00   1.812715369199116e+00  1.42801252e+00   1.01825167e+00  -7.52346020e-01
C     8.968485699502187e-01   8.849305175013004e-01   8.936283123349061e-01 -1.03206600e-02  -1.82992920e-01  -1.60089450e-01
C     2.661762853651561e+00   2.623162554971985e+00   9.494130805298802e-01 -6.80898070e-01   2.55617011e+00  -2.50561826e+00
C     8.531808189532966e-01   2.670551920631608e+00   2.651305013377244e+00  7.36571300e-02   2.19640130e-01  -1.92242140e-01
C     2.698757999419316e+00   8.919999859653427e-01   2.647231176373722e+00 -1.37532321e+00  -6.39611310e-01   9.04392040e-01
C     3.494368343331268e+00   2.328811659806060e-02   2.629867574608300e-02  2.28847733e+00  -4.90661800e-01  -4.64896050e-01
C     5.305117238496787e+00   1.784379561698594e+00   7.048070903524355e+00  1.08772743e+00  -1.48606955e+00   1.30847406e+00
C     3.576365135600587e+00   1.791664628620701e+00   1.771497678226630e+00 -8.65827350e-01  -1.52143308e+00   4.80459680e-01
C     5.335606755882718e+00   1.075959281453680e-02   1.771106075224494e+00 -1.70292200e-02   8.39043920e-01  -3.18202360e-01
C     4.433965189812512e+00   8.855095696079256e-01   8.798054869607327e-01 -9.49534000e-03   6.36316070e-01  -1.27307900e-01
C     6.237536852827070e+00   2.612986705823003e+00   8.378982789941062e-01 -1.17416279e+00   2.65308688e+00  -7.96232900e-01
C     4.434797515017087e+00   2.625532858494624e+00   2.643610145891094e+00  1.26287197e+00   1.27951594e+00   2.08958386e+00
C     6.207157515991748e+00   9.201382504012555e-01   2.653428370298064e+00  1.71410910e-01  -1.14007716e+00   4.10783670e-01
C     1.244258295404800e-03   3.565310329994642e+00   7.091475216378979e+00  8.56436540e-01   9.60864870e-01   1.73243400e-02
C     1.833482554799220e+00   5.337775891045210e+00   7.337825634792640e-02 -1.16027363e+00   1.89775700e-01  -3.74011132e+00
C     7.107420048073675e+00   5.343909891092460e+00   1.805945520748507e+00 -8.84287940e-01   1.84623290e-01  -8.09751790e-01
C     1.732926452995569e+00   3.603478081157792e+00   1.803275312875530e+00  1.38187966e+00  -1.76694666e+00  -5.84154360e-01
C     8.960462422890991e-01   4.510240057293862e+00   8.744597398978141e-01 -3.87946470e-01  -2.05248952e+00   1.70006934e+00
C     2.707245882532953e+00   6.217905237740510e+00   8.796713510258934e-01 -1.52119541e+00   4.83141300e-02   2.89288085e+00
C     8.410407704659558e-01   6.222867058897723e+00   2.731042820022153e+00  1.23689546e+00  -3.54469360e-01  -2.64995136e+00
C     2.629067379473967e+00   4.436598362803638e+00   2.697308663131324e+00  8.95164200e-01   9.43366080e-01  -8.39813660e-01
C     3.564374292904041e+00   3.527188001652034e+00   7.083071212652258e+00 -2.99347690e-01   7.15015620e-01   1.27631259e+00
C     5.308494592252002e+00   5.291880573651859e+00   2.229485670536800e-02  7.70011850e-01   2.37580248e+00  -4.91270360e-01
C     3.607234456007104e+00   5.331048479877643e+00   1.827781813110658e+00 -1.39954483e+00  -4.92209790e-01  -1.16027031e+00
C     5.386045492677868e+00   3.487733057320855e+00   1.738817416073442e+00 -1.72221456e+00   9.81001850e-01   2.03972573e+00
C     4.454261655666719e+00   4.417387068746600e+00   9.364801585835045e-01  6.04363550e-01  -7.99585490e-01  -1.44267129e+00
C     6.200531542014969e+00   6.289821860229313e+00   8.578746525777350e-01  1.18385321e+00  -2.42558832e+00   8.93734810e-01
C     4.493923241843461e+00   6.226283224640443e+00   2.673400763165025e+00 -5.13925910e-01  -4.23308200e-01  -1.92892210e-01
C     6.230610192573462e+00   4.378778311044106e+00   2.705025140222239e+00 -3.39509540e-01   1.71575141e+00  -1.85329723e+00
C     1.814979330719360e-02   1.556190096815640e-02   3.554539505872365e+00 -2.69937140e+00   1.99142680e-01  -7.64909100e-02
C     1.734988535313405e+00   1.788125700419334e+00   3.543330376411340e+00  2.04823786e+00   5.66947500e-01  -1.32744045e+00
C     1.087396733449260e-02   1.841764791246460e+00   5.350630620342766e+00  5.73714410e-01  -2.54616359e+00  -7.00984180e-01
C     1.804211918639941e+00   7.057620642808967e+00   5.178663020561690e+00 -1.31543406e+00   2.48648357e+00   5.14904699e+00
C     8.654098648918398e-01   9.033450995510890e-01   4.375381266958234e+00  1.31141410e+00   3.73177800e-02   2.40883027e+00
C     2.670973805514105e+00   2.732770166718813e+00   4.420680685283350e+00 -9.51130640e-01  -2.76387578e+00   1.20047204e+00
C     9.199794482399247e-01   2.674791170629497e+00   6.236301764396844e+00 -6.84459220e-01  -1.28255250e-01   2.92687230e-01
C     2.668787467968872e+00   9.059299352683996e-01   6.263820671969877e+00 -1.40040891e+00  -1.17341620e-01  -2.78949193e+00
C     3.570548171202189e+00   7.064342225069987e+00   3.528818176211479e+00  2.45817000e-01   1.97127307e+00   4.84927540e-01
C     5.319416825776084e+00   1.731874335363583e+00   3.637844461156443e+00  6.68244300e-01   1.46778235e+00  -2.52366282e+00
C     3.523180415147331e+00   1.791883425868944e+00   5.320990132954568e+00  3.53674680e-01  -6.94079890e-01   5.88457240e-01
C     5.309012156502964e+00   7.103659834676147e+00   5.336531277328675e+00  9.57221160e-01  -6.84062660e-01   2.03449254e+00
C     4.432214669658110e+00   8.670079804652682e-01   4.516863045733142e+00 -5.71725770e-01  -4.58064300e-02  -2.60526042e+00
C     6.273735997429836e+00   2.691577141972818e+00   4.470537668771280e+00 -3.89264592e+00  -2.21698951e+00   5.88143900e-01
C     4.446652657925818e+00   2.637705534641790e+00   6.163847531905292e+00 -1.01735822e+00   9.46733430e-01   1.87101781e+00
C     6.237078857157663e+00   9.114579422872950e-01   6.202101934740178e+00 -6.63049100e-02  -2.69861710e-01  -2.79504220e-01
C     7.063606290076138e+00   3.507567760041667e+00   3.596348830859514e+00  1.48781153e+00   1.14859028e+00  -1.91782208e+00
C     1.707556990254372e+00   5.310181989613537e+00   3.521228939885462e+00  1.73604508e+00  -6.25188390e-01   2.31447603e+00
C     1.722498752433160e-02   5.320149561979753e+00   5.284895126743185e+00 -1.16451755e+00   4.84286720e-01   2.88023001e+00
C     1.772694523343159e+00   3.526798673345137e+00   5.351462945547341e+00  3.13563290e-01   2.18629532e+00  -4.01753750e-01
C     8.029479420772212e-01   4.380765115166396e+00   4.469282392420815e+00  3.41802770e+00   1.26934350e+00  -1.17466675e+00
C     2.691978057008586e+00   6.204857017179239e+00   4.392745721734370e+00 -1.25455729e+00  -4.37672460e-01  -7.52910990e-01
C     9.051455208322825e-01   6.205995502146058e+00   6.203564634862696e+00  1.40509416e+00   5.23149610e-01  -1.08987998e+00
C     2.685443781683603e+00   4.475332228744244e+00   6.213608693856304e+00 -4.31023580e-01  -1.20681863e+00   2.24979330e-01
C     3.564603041943951e+00   3.586417084943303e+00   3.590267290971199e+00 -3.76734300e-01  -4.56710820e-01  -2.32835296e+00
C     5.364491902283314e+00   5.345670149785851e+00   3.562119145827845e+00 -2.85975820e-01  -1.41547363e+00  -3.99681470e-01
C     3.554459962623248e+00   5.395526635684198e+00   5.293707438265199e+00  2.26382580e-01  -2.60322379e+00   1.48409612e+00
C     5.304258327791612e+00   3.506265497017683e+00   5.347996665425152e+00  2.21312072e+00   3.28502771e+00  -1.50063958e+00
C     4.475857399007410e+00   4.462060163954669e+00   4.416826498538787e+00 -9.37923710e-01  -2.02077260e-01   1.56385458e+00
C     6.204250100055943e+00   6.192163933412061e+00   4.479423197046280e+00  7.79635710e-01   1.85351095e+00  -1.50346000e+00
C     4.386521018214488e+00   6.214884726800820e+00   6.274748165726698e+00  1.46464073e+00   5.68728830e-01  -1.63871790e+00
C     6.262229949155973e+00   4.500168773041620e+00   6.204379189010722e+00 -2.57795975e+00  -2.83818783e+00   1.03719533e+00
