64
Lattice="7.10842262195238 0 0 0 7.10842262195238 0 0 0 7.10842262195238 " PBC="1 1 1" Properties=species:S:1:pos:R:3:force:R:3 Energy="-512.11609683"
C     7.094455209309736e+00   5.448854733021700e-02   2.930809754648620e-02  2.60132100e-01  -3.58792980e-01   1.34961420e-01
C     1.781138760741909e+00   1.733679874709063e+00   2.738185718491860e-02  7.93475090e-01   2.29929914e+00  -1.69865913e+00
C     1.115027172173200e-03   1.826789761649811e+00   1.872581438241363e+00 -3.01721150e-01  -9.57113060e-01  -3.11837570e+00
C     1.756223881627262e+00   3.209395945549040e-02   1.752252903499051e+00 -2.48416950e-01  -6.98297990e-01   1.42290143e+00
C     8.620152376696587e-01   9.573145187773675e-01   9.070335178801545e-01  4.32361550e-01  -1.41984504e+00   6.45946130e-01
C     2.726338679184916e+00   2.659226923881876e+00   8.439950309068278e-01 -1.72391750e+00  -5.18396300e-01   1.32710015e+00
C     9.235763100856448e-01   2.688856251046560e+00   2.653121712946237e+00 -5.33430300e-02   2.02305570e-01   1.17341950e+00
C     2.647247952251105e+00   8.594744030883660e-01   2.713259536985246e+00 -2.34145560e-01   1.56314119e+00  -1.76751227e+00
C     3.624231618586465e+00   7.103276548528477e+00   7.059453976086891e+00 -3.35787553e+00  -2.33003830e-01   1.87333680e+00
C     5.307291349555114e+00   1.729137663739109e+00   5.731578025886960e-02  1.65298339e+00   2.01155607e+00  -7.13471350e-01
C     3.549059054200797e+00   1.751091600495622e+00   1.763207196009150e+00  2.66040860e-01   5.57955800e-02   8.21468680e-01
C     5.313257875165437e+00   7.081637514894030e+00   1.824077258662246e+00  2.13517000e-03   5.73299760e-01   7.08244850e-01
C     4.441611862193297e+00   8.129852480693398e-01   9.298802725177394e-01  2.94809970e-01   2.14222772e+00  -9.10106310e-01
C     6.211900966406075e+00   2.737015885381286e+00   9.094990742659016e-01 -5.54892680e-01  -3.25001589e+00   9.86970270e-01
C     4.411204660341308e+00   2.698256358035022e+00   2.647536767462155e+00  6.04790460e-01  -1.18825069e+00  -3.78455610e-01
C     6.249964934598973e+00   8.645338228881509e-01   2.720261262181720e+00 -2.32285594e+00   2.34968862e+00  -1.58358750e+00
C     2.110625735907780e-02   3.500548192704417e+00   7.103934646294637e+00 -3.92041830e-01   1.62621049e+00  -1.80191120e-01
C     1.748760108960488e+00   5.332005202478069e+00   7.049253034206060e+00  3.95287380e-01  -5.28947060e-01   2.69760443e+00
C     1.278030411272420e-02   5.347276155708388e+00   1.790945682756914e+00 -5.76979560e-01  -9.79055790e-01  -6.50266610e-01
C     1.807615360306171e+00   3.544512862514177e+00   1.738349113191236e+00 -1.76647190e-01   3.05703840e-01   4.19554460e-01
C     8.863303080836308e-01   4.388937739736836e+00   8.767254785237130e-01  2.98447580e-01   1.97168857e+00  -5.61262240e-01
C     2.606263630793233e+00   6.225132797523622e+00   8.956709886589894e-01  1.53774928e+00   3.35960260e-01  -2.18537347e+00
C     8.746852901475468e-01   6.231008832913992e+00   2.656307850132973e+00  8.68984100e-01   4.96039900e-02   6.41496470e-01
C     2.661886682373602e+00   4.471459204679737e+00   2.630089854983627e+00  2.86838220e-01  -1.59026562e+00   4.52676260e-01
C     3.570399960590562e+00   3.555335720290032e+00   7.083253828029366e+00  4.23419570e-01   1.95662030e-01  -7.46269850e-01
C     5.377666155177638e+00   5.380828834569728e+00   7.070742506628583e+00 -5.31784150e-01  -1.66810205e+00   1.12735960e+00
C     3.515475240448382e+00   5.368758732960969e+00   1.730336499213972e+00  3.85629810e-01  -7.87435650e-01   9.32190080e-01
C     5.288041314594797e+00   3.602596921089816e+00   1.799787778569706e+00  1.18011128e+00  -1.29361960e-01  -2.20886582e+00
C     4.461672257332295e+00   4.485799452136421e+00   8.011128316936420e-01 -7.94224460e-01   6.89424900e-02   2.71960409e+00
C     6.221562379010048e+00   6.266421430553856e+00   9.489708655586899e-01  9.59186000e-02  -1.39841761e+00  -1.98408273e+00
C     4.336553640923269e+00   6.218580466805184e+00   2.718210197918945e+00  3.02243183e+00  -5.43858060e-01  -1.95774910e+00
C     6.214363466170096e+00   4.438015782274066e+00   2.663162359896987e+00 -3.15131890e-01   1.02707720e+00  -1.95990730e-01
C     7.100360815738205e+00   2.554056247366000e-02   3.577583021648072e+00  7.10549770e-01  -1.41620170e+00  -6.42795720e-01
C     1.787156111573965e+00   1.808355844690496e+00   3.559127708336671e+00  1.24722890e-01  -1.53339998e+00   9.67149660e-01
C     7.067352428796879e+00   1.789483195887075e+00   5.316085463515221e+00  1.59459589e+00   1.52754520e-01   5.54752770e-01
C     1.724973620852539e+00   7.093682381602489e+00   5.377257491961215e+00  9.40106060e-01   9.65126960e-01  -1.60870207e+00
C     8.393876357014486e-01   9.060640001190129e-01   4.458180031467542e+00  1.37377670e+00  -2.87125120e-01   5.90932900e-02
C     2.755523090177814e+00   2.625608136690170e+00   4.475871402599972e+00 -3.07829129e+00   1.18614552e+00  -1.36070836e+00
C     9.360463315510060e-01   2.638378986600809e+00   6.205249828613220e+00 -1.84185243e+00   4.06583400e-02   3.18815040e-01
C     2.650838629769146e+00   8.996597378437500e-01   6.204140701431821e+00  1.18100740e+00  -1.53344471e+00   1.15855364e+00
C     3.510540786718256e+00   7.100066953547095e+00   3.608553281655793e+00 -3.02841440e-01  -3.50237670e-01  -7.85976970e-01
C     5.300446293993185e+00   1.824071571924149e+00   3.519550712389106e+00  8.25372720e-01  -2.09074271e+00   1.49080028e+00
C     3.599513145188807e+00   1.743255630820465e+00   5.354563284073055e+00 -5.71272890e-01   5.05292050e-01  -4.60699750e-01
C     5.390021091280781e+00   7.062373476341151e+00   5.349424605361056e+00 -1.75629503e+00   1.75383603e+00  -2.14069651e+00
C     4.423117594725939e+00   8.451601724584720e-01   4.432371410376882e+00  1.49515206e+00   1.29778186e+00   1.08596361e+00
C     6.225377469430202e+00   2.671475660151077e+00   4.435261268508816e+00 -4.71591500e-02   4.76674600e-01  -1.05335453e+00
C     4.506292465876071e+00   2.635685605270091e+00   6.237840382472943e+00 -1.64126129e+00   4.07013190e-01  -4.94745930e-01
C     6.225211345593573e+00   9.409716865001778e-01   6.215345494755049e+00 -6.06036160e-01  -2.38841064e+00   1.06680862e+00
C     1.959123924607720e-02   3.577352282249826e+00   3.538507098410991e+00 -2.50832600e-01  -6.91611180e-01  -1.37096390e-01
C     1.802638895798361e+00   5.306665879448780e+00   3.563110344277978e+00 -1.17497117e+00   1.42255301e+00  -1.33934256e+00
C     7.103766958605030e+00   5.309431269100639e+00   5.325844403677541e+00  1.00999476e+00   5.06561640e-01  -1.02328450e+00
C     1.770614883221452e+00   3.526522155705218e+00   5.303975412571337e+00  1.66001238e+00   3.14811910e-01   3.88803930e-01
C     9.201934117607867e-01   4.428284067370381e+00   4.393662494999671e+00 -9.08970670e-01  -4.10702700e-02   1.78635771e+00
C     2.610737103316451e+00   6.212347659683516e+00   4.459562264246000e+00  1.31122143e+00  -3.27435230e-01   9.27946400e-01
C     8.742392366281417e-01   6.227867834210893e+00   6.253743558811085e+00 -1.35391140e+00   3.28065800e-02  -8.84206360e-01
C     2.646189863544118e+00   4.460420890614270e+00   6.186047562252909e+00  2.84482980e-01  -1.48936600e+00   8.49534440e-01
C     3.533680834873142e+00   3.527830176551525e+00   3.537648543126948e+00  1.05297091e+00   1.40859171e+00   7.26414160e-01
C     5.313572067445241e+00   5.322696438720274e+00   3.519509128116779e+00 -5.80949230e-01   1.30587380e-01   1.49520089e+00
C     3.552826589273624e+00   5.296196025940234e+00   5.360975507781652e+00  2.05677090e-01   1.49333352e+00  -1.57952363e+00
C     5.383335477638219e+00   3.554640729810474e+00   5.298456433249169e+00 -1.37986295e+00  -6.29579650e-01   1.64639746e+00
C     4.453209893455863e+00   4.425530548784297e+00   4.469680890592891e+00 -3.04414540e-01   9.87668400e-02  -1.44265119e+00
C     6.226608861480665e+00   6.206167952478819e+00   4.373930224648813e+00 -1.35777610e-01  -2.78845850e-01   2.88036672e+00
C     4.463019729924143e+00   6.224622839284863e+00   6.202401057164029e+00  6.55586800e-01  -7.41648340e-01  -6.09495500e-02
C     6.247344201347431e+00   4.414458825132518e+00   6.197466176928546e+00  3.03660050e-01   1.07944292e+00   3.31072930e-01
