64
Lattice="7.10842262195238 0 0 0 7.10842262195238 0 0 0 7.10842262195238 " PBC="1 1 1" Properties=species:S:1:pos:R:3:force:R:3 Energy="-514.01711489"
C     7.976787527259201e-03   7.102947570729623e+00   7.107973438774642e+00 -3.26837260e-01  -7.21543410e-01  -1.39855540e-01
C     1.768181883411304e+00   1.775789104046550e+00   5.035890920912799e-03 -7.95782000e-02  -2.81681750e-01   5.84107240e-01
C     7.076605036015975e+00   1.760344847472754e+00   1.749592647417742e+00  1.45954045e+00  -4.62654000e-02   1.83264925e+00
C     1.766338314004807e+00   7.090789964438411e+00   1.798720306744860e+00  8.01130550e-01   5.46285960e-01  -4.74150630e-01
C     8.801425683613732e-01   8.570101262186907e-01   9.200639673848766e-01 -3.80078900e-02   5.64992100e-01  -1.33532957e+00
C     2.629085861372778e+00   2.675878830374584e+00   9.023873106872702e-01  1.54077852e+00  -5.80360950e-01  -1.13224416e+00
C     8.997132642660786e-01   2.659116814415492e+00   2.689480086215692e+00 -1.21874631e+00   2.57095890e-01  -1.54835456e+00
C     2.658177791787391e+00   9.131646745583570e-01   2.637650799787616e+00  8.51926570e-01  -1.26374571e+00   1.02143690e+00
C     3.526262485026910e+00   2.247512630301120e-02   9.913406185852000e-03  1.53805145e+00  -2.32545390e-01  -1.24880494e+00
C     5.355273344408567e+00   1.802991331391861e+00   7.091635440224834e+00 -1.56816593e+00  -1.52143002e+00  -2.62116880e-01
C     3.565826401476853e+00   1.772374786493711e+00   1.766581777479542e+00 -7.73100600e-01   9.41289800e-01  -8.42454500e-02
C     5.330281978666528e+00   6.808802606567000e-03   1.763875032314299e+00  2.25327110e-01   2.02333250e-01  -6.30637450e-01
C     4.449954164811677e+00   9.083750193970009e-01   8.492229914069329e-01 -2.96871050e-01  -2.29680570e-01   1.03051426e+00
C     6.201931688018430e+00   2.610818423671224e+00   9.041113875095249e-01  9.47937770e-01   2.83965055e+00  -1.12341760e+00
C     4.423456808653365e+00   2.667262071558846e+00   2.674766859824137e+00  9.79208700e-01   3.40615200e-02   6.43309000e-03
C     6.205478008979322e+00   9.116198721545786e-01   2.647601596276450e+00  4.77349310e-01  -1.67442109e+00   8.77815140e-01
C     7.103017944113561e+00   3.541268933851540e+00   6.248303482980000e-04 -1.61889800e-02   8.25965720e-01   6.10076820e-01
C     1.790895923798574e+00   5.327324732688155e+00   3.938634805289600e-02  1.88343000e-02   7.76208280e-01  -2.20640499e+00
C     7.086076440483315e+00   5.310441731376073e+00   1.789836910996646e+00  1.15533658e+00   9.41258140e-01  -4.52223600e-02
C     1.760087735826589e+00   3.561352644616730e+00   1.763652254349388e+00  3.82349900e-01  -6.68345000e-02   1.03754307e+00
C     8.950965570270670e-01   4.461134931666449e+00   8.757547523307257e-01 -9.87546370e-01  -9.03189040e-01   1.22800244e+00
C     2.701399631433360e+00   6.245643084730239e+00   8.711096114012343e-01 -1.68907354e+00  -1.19570998e+00   1.40349342e+00
C     9.126090091621515e-01   6.208478616335676e+00   2.696463116260675e+00 -1.39129556e+00  -4.28697900e-02  -9.38026010e-01
C     2.666105957703929e+00   4.443840850274252e+00   2.669965689018136e+00 -3.04957870e-01   2.74510030e-01  -4.65973920e-01
C     3.561805948727208e+00   3.549428194587454e+00   7.074854302608895e+00 -9.69087730e-01  -9.55788100e-02   1.46545151e+00
C     5.301002670231653e+00   5.316647526491785e+00   1.263841999722900e-02  7.89958490e-01   5.50083410e-01  -3.60768920e-01
C     3.560426488233571e+00   5.316051414170871e+00   1.756218976815654e+00  1.66250400e-02   7.25153180e-01   8.44740520e-01
C     5.366074805832335e+00   3.556520481088107e+00   1.761214278643407e+00 -1.72520484e+00  -7.56937250e-01   1.64286377e+00
C     4.424828165545216e+00   4.421384205870052e+00   9.180247031036510e-01  9.69194630e-01  -3.92674400e-02  -1.97782853e+00
C     6.204081417187171e+00   6.208011664053768e+00   8.885858105809568e-01  4.44216970e-01   1.54122690e-01  -2.20418300e-02
C     4.481568518992996e+00   6.216722040795411e+00   2.615566707812932e+00 -1.39640798e+00   2.55996390e-01   1.45752572e+00
C     6.227459028826017e+00   4.445900444644169e+00   2.700091255165923e+00  3.42355280e-01  -9.33217760e-01  -1.21827583e+00
C     1.039841386121460e-02   7.090222925566014e+00   3.575547666999287e+00 -1.57178740e-01   8.84970920e-01  -6.71429850e-01
C     1.787591431375214e+00   1.787547359154970e+00   3.531514543079697e+00 -3.64519810e-01  -5.67777200e-02   6.65573140e-01
C     7.093174698058969e+00   1.794529891610370e+00   5.366041964919830e+00  9.38838610e-01  -4.26647150e-01  -1.22848879e+00
C     1.785154877353757e+00   1.808695485123280e-02   5.309598672453339e+00  2.65023990e-01  -1.01064710e+00   4.09068640e-01
C     8.976469168946707e-01   8.937248447140858e-01   4.439728627788582e+00 -2.87709760e-01   3.81078930e-01   2.25652820e-01
C     2.627977160696737e+00   2.702805322006465e+00   4.429023556575540e+00  1.62182214e+00  -1.08780478e+00   1.00846802e+00
C     8.796985762845280e-01   2.682438198431415e+00   6.264589163539325e+00  5.64027500e-02  -1.01898183e+00  -1.21038794e+00
C     2.665913959208963e+00   8.844290893696856e-01   6.210452269876119e+00 -4.11273540e-01   7.22533690e-01   2.45083480e-01
C     3.568855229271010e+00   7.102578999016776e+00   3.541816708898637e+00  1.70283990e-01   4.25977960e-01  -3.57316430e-01
C     5.338169839826810e+00   1.758498221444531e+00   3.559249617784603e+00 -4.59032660e-01   1.28571751e+00  -1.32644380e-01
C     3.565846944818225e+00   1.775163136350633e+00   5.335687578647907e+00 -8.47776560e-01   2.15846550e-01  -6.91106550e-01
C     5.347698893601599e+00   1.154173255541540e-02   5.306947088647628e+00 -3.19176420e-01  -7.09698720e-01   1.77903207e+00
C     4.469234765989261e+00   8.953327699107299e-01   4.463260918703639e+00 -8.88914050e-01  -4.55650760e-01  -1.38423979e+00
C     6.213383641196154e+00   2.677456615859319e+00   4.442362156200838e+00 -1.17103980e-01  -1.06475677e+00   8.21365480e-01
C     4.426786678145478e+00   2.666218981623587e+00   6.189883480351340e+00  9.11694130e-01   3.72219710e-01   1.04435659e+00
C     6.225208288971846e+00   8.822357855702846e-01   6.214180637540309e+00  2.29733380e-01   4.34207080e-01   3.14739410e-01
C     3.209666065608600e-03   3.520151231932044e+00   3.589455082602638e+00 -1.49545640e-01   1.00170093e+00  -8.64032370e-01
C     1.764388544764367e+00   5.321061003928090e+00   3.543992383809941e+00  8.14909070e-01  -4.12564600e-01   1.19620794e+00
C     7.100337286859333e+00   5.314268835030454e+00   5.322886517941132e+00  2.76050950e-01   4.02541290e-01   8.69951050e-01
C     1.761581570840182e+00   3.558695018651791e+00   5.359215959930523e+00 -8.55074600e-02  -9.86468600e-02  -3.47079980e-01
C     8.571479585332924e-01   4.410150268014083e+00   4.476931410581066e+00  1.11097403e+00   9.02287360e-01  -1.01669474e+00
C     2.699999627598351e+00   6.213462047097654e+00   4.427549269724151e+00 -1.22260192e+00   4.40876170e-01  -7.54176200e-02
C     8.991236916939758e-01   6.205340887506982e+00   6.202202305667573e+00  2.03581500e-02   4.96659620e-01   6.63812420e-01
C     2.657202800540831e+00   4.441928613505246e+00   6.216870393575491e+00  8.04296290e-01   3.56413180e-01   7.64791600e-02
C     3.558947367654801e+00   3.587473112207730e+00   3.581509287798002e+00 -5.24290110e-01  -7.78371660e-01  -1.41654013e+00
C     5.338505357374475e+00   5.340419229080683e+00   3.539617291855783e+00  4.25555740e-01   1.55544350e-01   1.28081230e-01
C     3.572905039806076e+00   5.346124946665078e+00   5.313719567214607e+00 -6.06600720e-01  -1.98421960e-01   4.59247250e-01
C     5.326574012175257e+00   3.553700356582074e+00   5.345097850680715e+00  6.40689700e-02   7.82345850e-01  -1.52520675e+00
C     4.458913194176569e+00   4.480301158324076e+00   4.405451671746489e+00 -3.87950200e-01  -9.71976530e-01   1.77894872e+00
C     6.229866082893601e+00   6.208704024416956e+00   4.467448206132176e+00 -2.61571830e-01   4.77292200e-01  -1.34754255e+00
C     4.433860980336902e+00   6.225769641106147e+00   6.225124480669156e+00  1.88361110e-01   1.25213360e-01  -2.35643150e-01
C     6.225420191050149e+00   4.451243917011850e+00   6.211544194674778e+00 -9.68513750e-01  -8.39292040e-01   9.88533920e-01
