64
Lattice="7.10842262195238 0 0 0 7.10842262195238 0 0 0 7.10842262195238 " PBC="1 1 1" Properties=species:S:1:pos:R:3:force:R:3 Energy="-513.33491212"
C     7.076249330548070e+00   6.147726411329620e-02   7.085739856672259e+00  1.26065838e+00  -1.44634668e+00   1.27561124e+00
C     1.765079483443031e+00   1.749384726056108e+00   1.589158960927200e-03  4.13850990e-01   1.06438637e+00  -7.58371500e-01
C     1.076115666751320e-02   1.813525516125118e+00   1.760603807308801e+00 -1.04858895e+00  -1.02064840e+00   7.16490870e-01
C     1.787651852967485e+00   2.045519693131200e-03   1.761820200587535e+00 -5.40359860e-01   4.22764910e-01   7.44919530e-01
C     8.640759693871968e-01   9.384650434316872e-01   9.158035342875795e-01  1.17920629e+00  -2.02528545e+00  -1.42439758e+00
C     2.702469306869217e+00   2.632191744468135e+00   8.393874224487700e-01 -1.05465566e+00   6.04577540e-01   1.54246633e+00
C     8.754312480172896e-01   2.688346790397385e+00   2.639637888246811e+00  1.44941998e+00  -1.89046080e-01   7.15521730e-01
C     2.664746258625175e+00   8.807570204126459e-01   2.671685785123724e+00  1.34920830e-01   6.72729550e-01  -4.24099600e-02
C     3.564771298307367e+00   7.094568233229394e+00   7.088112434890136e+00 -1.88711930e-01   6.13535090e-01   3.75874360e-01
C     5.313552803619942e+00   1.735454563500372e+00   2.911816049407980e-02  7.92040420e-01   4.21146380e-01  -1.18273008e+00
C     3.571785178906521e+00   1.745380693762714e+00   1.769156803573637e+00 -7.50538350e-01   5.23625870e-01   1.42449080e-01
C     5.295378486254709e+00   7.088826618110767e+00   1.837437183555405e+00  2.05297116e+00  -5.88924850e-01  -6.66025050e-01
C     4.455068248381410e+00   8.097227664236646e-01   9.250726330471547e-01 -5.75869990e-01   1.94560847e+00  -7.96351080e-01
C     6.211184508490206e+00   2.652339217784227e+00   8.500063395796570e-01 -4.36106440e-01   2.03813920e-01   1.89778455e+00
C     4.404917473786596e+00   2.700785463718992e+00   2.647305956979684e+00  1.05940488e+00  -1.88032668e+00   1.23256238e+00
C     6.237035993369265e+00   8.755250081116474e-01   2.671911690794587e+00 -1.02052632e+00   9.41919760e-01  -3.49241240e-01
C     1.273957285111160e-02   3.534881731790565e+00   1.039784518740500e-02 -8.52033340e-01   2.92790870e-01  -9.84581760e-01
C     1.735828679782863e+00   5.367184643855996e+00   9.127854402115800e-03  6.30803790e-01  -1.49928707e+00  -9.87725900e-02
C     4.436992098332560e-02   5.294383022751004e+00   1.793832342098670e+00 -1.34928775e+00   7.12359790e-01  -2.32759280e-01
C     1.805329504844257e+00   3.557817483879353e+00   1.761856382458671e+00  1.53318600e-02  -2.60618180e-01   7.97793000e-03
C     8.844388279086750e-01   4.412691173679602e+00   8.979180321333976e-01  7.71539050e-01   7.57154720e-01  -4.71209650e-01
C     2.646644447170667e+00   6.223856195905296e+00   8.780457258569255e-01  5.17713100e-01   5.03646780e-01  -4.16072160e-01
C     9.384072519557864e-01   6.203133011441210e+00   2.657646295028093e+00 -9.83691090e-01  -2.65199450e-01   3.02989470e-01
C     2.684610958889444e+00   4.471643526078274e+00   2.666659419489122e+00 -6.05427270e-01  -1.57874924e+00   1.90981350e-01
C     3.577703367243028e+00   3.530550285551294e+00   7.090745963302393e+00 -8.94113570e-01   1.24787046e+00   2.46560070e-01
C     5.362319639414868e+00   5.359297138116843e+00   2.482047926225400e-03 -3.00718840e-01  -1.27338124e+00   5.30822200e-02
C     3.544374816946896e+00   5.367853262087633e+00   1.766647103883420e+00  5.24280740e-01  -1.29937778e+00   7.54764200e-01
C     5.313478876024693e+00   3.535501728411481e+00   1.789700073861211e+00  6.26413170e-01   8.89824240e-01  -1.07134099e+00
C     4.457331641227844e+00   4.445940393979295e+00   8.796190330354102e-01 -3.03103080e-01   3.69673910e-01   1.80609950e-01
C     6.240696049092076e+00   6.212288446523091e+00   9.222827904214833e-01 -6.14398610e-01   5.54562220e-01  -5.71189410e-01
C     4.424882687146711e+00   6.207721711495098e+00   2.735937040080249e+00  4.61299470e-01   4.67607500e-02  -1.80689457e+00
C     6.229249427231315e+00   4.398178475890157e+00   2.674756055021754e+00 -5.26735130e-01   1.26870354e+00  -1.37161240e-01
C     8.420566351425799e-03   7.080541751547157e+00   3.519704965159960e+00  8.18105950e-01   1.42285818e+00  -7.88967800e-02
C     1.778947589469294e+00   1.825705656116035e+00   3.555307997441813e+00  6.05940700e-02  -1.59648266e+00  -2.21535090e-01
C     7.095245879157758e+00   1.817874449084034e+00   5.258502051144708e+00 -4.59239610e-01  -5.57492160e-01   2.25693792e+00
C     1.745251604807935e+00   7.104211732608364e+00   5.322235884018724e+00  8.26483380e-01   8.86154610e-01  -3.36334390e-01
C     8.598734699342527e-01   9.367914364100344e-01   4.419823267346926e+00  9.44813500e-01  -1.72260341e+00  -2.75010340e-01
C     2.691734095944267e+00   2.666477230617371e+00   4.497167597011456e+00 -1.60191408e+00   1.03263848e+00  -2.09158127e+00
C     8.515334420111116e-01   2.630611471035483e+00   6.221539632057664e+00  1.55837086e+00   1.45924217e+00  -5.73259010e-01
C     2.673826273343058e+00   9.180055103625769e-01   6.190236200281744e+00 -8.57063540e-01  -2.01995160e+00   1.17621790e+00
C     3.548472040660838e+00   7.106607555368209e+00   3.583068662468152e+00 -3.94148390e-01   5.79875700e-02  -4.22334730e-01
C     5.320895804186401e+00   1.792771836527992e+00   3.570002244344973e+00 -4.60034700e-02  -2.35607640e-01  -1.00917731e+00
C     3.550309070318525e+00   1.788481476971465e+00   5.340996788418559e+00  7.99443430e-01  -6.99698240e-01   1.97983380e-01
C     5.389142632413402e+00   7.078396216347763e+00   5.312922570870452e+00 -1.39749163e+00   1.79938354e+00  -2.46209870e-01
C     4.439927450369263e+00   8.867724519705948e-01   4.450711353989160e+00  4.17914310e-01   4.35126400e-02   1.45946970e-01
C     6.198830638650454e+00   2.712702449904517e+00   4.416729752906929e+00  2.26455120e-01  -1.51580933e+00   2.79512330e-01
C     4.453041992513579e+00   2.630107768208630e+00   6.241957154349090e+00 -5.38764900e-02   7.78138800e-01  -5.42231770e-01
C     6.236002997394126e+00   9.347953913383384e-01   6.184569863358663e+00 -9.64711970e-01  -1.51554406e+00   1.72371750e-01
C     3.577669104646000e-03   3.531305697623122e+00   3.540473145939231e+00 -4.07235230e-01   1.17871625e+00   1.19596020e-01
C     1.792017135298426e+00   5.290854543930888e+00   3.579860702423972e+00 -4.05781520e-01   1.27450932e+00  -1.15798749e+00
C     7.099652319255670e+00   5.321887286973438e+00   5.280780131972693e+00  4.57326500e-01   2.61680210e-01   1.62925698e+00
C     1.753019475794392e+00   3.571487904672553e+00   5.324773022220255e+00  4.59448530e-01  -8.63726590e-01   1.51887493e+00
C     8.669252384259714e-01   4.423520926625399e+00   4.460084022466308e+00  8.99402590e-01   2.74403500e-02  -1.50943352e+00
C     2.652853369992332e+00   6.206733214245562e+00   4.421940297771615e+00 -6.07541000e-02   7.03572000e-01   1.62421641e+00
C     8.739072022075616e-01   6.224152332791645e+00   6.220468321684604e+00 -7.15089910e-01   9.03068130e-01  -4.60943040e-01
C     2.619925876900421e+00   4.481073417357514e+00   6.220906271602222e+00  1.15754616e+00  -9.42881380e-01   3.42585350e-01
C     3.541199839983673e+00   3.554157712493445e+00   3.591353529031762e+00  6.77266970e-01   9.89229610e-01  -6.98397280e-01
C     5.336123609291417e+00   5.309833037147121e+00   3.591945660636008e+00 -4.94601110e-01  -8.61615900e-02  -1.05411267e+00
C     3.538214373567500e+00   5.357913910159218e+00   5.352973698606771e+00  2.00824860e-01  -7.74274200e-02   1.24068000e-01
C     5.340739890025072e+00   3.542689765364825e+00   5.346811691374397e+00 -5.09361540e-01   6.46381180e-01   4.75405340e-01
C     4.425803298960227e+00   4.472599751089116e+00   4.521160087206932e+00  6.51624040e-01  -1.46169449e+00  -1.75452482e+00
C     6.252117151715630e+00   6.213966460766768e+00   4.369553639925906e+00 -6.37866450e-01  -4.17440630e-01   2.38761115e+00
C     4.477684761210333e+00   6.246648428941386e+00   6.213892391003069e+00 -4.39534920e-01  -9.71457090e-01   1.37059610e-01
C     6.243320052218023e+00   4.434971458118599e+00   6.206605689143759e+00 -5.25910850e-01   4.73892570e-01   5.04713830e-01
