64
Lattice="7.10842262195238 0 0 0 7.10842262195238 0 0 0 7.10842262195238 " PBC="1 1 1" Properties=species:S:1:pos:R:3:force:R:3 Energy="-511.43389327"
C     6.997012312276739e-02   1.435403779656600e-03   9.740173926602600e-03 -2.59796820e+00  -1.92574160e-01   2.89924070e-01
C     1.794274059480276e+00   1.762373520204276e+00   1.555024315505960e-02  9.74865300e-01   8.16062400e-02   8.71448700e-01
C     7.719391544189000e-03   1.788066345090457e+00   1.731442783026323e+00 -4.14789050e-01  -3.33937440e-01   2.86818379e+00
C     1.742284620290573e+00   7.085913017847282e+00   1.840792430116271e+00  5.57665010e-01   1.06492813e+00  -1.11990048e+00
C     9.119316475706917e-01   8.898888555314289e-01   9.641718719104291e-01 -2.43324610e-01  -4.02239890e-01  -2.87060713e+00
C     2.678839132974683e+00   2.657673235949823e+00   9.182781894542802e-01 -4.19823340e-01   7.80579910e-01  -1.30929845e+00
C     8.652408976861624e-01   2.701423515733363e+00   2.653102733457842e+00  2.71549330e-01  -5.32420190e-01   1.30319250e-01
C     2.658897946083023e+00   8.815681625178141e-01   2.654912111351536e+00 -9.78112900e-02   1.40979880e-01   1.21713796e+00
C     3.517643949105517e+00   7.098932449296942e+00   2.796659602963980e-02  4.72206000e-03  -5.76852990e-01   8.08418800e-02
C     5.291878227872394e+00   1.802305439693257e+00   9.521376678359001e-03  9.63393100e-01  -3.05598600e+00  -4.66198030e-01
C     3.595583680248698e+00   1.768998214664985e+00   1.763269536875527e+00 -2.13323550e+00   3.62432730e-01   1.06678368e+00
C     5.293149213836850e+00   5.568617437323460e-02   1.774662916650863e+00  1.15009515e+00  -7.55653110e-01  -1.76275370e-01
C     4.389314628304149e+00   8.618417921577308e-01   8.762843298159158e-01  1.83731030e+00   1.76122045e+00   6.30431930e-01
C     6.250013556209693e+00   2.622166380626018e+00   8.434478956177665e-01 -1.13527240e+00   1.56113747e+00   3.97905060e-01
C     4.477354077390051e+00   2.675871437615059e+00   2.636402774028223e+00  6.24120810e-01  -5.78192480e-01   8.77711230e-01
C     6.213075633244030e+00   9.279145093264046e-01   2.689533186132663e+00 -3.85013610e-01  -5.34202640e-01  -2.40194260e-01
C     1.705744200317820e-02   3.491271061427281e+00   3.448295812962000e-04  1.20138738e+00   2.98249626e+00  -1.89832920e+00
C     1.809754000335624e+00   5.324124734077310e+00   8.116205020105259e-02 -1.03208920e+00  -2.63504380e-01  -3.91322617e+00
C     7.080805545110586e+00   5.335081230198421e+00   1.757242518588708e+00 -6.07140220e-01   1.70830010e-01   1.61534790e-01
C     1.735238538536950e+00   3.597967205437410e+00   1.758691001865985e+00  1.96038277e+00  -1.83645773e+00   6.26613050e-01
C     8.828885520194792e-01   4.447520667411946e+00   8.479468873781906e-01 -4.87560750e-01  -3.96675290e-01   2.04313225e+00
C     2.661537161233376e+00   6.200408139798284e+00   9.344267485412652e-01 -4.19135490e-01   8.50286000e-01   2.24488130e-01
C     8.034363617954414e-01   6.232126276949857e+00   2.699841323026603e+00  1.84482292e+00  -8.48421300e-02  -1.42632860e+00
C     2.683992526121504e+00   4.422485940291925e+00   2.635131574811088e+00 -5.14199890e-01   1.44746415e+00   1.31473340e-01
C     3.566594608709397e+00   3.556689021788427e+00   7.092136086429961e+00 -1.36396965e+00   2.03984510e-01   6.26419810e-01
C     5.285292132146512e+00   5.350773997227011e+00   7.069976645175504e+00  1.11694968e+00   3.03744460e-01   7.40505810e-01
C     3.585240783168146e+00   5.359509466700503e+00   1.782475144194469e+00 -4.59880800e-01  -1.33165939e+00   2.66709410e-01
C     5.390329881159394e+00   3.573420045024895e+00   1.702139519207218e+00 -1.79335954e+00  -1.04451535e+00   2.45902470e+00
C     4.432236492515553e+00   4.465564331969423e+00   8.992975637112610e-01  1.42147364e+00  -5.58619290e-01  -1.76224112e+00
C     6.160497829914069e+00   6.284805659639057e+00   8.363059212430000e-01  1.58419633e+00  -1.84828378e+00   1.80786209e+00
C     4.452566296871849e+00   6.262563263092625e+00   2.663120349119303e+00  6.15403570e-01  -1.30347457e+00  -5.14870470e-01
C     6.211830237601005e+00   4.396239084946743e+00   2.676550434143721e+00  4.45815670e-01   2.53909467e+00  -1.56041972e+00
C     7.061935099918176e+00   1.928849152669140e-02   3.596793604862848e+00  6.17702410e-01   9.21127100e-02  -4.91403760e-01
C     1.746113501050610e+00   1.813255324981331e+00   3.576035944549055e+00  1.17766137e+00  -7.39867700e-01  -1.65123436e+00
C     2.662431258630520e-02   1.784485406111405e+00   5.414701818954327e+00  6.69443300e-01  -2.74222210e-01  -2.05609986e+00
C     1.818081943940312e+00   7.053811096958457e+00   5.315820035014590e+00 -1.07809590e+00   7.51947390e-01   6.61245870e-01
C     8.803642800628910e-01   9.180314561051400e-01   4.472198764969122e+00  4.21811280e-01  -1.33973059e+00   2.43389480e-01
C     2.700632774801114e+00   2.689532048785044e+00   4.381213585549491e+00 -1.15222627e+00  -6.60534970e-01   2.28152484e+00
C     1.005541967463888e+00   2.672471976665496e+00   6.206865359822067e+00 -3.33950021e+00  -7.18763850e-01   1.04118292e+00
C     2.676691465248502e+00   8.539007599962501e-01   6.277136311390113e+00 -1.29467434e+00   4.42780260e-01  -2.34097222e+00
C     3.544311978490935e+00   7.057297067411305e+00   3.513425953291262e+00  4.95348300e-02   2.41301297e+00   1.74291599e+00
C     5.357114568035599e+00   1.783520082319609e+00   3.643220205762818e+00 -2.96418240e-01   5.75721650e-01  -2.28931556e+00
C     3.513814428587445e+00   1.760117591201593e+00   5.345559969235241e+00  7.38655480e-01  -9.87896300e-02  -1.35221140e-01
C     5.304726488505366e+00   7.099742240801813e+00   5.341945691754102e+00 -3.01013040e-01  -3.66110460e-01   1.18088050e+00
C     4.414555215343245e+00   8.816886502812231e-01   4.486270882724579e+00  5.81266030e-01  -2.30583580e-01  -1.19392992e+00
C     6.296938812956457e+00   2.691701823705572e+00   4.503005531256583e+00 -2.99000631e+00  -1.58683272e+00   2.99808520e-01
C     4.403339403964956e+00   2.622041130219454e+00   6.232371588614472e+00  8.70204740e-01   1.59128181e+00  -1.00997130e-01
C     6.233858670626576e+00   8.464067054491152e-01   6.244550875594676e+00 -1.43599890e-01   1.90241929e+00  -1.67590480e-01
C     7.086322391905967e+00   3.554086343930340e+00   3.560427554496963e+00  7.22397430e-01   2.21993440e-01   4.39070100e-02
C     1.779524651217586e+00   5.362491592158046e+00   3.458800071236026e+00 -1.19575878e+00  -2.35757208e+00   2.63961435e+00
C     1.112631633750260e-02   5.322233111733902e+00   5.290261630400154e+00 -4.72275260e-01   5.34262990e-01   1.75826121e+00
C     1.796414832036516e+00   3.578018412533547e+00   5.286522315765129e+00 -2.12117400e-02   2.09194820e-01   2.09382990e-01
C     8.524528453927824e-01   4.463137232150051e+00   4.417181635332883e+00  2.00798793e+00  -5.84454150e-01  -9.46942420e-01
C     2.672900472381030e+00   6.137711212531849e+00   4.364378992595451e+00 -1.44613470e-01   2.65420349e+00   1.21932520e+00
C     9.077351191927486e-01   6.173072203023492e+00   6.256923085164785e+00  6.05608060e-01   1.38625784e+00  -1.24840735e+00
C     2.653583760416537e+00   4.482838794115190e+00   6.160862847415606e+00  9.48436590e-01  -1.78639058e+00   1.91472933e+00
C     3.605395578159536e+00   3.551568682806789e+00   3.549538730559195e+00 -6.85430180e-01   2.58196020e-01  -1.82894416e+00
C     5.374448243341790e+00   5.382127898803533e+00   3.539903903455821e+00 -1.81749778e+00  -2.66754254e+00  -1.98809420e-01
C     3.552678520830449e+00   5.302351564508023e+00   5.270795143971058e+00 -1.70674540e-01   6.63194900e-01   8.97160880e-01
C     5.305980840760891e+00   3.507305885752346e+00   5.397861254925284e+00  1.98560771e+00   2.12517372e+00  -2.77709778e+00
C     4.488115376226017e+00   4.435083913364448e+00   4.409463310052086e+00 -7.09264310e-01  -1.24261560e-01   1.35516263e+00
C     6.175118860064242e+00   6.198918356585586e+00   4.466609767684147e+00  1.62519003e+00   1.87186936e+00  -2.54141200e-01
C     4.348836853042178e+00   6.215865120448571e+00   6.251236844658369e+00  2.31495810e+00  -2.14676170e-01  -2.23413347e+00
C     6.249352686158712e+00   4.481235489393249e+00   6.174927572411538e+00 -2.00885840e+00  -2.55337157e+00   2.14658308e+00
