64
Lattice="7.10842262195238 0 0 0 7.10842262195238 0 0 0 7.10842262195238 " PBC="1 1 1" Properties=species:S:1:pos:R:3:force:R:3 Energy="-512.11692703"
C     3.079439763210200e-03   4.814484881567660e-02   7.100386263891185e+00  3.16985900e-01  -1.83322098e+00   7.73819730e-01
C     1.804480119425394e+00   1.728827025670615e+00   7.081198925218376e+00  1.33015360e-01   1.72846594e+00   1.61874795e+00
C     7.091977071015951e+00   1.798043371658758e+00   1.794011261096015e+00  1.53509739e+00   9.53163300e-02  -1.30296416e+00
C     1.767524425403181e+00   2.859434083121200e-03   1.803841711989891e+00 -1.66854278e+00  -4.96503560e-01   1.79024700e-02
C     9.325843164823874e-01   9.012068149427669e-01   8.924711322165964e-01 -1.90497635e+00  -2.73055860e-01   4.16709300e-02
C     2.679695271395035e+00   2.655435149087916e+00   8.936964821078319e-01  2.82006650e-01  -5.80516400e-02  -2.44877520e-01
C     8.792351782139302e-01   2.674342131572592e+00   2.655149035077461e+00  3.78105860e-01   3.29868570e-01   4.77384600e-01
C     2.644390792863222e+00   8.743224762570220e-01   2.678151677423102e+00  1.28281536e+00   5.17154150e-01  -3.67231760e-01
C     3.519539836502497e+00   7.070398103552643e+00   2.472309387236000e-02  8.46614800e-01  -2.20164450e-01  -7.19667180e-01
C     5.304251361537444e+00   1.736770545780012e+00   7.064001305121132e+00  4.01804690e-01   1.62067819e+00   1.77278504e+00
C     3.540704382927059e+00   1.730697820335746e+00   1.781416984403256e+00  1.24355681e+00   1.43187187e+00  -6.34851890e-01
C     5.350217620988544e+00   6.299498342689240e-02   1.777341370294079e+00 -6.56139000e-01  -1.21420256e+00  -4.70469850e-01
C     4.437080811446857e+00   8.488382124905124e-01   8.178484043205866e-01 -6.35058320e-01   9.81288080e-01   2.99092682e+00
C     6.229219287519407e+00   2.644588264843605e+00   8.633551042493025e-01 -3.17387470e-01  -1.50865430e-01   7.06164000e-02
C     4.513251967042182e+00   2.665772430514599e+00   2.674015499553203e+00 -2.94503878e+00  -9.02049200e-02  -6.61100340e-01
C     6.207381928893863e+00   9.860131401684147e-01   2.675136639968829e+00  3.83997600e-02  -2.63673650e+00   3.67112420e-01
C     5.573643092115800e-03   3.528719937810870e+00   7.108331916527369e+00  7.02657050e-01   1.13027280e-01  -1.38207480e-01
C     1.782522912794476e+00   5.318420011672081e+00   7.070013608973127e+00 -1.38263316e+00   2.69794560e-01   1.77948672e+00
C     7.075882678109330e+00   5.296497280890870e+00   1.813489192085529e+00  2.43537110e-01   1.26633492e+00  -1.88084327e+00
C     1.794119380204065e+00   3.550764933461145e+00   1.780442917251638e+00 -3.83262180e-01  -1.71823320e-01  -1.18448394e+00
C     8.954484950309833e-01   4.401756144994803e+00   8.616544141374676e-01 -4.76405180e-01   1.34744478e+00   1.09295821e+00
C     2.587252794254078e+00   6.213849598298895e+00   9.369763264823806e-01  2.69424156e+00   5.09702600e-02  -1.51057643e+00
C     8.040935354666604e-01   6.215086890340134e+00   2.687233753583545e+00  1.40044717e+00  -3.02786000e-02  -1.33590050e-01
C     2.665919006189023e+00   4.474826180137926e+00   2.640329964273095e+00  9.20428600e-02  -9.76830180e-01   4.35267830e-01
C     3.565558911533663e+00   3.590324087267934e+00   7.102029162527120e+00 -2.39426630e-01  -1.32022461e+00   8.35025230e-01
C     5.321702325816866e+00   5.314300396426887e+00   7.021318141741306e+00  2.04560500e-01   1.66591112e+00   3.58257007e+00
C     3.559749979652826e+00   5.394092013831029e+00   1.806252391353012e+00 -2.05869200e-02  -1.97453526e+00  -1.59329610e+00
C     5.355099330222830e+00   3.523446056900640e+00   1.727066553724546e+00 -8.42363340e-01   9.30645340e-01   1.41682585e+00
C     4.457563873394840e+00   4.472496465708448e+00   8.803959836277762e-01 -5.09752570e-01  -4.44150810e-01  -3.83688210e-01
C     6.212397205389178e+00   6.286930224991722e+00   9.122502470725201e-01  7.12586930e-01  -2.28073074e+00  -1.36166099e+00
C     4.495783516043115e+00   6.219068033512690e+00   2.647942871646436e+00 -8.59978270e-01   1.16128180e+00   6.52587670e-01
C     6.193879337958720e+00   4.389441940153272e+00   2.690139392413696e+00  1.43278775e+00   1.30534695e+00  -1.51385986e+00
C     7.054879848299374e+00   7.427007904983160e-02   3.571592824990424e+00  1.65480757e+00  -1.62727417e+00   1.84225120e-01
C     1.792718665526794e+00   1.821711433445857e+00   3.547298937675860e+00 -1.58534670e-01  -6.75469230e-01   6.96710540e-01
C     1.557995636161120e-02   1.833798950690036e+00   5.406200003332354e+00  3.91121510e-01  -1.25594195e+00  -1.89643272e+00
C     1.789656499230551e+00   7.067747514926098e+00   5.326496743621377e+00 -1.33567459e+00   1.10666140e+00  -8.56483490e-01
C     9.036664713377391e-01   9.442134826360287e-01   4.437550820350492e+00 -7.10777760e-01  -8.44848240e-01   1.09513862e+00
C     2.719390053905413e+00   2.707676226438368e+00   4.466371919863281e+00 -1.15999106e+00  -1.04385900e+00  -1.29963757e+00
C     9.593495890892472e-01   2.673820373352284e+00   6.227708818796883e+00 -1.30844820e+00  -4.38112900e-01   4.28856490e-01
C     2.680644032562127e+00   8.244025832289051e-01   6.240810565780484e+00 -1.22034263e+00   8.34391440e-01  -8.22646020e-01
C     3.570824902094785e+00   7.090568323821120e+00   3.508545381404596e+00 -8.33642500e-01  -1.75086000e-02   2.24945781e+00
C     5.349789622862594e+00   1.792156033876421e+00   3.588703793415931e+00 -7.20636240e-01   7.75409880e-01   1.16238205e+00
C     3.508014737656013e+00   1.737428288125041e+00   5.364078760760639e+00  2.36291540e+00   1.01758069e+00  -7.66040320e-01
C     5.346727385482124e+00   3.734694160321800e-03   5.333778825005984e+00 -1.05326677e+00  -2.08990280e-01   7.37158860e-01
C     4.432962120296604e+00   8.602398380360875e-01   4.490508924290623e+00  6.92255700e-02   8.50984730e-01  -2.21704993e+00
C     6.237528820309509e+00   2.698058104128150e+00   4.551598779371130e+00 -6.73374250e-01  -8.47478750e-01  -3.29050610e+00
C     4.447577605877133e+00   2.652472216371448e+00   6.235185670961278e+00 -1.38344818e+00   5.10874980e-01  -6.76291390e-01
C     6.202772045740566e+00   9.158928871599129e-01   6.244159130424087e+00  1.53381852e+00  -8.80173390e-01  -1.28201758e+00
C     7.086566708391417e+00   3.548058543717033e+00   3.546066834783135e+00  8.24327540e-01  -1.30428148e+00   1.65517278e+00
C     1.715123621796457e+00   5.245594150845955e+00   3.520604678210974e+00  7.95477110e-01   3.29353755e+00   1.17476129e+00
C     7.083031547654039e+00   5.287905828059660e+00   5.302391158422017e+00  1.33003452e+00   4.15429580e-01   1.09515245e+00
C     1.822926262871615e+00   3.571487833588326e+00   5.334911765403160e+00 -6.72513500e-01  -8.30974160e-01   1.40133960e-01
C     8.988801571350145e-01   4.366562202434730e+00   4.442890027664600e+00 -1.01623539e+00   1.95733453e+00  -7.41857590e-01
C     2.596446899155012e+00   6.200263625566421e+00   4.403371534035198e+00  2.26388498e+00  -7.50160630e-01  -8.86655900e-02
C     8.735087751197105e-01   6.186077844133270e+00   6.181133367527250e+00 -1.25083690e-01   8.65214610e-01   8.77673120e-01
C     2.675333330022724e+00   4.473463850942803e+00   6.210160895632925e+00  6.63696690e-01  -6.94772430e-01  -4.19728700e-02
C     3.567548061435418e+00   3.619942751798688e+00   3.520825892322908e+00  1.28135024e+00  -1.98065224e+00   9.29899060e-01
C     5.392436604371284e+00   5.322445084896430e+00   3.545765864169404e+00 -2.10624094e+00   5.81823910e-01   4.11362310e-01
C     3.541075016082466e+00   5.338456238174171e+00   5.312192962372736e+00  3.60072640e-01   4.88767800e-01  -9.41133020e-01
C     5.298893316903394e+00   3.567791595994379e+00   5.347526940858422e+00  1.01314509e+00  -8.36938660e-01  -7.20667000e-02
C     4.484777829637475e+00   4.461475709446852e+00   4.418790626792918e+00 -1.69673488e+00   3.27691120e-01   5.78593150e-01
C     6.213606845666423e+00   6.218129650642624e+00   4.482951675866397e+00  4.96424810e-01   4.95225320e-01  -1.88701477e+00
C     4.422005624175493e+00   6.229310275328944e+00   6.191528582598286e+00  8.44904800e-02  -9.18228430e-01   4.84091730e-01
C     6.216542837461161e+00   4.406670126467783e+00   6.230477193986243e+00 -2.47359200e-02   9.93865490e-01  -8.29354880e-01
