64
Lattice="7.10842262195238 0 0 0 7.10842262195238 0 0 0 7.10842262195238 " PBC="1 1 1" Properties=species:S:1:pos:R:3:force:R:3 Energy="-511.80462326"
C     7.099195745270787e+00   2.271994037804400e-02   7.099159065810069e+00  9.41940620e-01  -1.27063066e+00   2.61352280e-01
C     1.764476191615272e+00   1.762543482589120e+00   7.107700333177582e+00  6.91043600e-02   1.12288957e+00  -1.17277760e-01
C     7.102349325881923e+00   1.770484656919053e+00   1.794719615410098e+00  1.29923190e-01  -4.09934360e-01  -1.66940278e+00
C     1.822312024073021e+00   7.102338876500673e+00   1.756894703469911e+00 -2.08873537e+00  -9.17615200e-02   3.37829440e-01
C     8.960278314745134e-01   8.763559116316992e-01   8.603716992756886e-01 -2.78751640e-01   5.65017720e-01   1.13409475e+00
C     2.684193765565876e+00   2.671714432066883e+00   8.847008443664481e-01 -8.99017750e-01  -1.34982342e+00   3.01088340e-01
C     9.148116249951849e-01   2.667459827876134e+00   2.588146678398543e+00 -4.02034670e-01  -3.87861550e-01   2.53695389e+00
C     2.685571662206537e+00   7.944506047614994e-01   2.647819256177074e+00  2.84045940e-01   3.59447984e+00   2.30553300e-01
C     3.593398835472215e+00   3.813036086016820e-02   7.076523928913881e+00 -1.64084821e+00  -1.15820191e+00   1.52970450e+00
C     5.320433898884554e+00   1.742770552060876e+00   7.084060776165188e+00  8.39416540e-01   2.23420880e+00   9.65381620e-01
C     3.561118919680985e+00   1.717773001991158e+00   1.743732321641362e+00  4.52652900e-02   1.39554174e+00   5.40233470e-01
C     5.341309772266517e+00   8.841740391660800e-03   1.747015773133766e+00 -8.01335090e-01  -1.65717178e+00   9.67872240e-01
C     4.479343440544484e+00   8.484417046767688e-01   8.401705573688154e-01 -6.68364870e-01   1.88688401e+00   1.01772593e+00
C     6.181294373299593e+00   2.683532042504181e+00   9.289780715188090e-01  6.28649670e-01  -1.45470773e+00  -2.59126510e-01
C     4.376057349033622e+00   2.684705785247194e+00   2.669888136127352e+00  7.40293310e-01  -8.42422880e-01  -6.23522000e-03
C     6.216625437332006e+00   8.230595178590824e-01   2.641647154984581e+00  3.14346120e-01   2.99858333e+00  -7.55801300e-02
C     7.091201115602752e+00   3.534073788475576e+00   3.931896020645840e-02 -3.15736720e-01   6.48652200e-02  -4.10079350e-01
C     1.796570932997251e+00   5.364529434754748e+00   7.065253738102549e+00 -8.15524430e-01  -5.25179900e-02   2.28652854e+00
C     4.365310764632480e-02   5.319386614979949e+00   1.828127353534217e+00 -3.97053350e-01  -3.29184260e-01  -1.51176276e+00
C     1.797877745411711e+00   3.564189189579015e+00   1.763567735204436e+00 -2.82050240e-01   1.14026950e-01  -5.70020800e-02
C     9.020340931672824e-01   4.426124457494199e+00   8.855856297299596e-01 -1.41333030e-01   1.16497070e+00  -3.41799240e-01
C     2.672029619525854e+00   6.270024618895707e+00   9.271126792548686e-01  6.96916690e-01  -1.98028405e+00  -3.35943437e+00
C     9.585607674311057e-01   6.200712593539100e+00   2.633617054287671e+00 -1.41486846e+00   2.72599040e-01   1.93463043e+00
C     2.648912033986447e+00   4.479207385335537e+00   2.700064243159967e+00  2.87433290e-01  -1.62786912e+00  -8.55447750e-01
C     3.546261605562923e+00   3.538301736081499e+00   2.797725866356980e-02  7.17673730e-01   5.81116310e-01  -9.23034580e-01
C     5.348549771789213e+00   5.350298657006411e+00   1.773750479523360e-02 -7.57225230e-01  -7.86171010e-01   6.45291450e-01
C     3.497882249885012e+00   5.345590037862924e+00   1.783503732947583e+00  1.87289545e+00  -2.01798650e-01  -6.36759800e-02
C     5.302277992333907e+00   3.568766445072486e+00   1.847697409680886e+00  3.78418200e-01  -1.21867990e-01  -2.05998188e+00
C     4.433612114460977e+00   4.432157375771793e+00   8.870302744590222e-01 -2.11686400e-01   1.14583225e+00   1.23805863e+00
C     6.237536426321712e+00   6.208906827714305e+00   9.600369024723749e-01  2.67060050e-01  -1.02196420e-01  -2.56215906e+00
C     4.398375165944053e+00   6.213018623694618e+00   2.661946961797419e+00  1.53473052e+00  -1.38485550e-01  -6.37764400e-01
C     6.258396092500102e+00   4.432464033123620e+00   2.718524674535654e+00 -9.49023990e-01   8.99217700e-02  -1.34917737e+00
C     1.683352669064820e-02   7.099721626376216e+00   3.516858326237555e+00  4.77873480e-01  -2.16096160e-01   8.28778660e-01
C     1.828943258282540e+00   1.783494705250856e+00   3.462487920891282e+00 -1.19025726e+00  -2.24197730e-01   2.69678770e+00
C     7.053375706072981e+00   1.821137854824649e+00   5.291703431760169e+00  1.03387374e+00  -9.64664460e-01   3.36651230e-01
C     1.776899510744020e+00   7.406848418432839e-02   5.349230474339304e+00 -5.46453100e-01  -1.96944717e+00  -1.94654161e+00
C     9.014567470820859e-01   9.499554531757862e-01   4.379217256140890e+00 -8.44042050e-01  -1.05603260e+00   6.91034810e-01
C     2.645980520497959e+00   2.649733696557093e+00   4.537209910303725e+00  6.33896110e-01   9.54282680e-01  -3.06575367e+00
C     8.521075893061291e-01   2.642622217315366e+00   6.226171764573762e+00 -3.47303190e-01   1.23106084e+00   1.10503590e-01
C     2.646087928763747e+00   9.090686592762605e-01   6.230738997191337e+00  1.41035597e+00  -3.50651820e-01   2.77540100e-01
C     3.542926262585393e+00   7.086249246237208e+00   3.579068326554520e+00  2.57194750e-01  -1.30863255e+00  -6.69928710e-01
C     5.295198429909744e+00   1.769009445972725e+00   3.465312808040470e+00  1.46722570e-01  -3.08147900e-01   2.68443848e+00
C     3.573037540803713e+00   1.748333603603288e+00   5.385939506096604e+00 -3.67887230e-01   1.07193407e+00  -2.20776909e+00
C     5.391390031308941e+00   7.068695351998249e+00   5.330426563982619e+00 -1.95161076e+00   1.64380929e+00  -1.24597075e+00
C     4.464704212832404e+00   8.282200905127500e-01   4.372137978053633e+00 -3.57270840e-01   2.02213473e+00   2.83686883e+00
C     6.136811286228157e+00   2.686880749316236e+00   4.418145039850571e+00  2.48483497e+00  -7.24930620e-01  -6.72903710e-01
C     4.450311505216785e+00   2.666568431679586e+00   6.243106373034066e+00 -3.52842550e-01   3.38740000e-04  -1.27893606e+00
C     6.219193994761516e+00   9.137283013878968e-01   6.207903829282623e+00  4.36708050e-01  -1.13044932e+00  -6.08911470e-01
C     1.439149918377340e-02   3.527866429506887e+00   3.573906758721686e+00  5.90792600e-02   2.77529810e-01  -1.18752772e+00
C     1.811225941407547e+00   5.296141504338740e+00   3.596829715649758e+00 -1.31998091e+00   2.21593592e+00  -7.89593170e-01
C     7.090815128254486e+00   5.281862531485040e+00   5.352791865156151e+00  1.16547080e+00   1.63086999e+00  -1.69841286e+00
C     1.716768581874952e+00   3.571781909032116e+00   5.363854632195430e+00  1.93933643e+00  -1.29555670e+00   1.50818340e-01
C     9.172016188484813e-01   4.425809198951002e+00   4.419678113357026e+00 -1.90907525e+00  -4.33541820e-01   1.83012468e+00
C     2.658182341177867e+00   6.205862361390385e+00   4.495040614795099e+00  2.79427700e-01   9.82350820e-01  -3.33019160e-01
C     9.161842614031068e-01   6.227131046206330e+00   6.167483845496553e+00 -1.85730427e+00   4.62038440e-01   1.57480156e+00
C     2.656767054234225e+00   4.462020356787997e+00   6.254302636250149e+00  2.51642040e-01  -1.09428587e+00  -4.17339080e-01
C     3.492832355371538e+00   3.607755858806281e+00   3.598332649444304e+00  1.85714083e+00  -1.67571832e+00   3.34142180e-01
C     5.337928864299992e+00   5.331890472536982e+00   3.505634908847063e+00 -6.02162090e-01   9.50165120e-01   1.95032822e+00
C     3.537018879051268e+00   5.338953614504892e+00   5.403720798775177e+00  1.30340171e+00   8.78351890e-01  -1.57494587e+00
C     5.342414705478570e+00   3.617577495256108e+00   5.271825865250958e+00 -1.70588221e+00  -1.89500129e+00   2.66742380e+00
C     4.452305275593242e+00   4.515906109880037e+00   4.464248989447819e+00 -1.13619060e+00  -1.33077947e+00  -7.42912730e-01
C     6.212764426501727e+00   6.216647331273675e+00   4.406248454837965e+00  1.50013816e+00  -9.59491840e-01   1.02862800e+00
C     4.455772408726148e+00   6.271743719822128e+00   6.237928953418789e+00  3.93311520e-01  -2.10816366e+00  -4.00555770e-01
C     6.197863893174135e+00   4.410011511604541e+00   6.251828265420353e+00  1.18184287e+00   1.43689413e+00  -8.30765920e-01
