64
Lattice="7.10842262195238 0 0 0 7.10842262195238 0 0 0 7.10842262195238 " PBC="1 1 1" Properties=species:S:1:pos:R:3:force:R:3 Energy="-513.22005849"
C     3.490391891717640e-02   7.073809790989112e+00   7.092514965355607e+00 -1.26992230e-01   6.49081790e-01  -7.58191600e-02
C     1.793134294997386e+00   1.774341189443082e+00   7.102387569195620e+00 -7.83386860e-01   6.64930420e-01   1.62910120e-01
C     4.571710923826800e-03   1.723130691204078e+00   1.747078185084370e+00 -1.89260240e-01   1.33771591e+00  -2.25626600e-01
C     1.787474213486211e+00   1.248878770107800e-03   1.789627354697809e+00 -3.33772530e-01  -5.13157300e-01   6.06011390e-01
C     9.312397583438143e-01   8.521342458909540e-01   8.599073060259240e-01 -1.03138381e+00   6.68181630e-01   5.21027560e-01
C     2.612821221744409e+00   2.701615087722972e+00   9.292186916244960e-01  1.94517828e+00  -1.64142681e+00  -5.09830420e-01
C     8.326414582981637e-01   2.650364569064617e+00   2.646568031627502e+00  1.47342830e+00   3.51851130e-01   4.67137300e-02
C     2.671566363623708e+00   8.750402847731896e-01   2.684419955573644e+00  3.87684800e-01   5.50043190e-01  -1.21669518e+00
C     3.546911102137712e+00   2.078716026766600e-03   5.833278228311300e-02 -1.73005750e-01  -7.02373800e-02  -2.15290172e+00
C     5.330087918729002e+00   1.765892189401176e+00   7.045005893859062e+00 -5.03928770e-01   1.01536347e+00   6.24490750e-01
C     3.551406397518374e+00   1.757620189082508e+00   1.814130442890080e+00  4.10964500e-02   1.45825804e+00  -1.38076821e+00
C     5.328184496404044e+00   5.104970571933960e-02   1.720040162301581e+00  7.47548310e-01  -1.82224671e+00   1.12120735e+00
C     4.431458404575569e+00   9.315813891349315e-01   8.429362313575788e-01  3.08940640e-01  -1.03199770e+00   1.30566151e+00
C     6.196639396293614e+00   2.649345647766267e+00   8.541810451001568e-01  1.32860422e+00  -7.24454600e-02   4.90455640e-01
C     4.468902447231776e+00   2.663252352527356e+00   2.684022808001865e+00 -9.12699110e-01  -8.26588690e-01  -3.18935500e-01
C     6.225920908339501e+00   8.750033209755655e-01   2.642857435019862e+00 -4.62974330e-01   4.48180960e-01   2.61346080e-01
C     2.290731839830720e-02   3.608210868938187e+00   9.820356933756200e-03 -1.19538863e+00  -1.90742283e+00   1.24006280e-01
C     1.789063017026007e+00   5.359862399883585e+00   7.092550223131802e+00  5.73663870e-01  -3.69217780e-01   1.85401464e+00
C     7.075549719593810e+00   5.325084868720593e+00   1.772935498869977e+00  1.31958584e+00   1.87636090e-01   3.47213670e-01
C     1.759676158156891e+00   3.569086750595743e+00   1.794447007402621e+00 -4.71535690e-01   4.09500580e-01  -5.84054300e-02
C     9.115448782959377e-01   4.485999412064722e+00   9.018909295357157e-01 -1.10204823e+00  -7.34778020e-01  -5.59152390e-01
C     2.669578422153799e+00   6.205932023932061e+00   9.873109959703744e-01  8.17238300e-01   3.04213110e-01  -3.01851786e+00
C     8.827974220414907e-01   6.220745407998331e+00   2.661142572693740e+00 -9.69149930e-01  -3.38356050e-01   3.85026450e-01
C     2.673792508335613e+00   4.450978275258541e+00   2.690386907689325e+00 -2.58503160e-01  -1.34277289e+00  -2.05288510e-01
C     3.539838719220396e+00   3.569720964061899e+00   5.714752389545420e-02  1.10968400e-02  -7.52184610e-01  -1.09028519e+00
C     5.310768363395461e+00   5.360314566646445e+00   7.107289039844788e+00  5.23530060e-01  -1.60289113e+00   8.06862980e-01
C     3.583188581557751e+00   5.302007445768989e+00   1.831137130755751e+00 -8.26527000e-03   6.81438670e-01  -8.66782590e-01
C     5.331718164372673e+00   3.504283810959679e+00   1.779191763786292e+00  3.14089200e-01   1.09629251e+00  -2.74175030e-01
C     4.475333508260316e+00   4.411755918515488e+00   9.157198681533423e-01 -1.44429553e+00   1.03086444e+00  -2.66263450e-01
C     6.237008128352594e+00   6.198859214509387e+00   8.820607051211540e-01 -7.94374850e-01   1.49923433e+00  -7.16580740e-01
C     4.506829720457691e+00   6.225232884114111e+00   2.651784689735641e+00 -1.20373353e+00   2.01075310e-01   8.18335800e-02
C     6.196804880372207e+00   4.426975122429135e+00   2.648967835104014e+00  1.07858131e+00  -5.24633310e-01   1.18478697e+00
C     7.067916624300228e+00   7.105416965663585e+00   3.558772145037218e+00  2.15935406e+00   1.59693740e-01  -6.95330690e-01
C     1.784874805502529e+00   1.807011144383471e+00   3.495136266226906e+00 -9.37870790e-01  -1.38140523e+00   1.88404176e+00
C     4.605831352402800e-02   1.746934879284351e+00   5.321670835504659e+00 -1.39442459e+00   1.01963265e+00   5.04691690e-01
C     1.795093944945267e+00   1.284648352731640e-02   5.303559498763841e+00  2.69685000e-01  -6.22337520e-01  -8.70111730e-01
C     9.124686888996327e-01   8.745564144454462e-01   4.397344586832605e+00 -6.40530510e-01   9.68693860e-01   5.58634730e-01
C     2.628181954352419e+00   2.658264301290676e+00   4.447646912997678e+00  7.39385780e-01   1.17992734e+00  -1.08232323e+00
C     8.773770365410621e-01   2.682487104379041e+00   6.232448430662994e+00  9.76912530e-01  -1.93001300e-02  -5.96419620e-01
C     2.664399438685546e+00   8.953900637970469e-01   6.188590031771405e+00 -2.81299470e-01  -3.81083120e-01   1.61590765e+00
C     3.593348792176970e+00   7.102476211225691e+00   3.521831520870959e+00 -1.26139608e+00  -5.22088040e-01   4.78147710e-01
C     5.349724012121811e+00   1.769152325267387e+00   3.556497449798818e+00 -9.39182270e-01  -9.14942300e-02   5.82129560e-01
C     3.488535811487332e+00   1.793682780886745e+00   5.316313999302454e+00  1.65030886e+00  -7.90404260e-01  -3.29187680e-01
C     5.318004240033038e+00   7.097142264144322e+00   5.347501350536990e+00  2.67839400e-02   1.00600453e+00  -9.55511060e-01
C     4.395970386571707e+00   8.806415796292971e-01   4.416974851318866e+00  1.74466748e+00   4.47686010e-01   1.02444843e+00
C     6.185573146127250e+00   2.631949489425245e+00   4.517665373394261e+00  1.47910197e+00   9.22309190e-01  -2.21844132e+00
C     4.373118584954062e+00   2.667300385956767e+00   6.195121037221981e+00  1.61296721e+00   5.23127080e-01   8.70642930e-01
C     6.243369526839458e+00   8.772190873904457e-01   6.191941226531377e+00 -2.11371720e-01  -5.11086500e-01   7.33537720e-01
C     7.087743436671931e+00   3.519283506782820e+00   3.574048998258312e+00 -2.69828040e-01   6.35749890e-01  -2.54798120e-01
C     1.754427156725830e+00   5.305767588082292e+00   3.553831151558283e+00  8.18729300e-01   1.34473027e+00  -6.02721960e-01
C     7.096259895644502e+00   5.365153909681914e+00   5.377991010091372e+00  8.33870700e-01  -1.18253299e+00  -1.89315096e+00
C     1.796327043017159e+00   3.597737745555236e+00   5.328192173500474e+00 -1.02998923e+00  -1.31109492e+00   5.95285770e-01
C     8.909162358526975e-01   4.448263924081094e+00   4.422890836044361e+00 -9.48768020e-01  -3.01275850e-01   1.44564093e+00
C     2.679084800060429e+00   6.211816091839992e+00   4.379707097543634e+00 -1.18687590e-01   7.50914800e-02   2.10891966e+00
C     9.447820853614025e-01   6.220391835057212e+00   6.184635331930993e+00 -1.40322698e+00   3.13679670e-01   1.03739539e+00
C     2.674824011542002e+00   4.453176626038002e+00   6.272385823637393e+00  1.60848380e-01   4.38126540e-01  -1.65765079e+00
C     3.565008648538649e+00   3.533304586063865e+00   3.541888361798646e+00 -4.04329320e-01   7.89736540e-01   1.27694570e+00
C     5.368387815468657e+00   5.329947100876899e+00   3.566777863844540e+00 -7.72727740e-01   4.68180500e-01  -3.74300310e-01
C     3.557296152164402e+00   5.340709892481616e+00   5.331384637183342e+00 -4.13823450e-01  -1.49567560e-01  -8.89540900e-02
C     5.323171778940873e+00   3.586165233529877e+00   5.354724289845398e+00 -1.05802892e+00  -1.35198222e+00  -1.77219870e-01
C     4.424672064584480e+00   4.459707347151674e+00   4.440442313419629e+00  1.19156339e+00  -4.54789280e-01   1.36332470e-01
C     6.246083878016905e+00   6.258416280420342e+00   4.467580067371777e+00 -1.38209658e+00  -1.77518773e+00  -7.88478900e-02
C     4.434916083506389e+00   6.219217310387710e+00   6.215803988014039e+00 -3.10262810e-01   4.06201700e-01   9.50740220e-01
C     6.187343854201892e+00   4.445435198383691e+00   6.259634877310089e+00  1.19583186e+00   1.14889545e+00  -9.17965900e-01
