64
Lattice="7.10842262195238 0 0 0 7.10842262195238 0 0 0 7.10842262195238 " PBC="1 1 1" Properties=species:S:1:pos:R:3:force:R:3 Energy="-514.09929355"
C     2.444373286339400e-02   7.104689134271523e+00   4.598296424425600e-03 -8.96867250e-01  -7.72999370e-01  -4.74854520e-01
C     1.757310190772050e+00   1.769242957655792e+00   7.083946828150589e+00  4.27602260e-01   3.39197180e-01   1.23044390e+00
C     7.098045957912003e+00   1.750387084729754e+00   1.751047528275378e+00  7.67183780e-01   2.35143440e-01   1.71618397e+00
C     1.774264560647238e+00   7.100177773855741e+00   1.795131975006284e+00  4.54801550e-01   3.59516720e-01  -2.93387270e-01
C     9.048291960256925e-01   8.644892530783236e-01   8.913772170596046e-01 -6.26527280e-01   3.51597390e-01  -4.25079330e-01
C     2.620867387476439e+00   2.657762446653704e+00   9.182120100396879e-01  1.78814393e+00   4.30090900e-02  -1.61444291e+00
C     8.887015357012105e-01   2.660270582490945e+00   2.672221049347010e+00 -5.18693300e-01   6.88760200e-02  -7.88705800e-01
C     2.675594422385557e+00   9.027278752149943e-01   2.668068593189311e+00  2.23922300e-02  -9.37559320e-01   1.22731610e-01
C     3.544787745216892e+00   1.747449315829360e-02   2.257834059945360e-02  9.91853930e-01  -5.56180500e-02  -1.56867073e+00
C     5.352793429009127e+00   1.803070377051396e+00   7.072577688096388e+00 -1.02792596e+00  -1.23421035e+00   5.72008180e-01
C     3.570209099443215e+00   1.774227739018067e+00   1.788838959545024e+00 -7.93111340e-01   4.94415900e-01  -7.04015330e-01
C     5.331065824428835e+00   1.110214770059460e-02   1.752829823078890e+00  5.16407950e-01  -1.74330070e-01   6.28068400e-02
C     4.463066147923850e+00   9.242659692482371e-01   8.487490017866314e-01 -6.76792300e-01  -1.01086033e+00   1.10008529e+00
C     6.197915997911940e+00   2.620806397210360e+00   9.449787754152980e-01  7.26377190e-01   2.04103776e+00  -2.85439033e+00
C     4.437708129743072e+00   2.664316767730475e+00   2.664794453730539e+00  3.37301480e-01   2.73479700e-02   6.76664970e-01
C     6.213980322190878e+00   9.006003954090547e-01   2.655966219341856e+00  3.56925430e-01  -1.27158618e+00   4.08733250e-01
C     7.077592467002119e+00   3.555738483515681e+00   1.778214568928720e-02  8.76049380e-01  -2.82472900e-01  -4.75474630e-01
C     1.761691253801209e+00   5.320974281172126e+00   1.376318570839160e-02  9.18925190e-01   1.05134079e+00  -1.24356829e+00
C     7.102295159701559e+00   5.285732072422464e+00   1.784363709916151e+00  5.53210660e-01   1.52516178e+00  -8.20305400e-02
C     1.758476967260897e+00   3.553499472558833e+00   1.752288090191020e+00  4.23515990e-01   5.56562000e-02   1.39592985e+00
C     9.071471104736222e-01   4.451498825047004e+00   8.484758961895710e-01 -1.55289443e+00  -9.44266820e-01   2.10719705e+00
C     2.679026297742267e+00   6.228603982457420e+00   8.803452294902694e-01 -6.85251490e-01  -5.02231270e-01   1.14959843e+00
C     8.990105966900915e-01   6.221536859772843e+00   2.704911831965676e+00 -7.45878900e-01  -3.20547920e-01  -1.63591537e+00
C     2.662039158038801e+00   4.425552869231325e+00   2.695669531959378e+00  4.39842600e-02   7.57601560e-01  -1.03417734e+00
C     3.561376173495603e+00   3.563690391563770e+00   7.101559437960391e+00 -9.74518560e-01  -5.68933510e-01   7.83405480e-01
C     5.323865987493942e+00   5.323021862307818e+00   7.095273246584845e+00  3.18801840e-01   5.97254190e-01   6.64315900e-01
C     3.557553121642115e+00   5.328592519862432e+00   1.798308515822484e+00  2.36341760e-01  -1.48611590e-01  -4.86775130e-01
C     5.339413742701084e+00   3.545845620671201e+00   1.775320943332797e+00 -7.48522320e-01  -2.47270960e-01   1.15119590e+00
C     4.448830749700813e+00   4.444424096350223e+00   9.148397743487601e-01 -1.90484660e-01  -3.69098850e-01  -1.30773057e+00
C     6.221964431393435e+00   6.196818670712090e+00   8.824235900959050e-01  1.77386580e-01   6.36627350e-01   1.73049060e-01
C     4.482242823962729e+00   6.221075380976352e+00   2.643303701791945e+00 -1.33952132e+00   1.32584380e-01   7.33203860e-01
C     6.219382012539816e+00   4.419071196233730e+00   2.683515408795250e+00  4.47592950e-01   1.01261580e-01  -5.22872100e-01
C     1.597191478487800e-03   7.099639239758049e+00   3.575256577092998e+00  4.05050600e-02   5.96364790e-01  -1.06636755e+00
C     1.779315805761010e+00   1.792787972647339e+00   3.553308469243034e+00  5.92462000e-03  -1.92602070e-01  -2.40227610e-01
C     7.090610618935709e+00   1.775628169358433e+00   5.333402149691351e+00  8.71851160e-01   1.16518160e-01  -4.15931060e-01
C     1.771584045561462e+00   2.407423705560640e-02   5.308045411026644e+00  4.73849770e-01  -6.59542640e-01   8.59923430e-01
C     8.784863058909133e-01   8.969780854103550e-01   4.418711865470289e+00  3.99098470e-01   2.85392480e-01   8.58063230e-01
C     2.651920744944588e+00   2.688731569313805e+00   4.454809928303400e+00  5.66067750e-01  -8.46083080e-01  -2.40268210e-01
C     8.508573599357234e-01   2.657681908225419e+00   6.218600157135842e+00  8.95616950e-01   3.09428040e-01   7.53278400e-02
C     2.682024914740288e+00   9.120291040448119e-01   6.218510519926603e+00 -1.13472279e+00  -6.90908980e-01  -1.96487360e-01
C     3.559101620425655e+00   7.090423454168124e+00   3.548268739773906e+00  2.72044110e-01   8.43157050e-01  -6.28813500e-02
C     5.338086315861026e+00   1.762504528433163e+00   3.561292507361365e+00 -2.17761680e-01   1.28179696e+00  -4.30852140e-01
C     3.538868206280087e+00   1.790979518848585e+00   5.321648870478763e+00  3.13298810e-01  -5.21819590e-01  -8.38252200e-02
C     5.335561333062175e+00   1.000091086830420e-02   5.270109252272454e+00 -4.95604900e-02  -1.74684300e-01   2.73328193e+00
C     4.433370783513027e+00   8.995129489166470e-01   4.427667482792323e+00  1.90396460e-01  -4.53946650e-01  -1.58253210e-01
C     6.230048556102256e+00   2.688786090915301e+00   4.472800066438548e+00 -8.37888660e-01  -1.35521771e+00  -6.47814110e-01
C     4.418334905818750e+00   2.661855973987883e+00   6.176164580115870e+00  8.60879770e-01   5.83723680e-01   1.94471697e+00
C     6.240273808788448e+00   8.790557616270014e-01   6.199697937294321e+00 -6.92969310e-01   3.67615290e-01   3.74337520e-01
C     2.157406265170000e-03   3.536745489117302e+00   3.570691903507565e+00 -1.05635230e-01   4.00828810e-01  -2.52824930e-01
C     1.766760412139983e+00   5.346536097829420e+00   3.545857989326559e+00  8.24689140e-01  -1.01506157e+00   1.26317180e+00
C     7.102427163109613e+00   5.338871156802500e+00   5.324557779183320e+00  2.59607630e-01  -6.76690710e-01   6.52653070e-01
C     1.790038292609471e+00   3.559147327583102e+00   5.323505448298656e+00 -1.40489761e+00   2.27036340e-01   8.38265290e-01
C     8.811341933168632e-01   4.436583577284588e+00   4.437400192875174e+00  3.63177860e-01   5.30211270e-01   1.45396750e-01
C     2.683748351804507e+00   6.227352757907847e+00   4.461156470186988e+00 -7.79371950e-01   6.98299500e-02  -9.27442490e-01
C     8.792270035279172e-01   6.206711107051214e+00   6.208540815033601e+00  7.64552410e-01   7.45231050e-01   2.86908610e-01
C     2.644647620172482e+00   4.447697027377149e+00   6.237958311204209e+00  1.07221982e+00   8.43572500e-02  -6.01547200e-01
C     3.570945816363551e+00   3.547202618549358e+00   3.593677414554692e+00 -7.94414180e-01   2.70649660e-01  -1.57662015e+00
C     5.350905360877030e+00   5.332920838395751e+00   3.549364076615422e+00  8.51865600e-02  -4.21202900e-02   8.90784700e-02
C     3.555540585029940e+00   5.357482926495767e+00   5.341604700721021e+00 -3.04678600e-02  -1.02109165e+00  -1.93118870e-01
C     5.318438351402442e+00   3.539014568701833e+00   5.365192366248289e+00  4.90294740e-01   1.40006855e+00  -1.87286881e+00
C     4.452098989168809e+00   4.446078794967706e+00   4.421345180629869e+00 -7.35047000e-02   2.75750360e-01   1.55969523e+00
C     6.247052116261974e+00   6.231637928315862e+00   4.469902602294410e+00 -1.05311795e+00  -5.04527310e-01  -1.75710804e+00
C     4.463170001978329e+00   6.217513634738375e+00   6.207391525264399e+00 -8.13533740e-01   7.38301640e-01   2.41225090e-01
C     6.212120332328128e+00   4.456070820307735e+00   6.225021692878071e+00 -3.67898500e-01  -9.42313440e-01   2.36220310e-01
