64
Lattice="7.10842262195238 0 0 0 7.10842262195238 0 0 0 7.10842262195238 " PBC="1 1 1" Properties=species:S:1:pos:R:3:force:R:3 Energy="-513.62294093"
C     1.813387044052480e-02   7.090157812414814e+00   7.084911370015897e+00 -9.79755180e-01   6.17522160e-01   6.86416580e-01
C     1.788589738247967e+00   1.813222910574184e+00   7.099901967058084e+00  3.39480850e-01  -9.80555180e-01   3.14370320e-01
C     7.100863523385891e+00   1.772487454992238e+00   1.738744128236229e+00  9.99693790e-01  -2.35886950e-01   1.20194254e+00
C     1.768128783494333e+00   7.101182407224625e+00   1.778674910377591e+00  2.48514810e-01   5.08815790e-01   5.79004900e-02
C     9.084798686306460e-01   8.728063918806284e-01   8.700598395487128e-01 -6.44237080e-01   8.53742190e-01  -2.77130250e-01
C     2.653593356787074e+00   2.682362849151643e+00   9.178958274015504e-01  1.30002150e-01  -8.46526460e-01  -4.51784280e-01
C     8.935961111804377e-01   2.660226083765344e+00   2.664306460517676e+00 -1.25044891e+00   4.98927780e-01  -9.20466970e-01
C     2.634877306533971e+00   8.681060895916058e-01   2.688624374300696e+00  8.49395410e-01   7.36196740e-01  -5.74535440e-01
C     3.525641422142601e+00   7.083824847618430e+00   5.057166429814460e-02  1.30024357e+00   1.24147347e+00  -1.17859352e+00
C     5.344635589957737e+00   1.819907955542937e+00   1.667564862425800e-03 -9.51810860e-01  -1.58035130e+00  -1.61149170e-01
C     3.559467775274811e+00   1.756673986947560e+00   1.797552606161073e+00 -4.06603820e-01   9.80830680e-01  -2.20538300e-02
C     5.325996381753156e+00   3.468846262756420e-02   1.756995145481532e+00 -2.70301560e-01  -9.81766500e-01   3.61179700e-01
C     4.426879443060669e+00   9.320799028132721e-01   8.843988074893244e-01  5.61863280e-01  -1.43801897e+00   1.76088570e-01
C     6.251503410506619e+00   2.646321653699492e+00   8.706462844148628e-01 -5.04874110e-01   1.78709910e+00  -1.54010060e-01
C     4.507331219673532e+00   2.616990027274134e+00   2.683913053956613e+00 -1.78666252e+00   1.39730695e+00  -3.52974720e-01
C     6.218813125477537e+00   9.158042451298416e-01   2.651389248185291e+00  1.64689690e-01  -1.43124025e+00   3.12777540e-01
C     1.090403596217520e-02   3.536327016277663e+00   7.054184146977555e+00  5.46055190e-01   1.51100063e+00   1.28027534e+00
C     1.817407994391709e+00   5.336365437828951e+00   3.989033521665400e-03 -8.62284610e-01  -7.42186400e-02  -4.82288550e-01
C     7.085309015177260e+00   5.350945096959475e+00   1.755668571652187e+00  6.63770090e-01   2.62778530e-01   2.14211960e-01
C     1.746988334622453e+00   3.555527221195415e+00   1.777471027922668e+00  1.06479199e+00   4.60440890e-01   1.76259460e-01
C     8.857092451993214e-01   4.480867983943796e+00   8.653116975754576e-01 -2.08095000e-02  -1.20946974e+00   4.52801530e-01
C     2.708143747394085e+00   6.213974919789686e+00   9.311076838515349e-01 -1.94539981e+00  -5.82863520e-01  -3.26672470e-01
C     8.507472504693395e-01   6.262902263767372e+00   2.648983189296873e+00  7.56425030e-01  -1.34550040e+00   1.08797590e-01
C     2.682965643389819e+00   4.410563836042114e+00   2.689217003494525e+00 -8.03843900e-01   9.82119930e-01  -1.04352681e+00
C     3.518683555913692e+00   3.537434935027217e+00   9.008930491683199e-03  1.22334592e+00   3.41468140e-01   8.47640570e-01
C     5.323993939101102e+00   5.320608410659875e+00   7.092918084002387e+00 -1.11918370e-01   3.09537340e-01   8.68594450e-01
C     3.565523298336337e+00   5.317353606110629e+00   1.811761774304643e+00 -4.78945070e-01  -1.01572730e-01  -8.00007800e-02
C     5.366471953404115e+00   3.570301153516144e+00   1.795831585960545e+00 -3.20549680e-01  -8.20381990e-01  -2.33071260e-01
C     4.429255077900273e+00   4.448066238848032e+00   9.504012934425125e-01  8.96791290e-01  -8.01301480e-01  -2.35893351e+00
C     6.205082993934329e+00   6.220688896038503e+00   8.660698819321068e-01  7.62990800e-02   3.79164720e-01   9.42142800e-02
C     4.412264668322402e+00   6.207221562879555e+00   2.675922333921018e+00  1.46331797e+00   1.25758169e+00  -1.45043520e-01
C     6.245074410920639e+00   4.484596280523760e+00   2.673145570792967e+00 -8.26136350e-01  -1.16272907e+00  -1.88382860e-01
C     7.087536297236785e+00   3.469052407012400e-03   3.568884871393335e+00 -4.11049400e-02   5.74678330e-01  -2.27247010e-01
C     1.744927673989141e+00   1.804825659848952e+00   3.541536779215861e+00  7.50380530e-01  -2.04449776e+00   3.96866640e-01
C     1.615957714204600e-02   1.748403479397643e+00   5.356158271940531e+00 -4.79426300e-02   1.32196388e+00  -8.80276040e-01
C     1.765446704555581e+00   1.481928405704500e-02   5.358518908008405e+00  1.27475967e+00  -1.11072890e+00  -9.33269290e-01
C     8.909922248905054e-01   8.706135145865845e-01   4.472283070861395e+00 -3.83830930e-01   8.98015150e-01  -8.93901720e-01
C     2.644284948450410e+00   2.651885913673750e+00   4.390770148919819e+00  9.83356300e-01   2.69798190e-01   1.77434956e+00
C     9.467633449140490e-01   2.729390253931455e+00   6.180450461366147e+00 -1.94164507e+00  -2.74633192e+00   6.46020560e-01
C     2.677828741783476e+00   8.560817662245186e-01   6.248363762403817e+00 -9.02562700e-01   1.44285939e+00  -4.14439360e-01
C     3.553569135100509e+00   7.100902832962980e+00   3.558350117986268e+00 -7.86457660e-01  -6.53919500e-02   6.21308240e-01
C     5.350588964986213e+00   1.741891098014330e+00   3.564192104032290e+00  1.77968350e-01   8.79276210e-01   5.16512660e-01
C     3.542231343190061e+00   1.759894031310194e+00   5.328453834537116e+00 -2.13182800e-02   1.23819700e-01   3.39095460e-01
C     5.258837853029277e+00   7.097852608816739e+00   5.346778210703858e+00  1.93192322e+00   5.46772530e-01   8.55051990e-01
C     4.435513048838017e+00   8.755316189446840e-01   4.476297765788719e+00 -2.83654090e-01   2.25228760e-01  -1.51113067e+00
C     6.251725406545042e+00   2.647844988666958e+00   4.445197990320862e+00 -1.00803416e+00   1.60662540e-01   6.06062410e-01
C     4.425912342163219e+00   2.667746865981530e+00   6.230504987918686e+00  8.58371900e-02   1.38084620e-01  -2.84132400e-02
C     6.209767373356683e+00   8.917954766465654e-01   6.227302643528376e+00  1.97130600e-02  -1.91129820e-01   9.65765400e-02
C     7.705459035853800e-03   3.555506820022495e+00   3.549888678204778e+00 -8.88710100e-02   5.41131680e-01  -8.07432400e-02
C     1.765287760225797e+00   5.364762591016683e+00   3.517054731954546e+00  6.08155430e-01  -8.45135680e-01   5.86519300e-01
C     1.947515870469260e-02   5.360860564587886e+00   5.311667792109569e+00 -9.58152370e-01  -9.16303600e-01   4.27181900e-02
C     1.776355147739780e+00   3.570628709630473e+00   5.274541424860250e+00  6.86080230e-01   3.87165540e-01   3.89190620e-01
C     9.002802320542499e-01   4.487215663175003e+00   4.385611922045617e+00 -4.73793390e-01  -8.04470600e-01   1.26348187e+00
C     2.671642708082647e+00   6.191461194751848e+00   4.443618001225114e+00 -3.30915300e-01   7.71691770e-01   5.69717700e-02
C     8.928283304532513e-01   6.233465148350334e+00   6.202296350098836e+00  5.00696140e-01  -6.32780610e-01   6.71280440e-01
C     2.674345188194319e+00   4.400979336570890e+00   6.213569810784572e+00 -1.06005800e-02   1.29166804e+00  -5.12323600e-01
C     3.580174965788002e+00   3.516000055290416e+00   3.554305567683941e+00  2.01352600e-02   4.46424520e-01  -1.82085240e-01
C     5.324328532553825e+00   5.361093578681371e+00   3.559387023593848e+00  3.85830130e-01  -1.00171835e+00   4.77923900e-02
C     3.583452943794989e+00   5.273300152102346e+00   5.306252666841879e+00 -1.62073185e+00   1.64375010e+00   1.23603563e+00
C     5.309527801479819e+00   3.551299629010622e+00   5.366642982052352e+00  1.40809314e+00  -1.92534960e-01  -1.93327261e+00
C     4.469334354990167e+00   4.434131242564915e+00   4.436709609617641e+00 -4.00588610e-01  -6.79414480e-01   8.65132900e-02
C     6.171950067428699e+00   6.235590211292583e+00   4.474676974347132e+00  9.53466150e-01   1.39729300e-02  -9.19026640e-01
C     4.393425855610651e+00   6.225396164581693e+00   6.246185883881502e+00  1.10352936e+00  -1.37553705e+00  -5.91853870e-01
C     6.237845500537230e+00   4.432719296579904e+00   6.191825217074219e+00 -7.09130250e-01   3.99079340e-01   6.96196270e-01
