64
Lattice="7.10842262195238 0 0 0 7.10842262195238 0 0 0 7.10842262195238 " PBC="1 1 1" Properties=species:S:1:pos:R:3:force:R:3 Energy="-514.1878644"
C     5.698680246001600e-03   7.092613630261572e+00   2.481123831284800e-03  1.93761030e-01   7.72881330e-01  -2.86869260e-01
C     1.807774660057085e+00   1.785176700211200e+00   7.016723968202000e-03 -1.22472361e+00   3.38823400e-02  -7.92983490e-01
C     7.100302171251591e+00   1.764018124861639e+00   1.783027966221627e+00  6.66111280e-01   8.27344640e-01  -9.69058770e-01
C     1.750157909184485e+00   2.916919896849140e-02   1.802142088141449e+00  7.35882750e-01  -1.43368851e+00  -9.42930260e-01
C     9.069938528819349e-01   8.906661615449259e-01   8.607405553254404e-01 -8.55410100e-01   2.28161380e-01   1.25510220e+00
C     2.639939854039709e+00   2.674443142258022e+00   8.954443010616375e-01  9.82395720e-01   1.50794530e-01   3.61066140e-01
C     8.667972157345851e-01   2.684642378117424e+00   2.657566609610523e+00 -1.15175970e-01  -8.79220620e-01   4.77858510e-01
C     2.637208371563748e+00   8.757878064959088e-01   2.691665997255568e+00  6.02383630e-01   9.47477910e-01  -9.19068200e-01
C     3.551661021216622e+00   1.358320044765320e-02   3.036931395942600e-03  7.08893500e-02  -9.71902680e-01   7.00157330e-01
C     5.343082328531040e+00   1.757194039146439e+00   7.093841681353403e+00 -4.85515720e-01   1.84715581e+00   7.02819260e-01
C     3.552324592468199e+00   1.776955169693135e+00   1.783044528846331e+00  9.35447800e-02   3.67653340e-01   2.03283890e-01
C     5.337868513791950e+00   3.581379701253640e-02   1.764336084605432e+00 -7.25250370e-01  -9.74217590e-01   5.40665080e-01
C     4.455494469401706e+00   9.311737210976746e-01   8.979629573643561e-01 -5.93256440e-01  -1.57325453e+00  -7.69048320e-01
C     6.231409605781308e+00   2.670375987171763e+00   8.804469510179616e-01  2.60956480e-01  -4.55598260e-01  -4.31841600e-01
C     4.486667817043680e+00   2.654866901783673e+00   2.662669959462100e+00 -1.31756141e+00   3.25574330e-01  -4.54633600e-02
C     6.221050288244504e+00   8.854922961409589e-01   2.664062286200679e+00  2.22744760e-01   4.82761280e-01   3.62164490e-01
C     1.905753887576760e-02   3.557803835707922e+00   7.044086561561619e+00 -9.67020500e-02  -2.15791960e-01   2.50656589e+00
C     1.802225541023009e+00   5.318715864221526e+00   2.281519324115200e-03 -4.79154300e-01   4.46909590e-01   3.62134380e-01
C     7.067692637903471e+00   5.323875015190670e+00   1.751878147458525e+00  1.11739662e+00   6.56902800e-01   8.09143220e-01
C     1.748358056577101e+00   3.577305508828987e+00   1.787869512868109e+00  2.00038740e-01  -8.47744530e-01  -5.77059440e-01
C     8.786234984474792e-01   4.456576726745601e+00   8.772594632309274e-01  1.01244140e-01  -2.87258260e-01  -3.24088070e-01
C     2.671767674152306e+00   6.201748219630607e+00   9.242228211229337e-01  2.17255940e-01   5.17167860e-01  -4.66198420e-01
C     8.632580742805396e-01   6.241462621387416e+00   2.665238872312741e+00 -1.51613630e-01  -4.96378420e-01  -2.56813440e-01
C     2.647793026097606e+00   4.412367953703070e+00   2.684772888756727e+00  1.28282418e+00   7.02027470e-01  -8.38394150e-01
C     3.529831339687507e+00   3.558251381996077e+00   7.099341610102949e+00  1.21040352e+00  -5.24484090e-01   8.72982220e-01
C     5.320781642919124e+00   5.338301487813733e+00   7.096112893464719e+00  8.61140300e-02  -2.84432430e-01   1.67755870e-01
C     3.590774832346268e+00   5.293065050113030e+00   1.812327036071385e+00 -1.24520533e+00   1.15025460e+00  -1.02338266e+00
C     5.358184030218778e+00   3.555238263815911e+00   1.785560981538038e+00 -3.50006250e-01  -2.67964700e-01  -8.75867570e-01
C     4.474658918953677e+00   4.438594407875334e+00   8.837213037294122e-01 -1.13455495e+00  -1.18279430e-01   4.42646650e-01
C     6.190479521588027e+00   6.230241407607937e+00   8.785351407543125e-01  6.17839020e-01  -8.11965700e-02  -6.05387600e-02
C     4.441280680783432e+00   6.236715830014459e+00   2.664180286016171e+00  2.08918090e-01  -4.64407570e-01   1.65376290e-01
C     6.228015049643354e+00   4.432957784158805e+00   2.678887754585404e+00 -6.57664570e-01   4.42457030e-01  -4.93320010e-01
C     7.070951209916705e+00   9.398827472390200e-03   3.582959619265161e+00  8.17193460e-01  -6.68563220e-01  -4.74580060e-01
C     1.748503210567001e+00   1.773162684056912e+00   3.539515641412317e+00  1.71690720e-01   2.72518350e-01   9.61982570e-01
C     1.078155784043260e-02   1.766753516970041e+00   5.355037202609130e+00  3.74647210e-01   2.18187960e-01  -5.45199570e-01
C     1.808174224492556e+00   7.090766293391087e+00   5.354155829288477e+00 -1.05334039e+00   2.45928120e-01  -7.94899210e-01
C     8.698338627936230e-01   8.704617497636477e-01   4.472931287920113e+00  6.67352540e-01   3.67275280e-01  -7.28213830e-01
C     2.648718898143861e+00   2.669772624259777e+00   4.419359300602519e+00  3.80360410e-01  -9.38032230e-01   6.28341670e-01
C     9.180606717221083e-01   2.687373860593385e+00   6.183998488348467e+00 -5.06406990e-01  -7.29825820e-01   7.47625980e-01
C     2.664934063150796e+00   8.772138271577069e-01   6.228348647916910e+00  5.31179180e-01   4.04993420e-01   1.65033410e-01
C     3.536081207023464e+00   9.935513380200199e-03   3.555838854443075e+00  9.16106140e-01  -2.13714190e-01   6.90704800e-02
C     5.374835296953449e+00   1.803684473681537e+00   3.551944647279160e+00 -1.22658747e+00  -1.24769225e+00   7.19266340e-01
C     3.546214050215595e+00   1.755410606995308e+00   5.345154433724770e+00 -9.25094200e-02   1.22991361e+00  -7.56724950e-01
C     5.307582297292951e+00   7.107165495459653e+00   5.357649761174659e+00  2.98797360e-01   1.61460930e-01  -1.32859654e+00
C     4.440237093258590e+00   8.998833688193753e-01   4.451480769653549e+00  9.03059000e-02  -1.03865910e-01  -2.74285670e-01
C     6.245749497816860e+00   2.647456939876133e+00   4.488670828369544e+00 -4.01629850e-01   8.72887080e-01  -1.20740513e+00
C     4.423748325065012e+00   2.675677377677533e+00   6.224822585960485e+00  6.22220790e-01  -7.93358330e-01  -1.16159410e-01
C     6.226311302909791e+00   9.036331328356513e-01   6.208934977067879e+00 -2.22132220e-01  -1.32186027e+00   9.91874940e-01
C     7.087646122366264e+00   3.558294174700249e+00   3.579120715629230e+00  1.04876481e+00   6.89884000e-02  -8.05510250e-01
C     1.773954846673685e+00   5.331547846566697e+00   3.523243609024422e+00  1.52769210e-01   9.53601020e-01   3.37114960e-01
C     7.093619258809623e+00   5.349927384092969e+00   5.336876035825745e+00  7.82067390e-01  -2.01059080e-01  -6.35527150e-01
C     1.770026874502325e+00   3.579050271161066e+00   5.297849516125873e+00  5.31529100e-01  -2.57380430e-01  -2.30634260e-01
C     8.893935406432674e-01   4.491701220016676e+00   4.376470632724749e+00 -6.33821200e-01  -1.23204219e+00   2.71088133e+00
C     2.687897395919349e+00   6.217821216185142e+00   4.425460957326848e+00 -7.00731190e-01  -7.54074790e-01   6.24690440e-01
C     9.144059473162613e-01   6.221547593490999e+00   6.235453018736016e+00 -6.08221250e-01  -5.89339650e-01  -4.13926420e-01
C     2.681134584807133e+00   4.419978302044268e+00   6.215539981197931e+00 -7.92879060e-01   9.35707820e-01  -4.69600620e-01
C     3.560579390404127e+00   3.508979492773999e+00   3.539878170965937e+00  2.04395180e-01   9.07335030e-01   7.18816950e-01
C     5.334297810941471e+00   5.331453020208947e+00   3.545566828336044e+00 -2.80867340e-01   2.05738200e-02   5.84294360e-01
C     3.569367320036554e+00   5.290409627759102e+00   5.316876133363244e+00 -3.46531520e-01   8.38980170e-01  -7.34912100e-02
C     5.352709336369533e+00   3.553959600755026e+00   5.343445924348053e+00 -7.05283510e-01  -7.21637660e-01   5.45553400e-02
C     4.472901503629336e+00   4.407059668027359e+00   4.452472678945943e+00 -8.21527140e-01   6.28988850e-01  -1.00997388e+00
C     6.185172941933744e+00   6.223120545248352e+00   4.452521869230474e+00  5.44413660e-01   1.03369490e-01   2.87013580e-01
C     4.411226909704108e+00   6.204367389029173e+00   6.198235095003351e+00  8.38601040e-01   4.42671510e-01   1.09454437e+00
C     6.225682420760600e+00   4.428940032609755e+00   6.223946188535665e+00 -2.70704000e-03   1.08497965e+00  -6.70763660e-01
