64
Lattice="7.10842262195238 0 0 0 7.10842262195238 0 0 0 7.10842262195238 " PBC="1 1 1" Properties=species:S:1:pos:R:3:force:R:3 Energy="-510.17449229"
C     2.903221966460400e-02   1.936760827045200e-02   2.891656562857660e-02 -2.63173813e+00   2.06810350e-01  -5.56390630e-01
C     1.790987195945015e+00   1.753632648329593e+00   9.356319105122600e-03 -5.92916030e-01   7.89989920e-01  -1.87567264e+00
C     7.101064762830264e+00   1.826404485143807e+00   1.825148213614175e+00  1.09011876e+00  -1.76485355e+00  -1.66901085e+00
C     1.795001606535434e+00   2.357316434512260e-02   1.716600396595763e+00 -6.82817530e-01  -5.51190070e-01   2.78162939e+00
C     8.708458178378062e-01   8.895917945501393e-01   8.630876143061120e-01  1.42172190e+00   1.33950294e+00   1.20576998e+00
C     2.704625789039447e+00   2.634195466636261e+00   8.474079978593684e-01 -2.06082200e-01   9.45251200e-02   1.19943436e+00
C     9.965072333980947e-01   2.650886895958735e+00   2.621664668157498e+00 -2.37495154e+00   2.14636929e+00   9.34162700e-01
C     2.653026744420034e+00   8.505917181824140e-01   2.738995652165183e+00  7.68534760e-01   1.84116972e+00  -2.74327010e+00
C     3.594581250490825e+00   7.067318592705207e+00   7.107604369472212e+00 -9.64780750e-01   1.46859995e+00  -5.88661410e-01
C     5.300891921007233e+00   1.714849449936004e+00   4.395685054487740e-02  1.38696918e+00   1.81966622e+00  -1.02125482e+00
C     3.577706992538564e+00   1.766394541627732e+00   1.785109099112084e+00 -1.42082147e+00  -1.55830614e+00  -7.52635000e-01
C     5.370286190813554e+00   7.046576215500047e+00   1.810977644205431e+00 -1.20741113e+00   1.29781680e+00   7.31707710e-01
C     4.468211863974243e+00   8.361833009528049e-01   9.248239804239072e-01 -3.89449710e-01  -3.23219490e-01  -4.29976160e-01
C     6.172949440564844e+00   2.658890482239272e+00   9.714329834483065e-01  2.65266650e-01   4.47740990e-01  -2.17383164e+00
C     4.366460267654360e+00   2.677192111453629e+00   2.616393914953221e+00  1.53893659e+00   6.77222550e-01   1.92596267e+00
C     6.258350172089977e+00   9.058250860347545e-01   2.650160201914292e+00 -1.67093288e+00  -7.86833080e-01   1.15382380e+00
C     7.089253194552193e+00   3.515057194114099e+00   1.871015026232820e-02 -2.98794760e-01   2.39430200e-01  -5.89007780e-01
C     1.715759896705174e+00   5.391402328880074e+00   7.085552834073126e+00  1.49818243e+00  -2.32486876e+00   1.01081144e+00
C     3.714897203325100e-02   5.305717331534368e+00   1.771977070248122e+00 -9.16611040e-01  -3.14281330e-01  -9.03260300e-02
C     1.870908542061972e+00   3.516321427077066e+00   1.717821268180747e+00 -2.24312332e+00   1.27131550e+00   8.32201090e-01
C     8.731198733181703e-01   4.403039641783071e+00   8.124145128171800e-01  1.48411998e+00   1.13030519e+00   2.96087994e+00
C     2.667275222140693e+00   6.219972011617275e+00   8.838919058722922e-01 -5.72334830e-01   3.02149330e-01  -6.50280270e-01
C     8.892012578113964e-01   6.233737329852453e+00   2.635374540696240e+00  2.20727171e+00  -1.41843606e+00  -6.34930800e-02
C     2.717747297437931e+00   4.431407295016931e+00   2.657579831276596e+00 -1.69654490e+00  -8.38133150e-01   3.87764760e-01
C     3.538600147663087e+00   3.584445563929646e+00   1.113420668661080e-02  1.10602303e+00  -7.73840180e-01  -2.82531640e-01
C     5.385261220410203e+00   5.395791922016376e+00   1.702296615347120e-02 -3.26416110e-01  -1.90119330e+00  -5.37815560e-01
C     3.544386972349576e+00   5.331198041089567e+00   1.757768115357231e+00 -5.34835380e-01  -9.99823000e-03   6.41602380e-01
C     5.237110177364759e+00   3.601696212859636e+00   1.793126760069409e+00  2.13269229e+00  -5.18468980e-01  -1.75864769e+00
C     4.445900728981075e+00   4.534182077688736e+00   8.449141499515938e-01 -3.62695020e-01  -2.44653653e+00   1.21701892e+00
C     6.269710284447451e+00   6.189580590463502e+00   9.715892976617203e-01 -8.69416570e-01   1.75025503e+00  -2.98236199e+00
C     4.335589027973736e+00   6.131626118432225e+00   2.723101645692220e+00  3.40350936e+00   3.28204442e+00  -4.97868940e-01
C     6.170653491142811e+00   4.471588435802968e+00   2.591813202785939e+00  1.53962793e+00  -1.57870231e+00   2.94014396e+00
C     8.134246196714820e-02   7.094800252143711e+00   3.538384335952343e+00 -3.40902279e+00   6.31642530e-01  -1.67504612e+00
C     1.826544094564064e+00   1.861504312188391e+00   3.539149344394708e+00 -3.83244870e-01  -3.96884399e+00   1.35237887e+00
C     7.062241401848873e+00   1.773101978127737e+00   5.255336954888927e+00  6.49577430e-01   5.04736100e-01   1.12124014e+00
C     1.662190041914366e+00   1.926226144722360e-02   5.305186119111975e+00  3.17055201e+00   6.68780400e-01   1.50961759e+00
C     8.678491911981190e-01   8.905888219068204e-01   4.367619224878324e+00  7.37468520e-01   1.70543406e+00   1.97046739e+00
C     2.730898874464098e+00   2.666876013126354e+00   4.520684533733654e+00 -2.75223769e+00  -8.73828300e-02  -2.27186390e+00
C     8.608783165558159e-01   2.657508178376586e+00   6.204802495577743e+00  6.36338830e-01  -6.09443410e-01  -2.84313010e-01
C     2.656972203311038e+00   8.996652824133936e-01   6.169523820620040e+00 -5.73613820e-01  -1.34173678e+00   2.01545210e+00
C     3.527768688695862e+00   7.102041602266705e+00   3.640888145553874e+00 -1.02698801e+00  -8.75871400e-01  -2.22498548e+00
C     5.242408297996123e+00   1.822785089598382e+00   3.462878670882704e+00  3.03924787e+00  -1.59844953e+00   2.39387314e+00
C     3.558960162815517e+00   1.752186795168685e+00   5.329567297856313e+00  5.71273460e-01   2.57466100e-01   8.66262900e-01
C     5.350295884721590e+00   7.053784013868275e+00   5.257190333918640e+00  2.61542720e-01   2.73305331e+00   6.94528680e-01
C     4.408170359061734e+00   8.910170332854491e-01   4.400138552343396e+00  1.89222912e+00   4.88982100e-02   8.78796640e-01
C     6.171931159024529e+00   2.694345659330629e+00   4.415910222863069e+00  9.85464120e-01  -1.96034600e-01  -5.93422140e-01
C     4.432801256692713e+00   2.641051042663667e+00   6.252460630696628e+00  2.88598010e-01   4.30608490e-01  -1.05288020e-01
C     6.232824963809176e+00   9.140269262221630e-01   6.172463153373410e+00 -1.18586278e+00  -1.90645938e+00   1.32927874e+00
C     7.826430172000960e-02   3.562253210678459e+00   3.537883121073408e+00 -2.84733206e+00   4.96335360e-01  -7.39891280e-01
C     1.809546221142442e+00   5.311741506452139e+00   3.559904872181715e+00  2.39964300e-01   1.69618670e+00  -7.46265260e-01
C     2.898103902174000e-02   5.373575826633638e+00   5.334077094419119e+00 -1.46443872e+00  -2.07041107e+00  -3.69456330e-01
C     1.804191730719700e+00   3.531188621902570e+00   5.339305907929940e+00 -8.79378950e-01   1.78555073e+00   8.84846270e-01
C     9.086982393735323e-01   4.489361411627076e+00   4.407525198624743e+00  5.92627940e-01  -1.86049810e+00   1.62303271e+00
C     2.637855451274846e+00   6.269988579193024e+00   4.540191253834779e+00 -6.90753100e-02  -2.19003572e+00  -1.57673493e+00
C     8.170460055752410e-01   6.261367839660619e+00   6.255970698702158e+00  2.02014607e+00  -2.18566740e-01  -1.96689287e+00
C     2.647630385388061e+00   4.454464601132520e+00   6.295143367571097e+00 -3.43302290e-01   7.21100480e-01  -2.36809436e+00
C     3.548881556887976e+00   3.502117519166235e+00   3.621106613834260e+00  4.06348360e-01   2.46772301e+00  -1.76011268e+00
C     5.292129866033143e+00   5.297504046786541e+00   3.546220945385536e+00  7.48883950e-01  -1.11305540e-01   4.43695170e-01
C     3.558818634121153e+00   5.377543819224348e+00   5.439172208402546e+00 -1.27960394e+00  -2.17258763e+00  -2.73991232e+00
C     5.315701395441063e+00   3.556662009782471e+00   5.373109656278219e+00  5.09776520e-01  -5.76159400e-02  -3.36084790e-01
C     4.405065471145544e+00   4.423567344625106e+00   4.495676889703815e+00  1.23003429e+00   5.59218760e-01  -1.17966300e-01
C     6.259679091698786e+00   6.196329824488513e+00   4.368757212255561e+00 -1.17402508e+00   3.16616520e-01   1.67087517e+00
C     4.488867873844570e+00   6.223199448739434e+00   6.186253066750853e+00  4.90705430e-01   6.06922570e-01   1.93352206e+00
C     6.247511036026322e+00   4.434298290496485e+00   6.264767798199765e+00 -9.13666830e-01   6.14710300e-01  -1.47553800e+00
