64
Lattice="7.10842262195238 0 0 0 7.10842262195238 0 0 0 7.10842262195238 " PBC="1 1 1" Properties=species:S:1:pos:R:3:force:R:3 Energy="-509.63427109"
C     7.072327898125520e+00   9.229220508677000e-03   3.251747927519000e-03  7.08425560e-01  -2.08986800e-01   1.13298901e+00
C     1.761463855361595e+00   1.761547450411606e+00   4.370180034127179e-02 -2.21039040e-01   2.42569040e-01  -1.93778713e+00
C     7.105617565349922e+00   1.744922342672176e+00   1.822361498694456e+00  8.91725840e-01   1.62085234e+00  -8.98875120e-01
C     1.808261089416972e+00   7.470077837637740e-02   1.739179590205931e+00 -9.31462600e-01  -4.73306035e+00  -5.25097000e-03
C     8.926523259091802e-01   8.817327225014672e-01   9.117702863772178e-01 -1.33674826e+00   8.63562770e-01  -3.25913180e-01
C     2.643376065534217e+00   2.656287448960054e+00   8.436034989889182e-01  8.69261120e-01  -7.65639410e-01   2.15042495e+00
C     9.068789096881696e-01   2.730439528194394e+00   2.689558847538321e+00 -1.17135841e+00  -3.18610456e+00   6.26179910e-01
C     2.657385344833713e+00   8.343403002201176e-01   2.647750802067244e+00  3.94922530e-01   3.79141342e+00   2.30774640e-01
C     3.580012040741552e+00   3.497919711272220e-02   7.095380157261050e+00 -8.24260180e-01  -1.26074035e+00  -2.80695100e-02
C     5.363207339231653e+00   1.724821571692697e+00   8.018094571104020e-02 -1.84982120e-01   3.75532995e+00  -1.81711898e+00
C     3.561758109042975e+00   1.738052265462625e+00   1.768851496822108e+00  2.24715100e-01   2.51757818e+00  -2.07539510e-01
C     5.263729300802552e+00   1.853642041349540e-02   1.802483790016793e+00  9.62503040e-01  -1.96255722e+00  -2.46088700e-01
C     4.470771962380836e+00   9.035006318380145e-01   9.126117103627472e-01 -1.71549784e+00  -8.81676080e-01  -3.88527410e-01
C     6.263539391686804e+00   2.674929998123266e+00   9.400111964357633e-01 -9.64122170e-01  -2.81615680e-01  -7.15520300e-01
C     4.478853883478645e+00   2.711106395773649e+00   2.649428247637111e+00 -1.15914017e+00  -1.15813487e+00   5.26789620e-01
C     6.209685555412326e+00   8.228876362001308e-01   2.674936537872076e+00  9.72533160e-01   2.01174737e+00  -1.05723415e+00
C     7.102700339790900e+00   3.529552263015446e+00   7.032358161828202e+00  8.70001160e-01   8.62931200e-02   4.14406423e+00
C     1.832072954593674e+00   5.274762070298375e+00   7.097119943697296e+00 -2.69621346e+00   2.07938261e+00   1.33319540e-01
C     7.107893326851714e+00   5.304388696262463e+00   1.793687401361448e+00  1.18885500e+00   2.16217788e+00  -1.10541663e+00
C     1.805772004152352e+00   3.514593867127728e+00   1.839070699073481e+00 -1.61470368e+00   1.80161888e+00  -3.31813452e+00
C     9.130255627276836e-01   4.462304764777023e+00   9.116502251191660e-01 -5.46973300e-01  -1.89151261e+00  -1.28180619e+00
C     2.645951873554800e+00   6.228337558777622e+00   7.792629622442859e-01  2.16178418e+00  -7.71537500e-02   3.43528826e+00
C     9.911848730455957e-01   6.220780807942980e+00   2.665325097479122e+00 -3.32952795e+00   6.99836340e-01  -7.45842650e-01
C     2.603790255142604e+00   4.458232847047608e+00   2.642667284714777e+00  3.86501832e+00  -9.46674050e-01   1.19447942e+00
C     3.472095380567569e+00   3.509600555658309e+00   7.024375545394394e+00  4.70813653e+00   9.83906500e-02   2.55867481e+00
C     5.326209421179078e+00   5.365576576490899e+00   7.046110187313079e+00 -7.66347170e-01  -2.53347164e+00   2.73471167e+00
C     3.547755440576516e+00   5.277983607429759e+00   1.756715429051435e+00 -1.05804966e+00   2.54190800e+00  -2.32102970e-01
C     5.358515211628644e+00   3.648742668212070e+00   1.851635973401950e+00  2.34935470e-01  -3.48878279e+00  -2.94561210e+00
C     4.472391616474803e+00   4.420337419555031e+00   9.362693938528216e-01 -1.73613416e+00   1.22665554e+00  -2.83082341e+00
C     6.113979246025396e+00   6.203735379174028e+00   9.120608786939234e-01  3.34033810e+00   9.01411770e-01  -8.62053800e-01
C     4.344208487990069e+00   6.239846094999403e+00   2.676727789288090e+00  2.03410043e+00  -1.31745837e+00  -1.11418613e+00
C     6.258058371341426e+00   4.488797642629084e+00   2.678714877747285e+00 -1.58596657e+00  -3.57051200e-02   9.48342960e-01
C     7.108036561567507e+00   7.080661101962947e+00   3.527964667907495e+00  3.30207170e-01  -4.58668010e-01   1.20611043e+00
C     1.756328873029359e+00   1.774016761034705e+00   3.545185816883612e+00  4.02392520e-01  -6.18551810e-01   1.54813520e+00
C     7.043294327860619e+00   1.757172287373222e+00   5.336755192641204e+00  2.68813114e+00   4.86956330e-01  -4.20394660e-01
C     1.810100535938349e+00   7.096479474819232e+00   5.416835127666815e+00 -1.67224278e+00   5.73086760e-01  -2.93416767e+00
C     8.427428822623148e-01   8.396952882324422e-01   4.477321236477547e+00  8.50054550e-01   1.15248057e+00  -6.85469390e-01
C     2.683126435909483e+00   2.618180830231437e+00   4.461530515385252e+00 -1.29083757e+00   1.89755530e+00  -8.77252270e-01
C     8.909727478125266e-01   2.614613752676494e+00   6.223305435320698e+00 -1.24340164e+00   1.49646203e+00  -6.64269640e-01
C     2.674346183373486e+00   9.103028236115450e-01   6.216768600963572e+00  4.36944670e-01  -3.09288610e-01   1.70913367e+00
C     3.517450884347158e+00   1.490906343473560e-02   3.524916149782682e+00  7.79884200e-01  -2.87957870e-01   2.55988793e+00
C     5.400005226271703e+00   1.788652505619702e+00   3.469686407225878e+00 -1.97625554e+00   5.46009970e-01   3.93487229e+00
C     3.549140019134439e+00   1.775713754766778e+00   5.376829422751038e+00  2.29546478e+00   6.66750040e-01  -2.03794335e+00
C     5.314186661664967e+00   7.106626321603926e+00   5.351995792906937e+00 -3.14775790e-01   3.23766500e-01  -1.24923124e+00
C     4.486628862887722e+00   9.198014533375201e-01   4.478604591097361e+00 -2.01751798e+00  -4.56578000e-01  -2.06970804e+00
C     6.272447666914187e+00   2.692465694800318e+00   4.427606776863147e+00 -5.38266860e-01  -5.60840250e-01  -1.00599525e+00
C     4.574192047658085e+00   2.665903580911937e+00   6.195932392579828e+00 -4.60270741e+00  -7.62388460e-01   1.55918418e+00
C     6.179426279835058e+00   9.350451102249790e-01   6.227544045560552e+00  1.07508545e+00  -3.01578493e+00   7.77111110e-01
C     1.823523654708600e-03   3.625125502730930e+00   3.576152451595797e+00  1.40237997e+00  -1.43409801e+00  -1.07386375e+00
C     1.851354337697745e+00   5.354475495053698e+00   3.564393627813567e+00 -2.73738368e+00   3.36938300e-02  -7.22852590e-01
C     7.093442188002159e+00   5.310412657927556e+00   5.297114718479643e+00  4.00458040e-01   2.10938050e+00   5.28995670e-01
C     1.710155900648471e+00   3.595025171483444e+00   5.337300266487707e+00  1.84735838e+00  -3.10065408e+00  -1.47016614e+00
C     9.071830790920794e-01   4.486778850605003e+00   4.398917538589958e+00 -6.31555590e-01  -1.83291150e-01   1.92535452e+00
C     2.657861040475443e+00   6.236817053952568e+00   4.446749545726129e+00  1.37366210e+00  -4.98568000e-01   1.07196262e+00
C     9.063840923895915e-01   6.259256851395158e+00   6.272580594417181e+00 -1.25360364e+00  -2.68279721e+00  -1.39054991e+00
C     2.643372866744038e+00   4.385200344375918e+00   6.172705692753205e+00  6.21407100e-02   1.87267320e+00   8.35470400e-01
C     3.527677416549421e+00   3.569998334712532e+00   3.544011576551014e+00  1.05675031e+00  -1.35461525e+00   1.08604134e+00
C     5.295382751308281e+00   5.364117217327014e+00   3.520193029457050e+00 -5.52165300e-01  -5.20394190e-01   1.21077389e+00
C     3.551071448644520e+00   5.296083641778613e+00   5.337890194480940e+00 -3.20038240e-01   7.89380260e-01  -4.43535370e-01
C     5.417565731343698e+00   3.561623830939684e+00   5.291317657664582e+00 -2.88415477e+00  -9.12594710e-01   8.92752750e-01
C     4.433277521008253e+00   4.413244777633247e+00   4.482291374489225e+00  5.43412820e-01   1.07761779e+00  -2.33793780e+00
C     6.140794206506370e+00   6.231931506170069e+00   4.380019441633558e+00  2.57815747e+00  -4.86302340e-01   2.38831279e+00
C     4.397349918149570e+00   6.203547574648408e+00   6.220250377447075e+00  1.39946652e+00   7.97947450e-01  -6.51393590e-01
C     6.222544194342322e+00   4.407635947849163e+00   6.208462338047877e+00  8.96391740e-01   2.15978445e+00  -9.24130820e-01
