64
Lattice="7.10842262195238 0 0 0 7.10842262195238 0 0 0 7.10842262195238 " PBC="1 1 1" Properties=species:S:1:pos:R:3:force:R:3 Energy="-512.38463257"
C     6.595905349098000e-03   7.094796626848174e+00   3.793587441728500e-02 -1.38922112e+00   4.57091310e-01  -1.23657042e+00
C     1.776298920116856e+00   1.778067780001617e+00   5.370555457862400e-03 -2.89679870e-01  -7.59657400e-02  -3.32390430e-01
C     7.096832621254995e+00   1.797975770559642e+00   1.802387044384935e+00  9.29995280e-01  -1.11694125e+00   9.15957500e-02
C     1.759677579841415e+00   4.682673400925000e-03   1.756199144316544e+00  1.68143190e+00   1.18366011e+00  -1.66675560e-01
C     8.674464279724697e-01   8.840993296443438e-01   8.857922715755230e-01  4.36987980e-01   6.07599000e-01   4.62271750e-01
C     2.656767338571130e+00   2.642327573197767e+00   9.023899408036395e-01  1.60043600e-01   1.72509487e+00  -1.24203406e+00
C     9.212950040142082e-01   2.645635477663984e+00   2.706410074201293e+00 -1.82012241e+00   1.49571227e+00  -9.99110790e-01
C     2.636591076143427e+00   9.294246937120236e-01   2.668945274951036e+00  9.55918760e-01  -1.11613164e+00  -1.40842650e-01
C     3.541501450355440e+00   7.106116860954750e+00   7.067518979138865e+00  1.80196640e+00   4.39497780e-01   7.88871820e-01
C     5.345981569780833e+00   1.783901449193172e+00   3.962661273745200e-02 -4.94965220e-01  -7.07861030e-01   1.91219050e-01
C     3.566660432702858e+00   1.826943658999534e+00   1.778631477915383e+00 -1.14192546e+00  -1.76939386e+00   7.57076700e-02
C     5.305049210892314e+00   7.068768000077425e+00   1.809863683296651e+00  9.40716750e-01   6.70323740e-01  -4.99895520e-01
C     4.468308396353422e+00   8.935098860140571e-01   9.707781555565521e-01 -1.21678455e+00  -1.76767580e-01  -2.78397508e+00
C     6.227645980340922e+00   2.680879961108884e+00   9.608103699376572e-01 -2.42794890e-01   4.58363440e-01  -2.75464874e+00
C     4.411113601447545e+00   2.709045308634979e+00   2.615134444633409e+00  1.98090315e+00  -1.47725618e+00   1.90032877e+00
C     6.235846043422676e+00   8.520404857965962e-01   2.665807546122342e+00 -3.69523390e-01   2.84533780e-01   4.90715540e-01
C     7.100012645198277e+00   3.569585975116345e+00   7.094457981594557e+00  1.15119930e+00  -8.15213300e-01   4.43390590e-01
C     1.749956243234755e+00   5.317169711217450e+00   5.043624884723360e-02  1.09324574e+00  -4.90024280e-01  -2.57926598e+00
C     1.899477150403300e-02   5.321152702579888e+00   1.737928081319453e+00 -9.47314960e-01   1.41759041e+00   1.67602360e+00
C     1.764437663964672e+00   3.581587622615275e+00   1.784848077833478e+00  9.22575380e-01  -2.33629915e+00   2.33942820e-01
C     8.914001772646671e-01   4.434174106353313e+00   8.905282581460979e-01 -2.60323640e-01  -1.40129570e-01   5.17287420e-01
C     2.689291357595130e+00   6.223641023952589e+00   8.070540513194380e-01 -1.31074439e+00  -5.75346070e-01   3.07663439e+00
C     9.448061118298581e-01   6.278372394999505e+00   2.675210141058720e+00 -1.10735623e+00  -2.61344842e+00  -1.79879724e+00
C     2.691228687095985e+00   4.401010044956608e+00   2.663052961272865e+00 -1.14269581e+00   2.02622633e+00  -4.09919360e-01
C     3.575869607459747e+00   3.552514174099475e+00   7.060868196767141e+00 -1.63138371e+00  -9.19412000e-03   1.85897247e+00
C     5.330539161396919e+00   5.304252285632386e+00   3.415021286677779e-02  5.78720870e-01   1.02435801e+00  -2.49719679e+00
C     3.552509198203641e+00   5.297626595992510e+00   1.751202918393851e+00 -3.79861130e-01   1.33987137e+00   5.65548840e-01
C     5.342583317263117e+00   3.591247187029367e+00   1.776569253429095e+00 -8.16503300e-01  -1.12326870e-01   4.61939070e-01
C     4.437366143530824e+00   4.456908192492371e+00   8.886416827827500e-01  6.41621070e-01  -1.14490127e+00  -8.46407430e-01
C     6.188270650343087e+00   6.206864791148258e+00   8.559649748408720e-01  1.06262614e+00   8.89421900e-02   2.23057688e+00
C     4.383948693320988e+00   6.215969543176858e+00   2.682060527937614e+00  7.75582100e-01   4.60707950e-01  -1.91716810e-01
C     6.210533092641308e+00   4.502651034220523e+00   2.662515848859698e+00  1.41506200e-02  -9.94466730e-01  -2.82471050e-01
C     5.864967576351259e-02   7.068938957641437e+00   3.563555544786669e+00 -2.78708620e+00   7.67414400e-01  -5.85827530e-01
C     1.754417276018389e+00   1.731799554757620e+00   3.585476214125320e+00  1.46788390e-01   1.25156478e+00  -3.86843190e-01
C     7.082775217934361e+00   1.742353500905761e+00   5.314034328168220e+00  7.39256100e-01   2.32457910e-01   4.20197300e-01
C     1.760273336741197e+00   7.101292019101425e+00   5.344706105510127e+00  1.17639582e+00  -1.68047240e-01   1.13994363e+00
C     8.594211610029422e-01   8.180947822485958e-01   4.455902137438962e+00  1.09984580e+00   1.76209908e+00   5.36851200e-01
C     2.644532463726039e+00   2.668551894843245e+00   4.430093871769433e+00  1.13955741e+00  -1.83859843e+00  -3.11342990e-01
C     8.680642920666002e-01   2.641428997494373e+00   6.200334354371489e+00  6.19847620e-01   2.51332760e-01   5.61282800e-02
C     2.685066893116291e+00   9.301350383844402e-01   6.212702796477611e+00 -6.46610680e-01  -1.24394319e+00  -3.46235600e-01
C     3.535101097712618e+00   5.359288608009700e-02   3.582907727780035e+00  2.91475500e-02  -1.03062742e+00  -1.36863797e+00
C     5.327953685921573e+00   1.749924326417192e+00   3.532260074444083e+00  7.68084660e-01   1.44638523e+00  -4.70688390e-01
C     3.589231949216597e+00   1.799121790454438e+00   5.302884625120297e+00 -1.59448365e+00  -2.69716230e-01   9.89223930e-01
C     5.308504686212122e+00   7.108128971061568e+00   5.302820436064039e+00  1.07031498e+00  -3.98428800e-02   8.46402410e-01
C     4.432781210940925e+00   9.182479786581451e-01   4.418139353112474e+00  7.74085790e-01  -4.53833630e-01   6.00867730e-01
C     6.268788890707446e+00   2.666395981346825e+00   4.397214715951337e+00 -2.23886464e+00  -4.18369540e-01   1.33142864e+00
C     4.433224136754377e+00   2.654289911119608e+00   6.225329274324839e+00  1.66495913e+00   1.70498100e-02   9.21249800e-02
C     6.203421542315356e+00   8.662628756062398e-01   6.237309525471682e+00  1.40477430e-01   7.15896440e-01  -4.62153460e-01
C     7.099975894653332e+00   3.608425116795954e+00   3.540641117965742e+00  8.22035740e-01  -5.45008040e-01   6.67074480e-01
C     1.812933100183967e+00   5.388477568393075e+00   3.500651122663955e+00  5.37363840e-01  -1.50849969e+00   2.41674254e+00
C     7.104540710407218e+00   5.407557569884322e+00   5.344715915133342e+00  4.48541830e-01  -2.70452791e+00   8.27494000e-02
C     1.801396343524386e+00   3.509040980629663e+00   5.279019873279302e+00 -2.35725555e+00   2.53556108e+00   1.88751341e+00
C     8.892640251831309e-01   4.518482770911335e+00   4.446897969590434e+00  5.96556540e-01  -1.37332437e+00  -1.05041860e+00
C     2.723915702250662e+00   6.253590940977435e+00   4.478392546850607e+00 -2.25165283e+00  -6.58195300e-01  -1.21003243e+00
C     8.771861753937152e-01   6.194386879333789e+00   6.291717605457840e+00  4.38328820e-01   1.66593187e+00  -1.78690008e+00
C     2.625288613093401e+00   4.415697325605599e+00   6.206023011741597e+00  1.25140445e+00   4.49326080e-01   1.48577410e-01
C     3.544281199020991e+00   3.494005387272291e+00   3.545887062775075e+00  1.69028670e-01   2.03039661e+00   4.78298100e-02
C     5.276387979804247e+00   5.370792310504098e+00   3.553412891971321e+00  1.41040915e+00  -2.21342049e+00   6.14281650e-01
C     3.546644962794820e+00   5.312730714543938e+00   5.325814690470989e+00  6.34860320e-01  -4.36192930e-01   5.09011330e-01
C     5.346191979090385e+00   3.510875877760563e+00   5.354023612627745e+00  8.58007970e-01   1.28220354e+00  -1.18543352e+00
C     4.440668361258946e+00   4.373158107783828e+00   4.463449718408426e+00 -3.12063260e-01   1.57424327e+00  -7.74019480e-01
C     6.211222254214317e+00   6.202667978433409e+00   4.438474844206866e+00 -1.23416670e-01   1.58533092e+00  -3.15551830e-01
C     4.492971566223096e+00   6.184474894832460e+00   6.195211029852350e+00 -2.21350372e+00   6.92242180e-01   5.61696620e-01
C     6.277511067430639e+00   4.470502624247763e+00   6.202006255371713e+00 -2.56012682e+00  -1.37871165e+00   9.91928230e-01
