64
Lattice="7.10842262195238 0 0 0 7.10842262195238 0 0 0 7.10842262195238 " PBC="1 1 1" Properties=species:S:1:pos:R:3:force:R:3 Energy="-510.96856872"
C     9.931319410854400e-03   9.029331664602600e-03   1.005502728971026e-01  2.65678460e-01   1.99147350e-01  -2.72552043e+00
C     1.771929230563890e+00   1.733501453301301e+00   3.336380807232720e-02  2.94466180e-01   6.33485820e-01  -1.39581431e+00
C     7.101098172416577e+00   1.795703847606063e+00   1.838320973739749e+00  1.09369720e-01  -9.29718270e-01  -4.32810760e-01
C     1.761382961512179e+00   2.418185857407320e-02   1.802696402937357e+00  1.07153715e+00  -1.09120206e+00   2.87104090e-01
C     8.942394234275476e-01   8.970537190270318e-01   9.544441377234114e-01 -4.05047470e-01  -1.10553060e-01  -3.03133560e-01
C     2.688497204620024e+00   2.662016908676000e+00   8.329503192610027e-01  7.91486800e-02  -1.57274700e-01   5.82602960e-01
C     9.362393963093651e-01   2.655185643453954e+00   2.687118952558232e+00 -5.13553550e-01   9.66011170e-01  -8.35785200e-01
C     2.705550879159214e+00   8.866506846911142e-01   2.671272288179919e+00 -1.44326888e+00   5.45525170e-01  -4.40056080e-01
C     3.581442752962280e+00   7.098170781813209e+00   7.077318081888987e+00 -1.07469871e+00  -1.79550200e-02  -6.68980130e-01
C     5.312479502888547e+00   1.708839989453056e+00   7.091615394473045e+00  7.62778080e-01   1.47066788e+00   5.66077150e-01
C     3.560812546666063e+00   1.793636505055489e+00   1.749465264484392e+00 -3.34045410e-01  -1.46713919e+00  -2.37259220e-01
C     5.337092558378750e+00   2.341528627873240e-02   1.766334404372366e+00 -1.48258910e-01  -1.84662869e+00   2.53267741e+00
C     4.452413750122424e+00   8.125570366907110e-01   8.946230649963489e-01 -4.34332250e-01   2.62215178e+00  -1.25891008e+00
C     6.175986869550370e+00   2.625277168532982e+00   9.604655403563610e-01 -5.28913100e-02   1.62655103e+00  -1.66291582e+00
C     4.344201450651675e+00   2.733740324237991e+00   2.601648487407198e+00  3.33043612e+00  -1.79141631e+00   1.86223027e+00
C     6.190714739292522e+00   8.708841322357279e-01   2.682560392216253e+00  9.80571360e-01   1.78518698e+00  -1.51552180e-01
C     2.756433039357400e-03   3.550434249640863e+00   8.100452755579340e-02 -1.12414900e+00  -1.49711675e+00  -1.68295109e+00
C     1.721165354518100e+00   5.326876404473512e+00   7.105809492760661e+00  1.46267141e+00   4.97741430e-01   4.70237730e-01
C     3.507224636481800e-03   5.297167818396615e+00   1.752707842546731e+00  1.42962170e-01   3.91121300e-01   2.32133951e+00
C     1.859423037129481e+00   3.516557426708050e+00   1.713310618607227e+00 -2.61241502e+00   1.73723398e+00   2.42406601e+00
C     9.109063286919830e-01   4.420558562582739e+00   8.999119446783076e-01 -3.76291200e-01  -3.22370440e-01  -2.65976890e-01
C     2.607296271347240e+00   6.237313648356801e+00   8.556212115229688e-01  1.43781834e+00   3.00682220e-01   3.92766810e-01
C     9.241171899628006e-01   6.183177536620084e+00   2.710838692577779e+00 -1.38862747e+00   1.13627031e+00  -1.61731508e+00
C     2.678443122750522e+00   4.476763580723008e+00   2.618870347225577e+00  3.05850100e-01  -1.74959096e+00   7.65481270e-01
C     3.571238470122817e+00   3.622968594055342e+00   7.094532122442484e+00 -7.06643670e-01  -2.00707704e+00  -1.63746306e+00
C     5.366424895646370e+00   5.463354919987333e+00   3.502319824874000e-03 -1.04404298e+00  -4.88851925e+00  -1.07732486e+00
C     3.537859236773405e+00   5.364357979601152e+00   1.710228904148778e+00 -3.88767790e-01   2.15265110e-01   1.67879114e+00
C     5.218810538508736e+00   3.591593722632092e+00   1.765632945228225e+00  2.69316106e+00  -2.66005180e-01  -1.06624753e+00
C     4.397159057002224e+00   4.511527463714570e+00   8.103276221044003e-01  2.17576689e+00   4.82055600e-02   2.03352764e+00
C     6.235247514238072e+00   6.224151337612478e+00   9.520295487278497e-01 -7.94574000e-02   1.14778782e+00  -1.57937022e+00
C     4.433149640485319e+00   6.212069578190622e+00   2.692565639222355e+00 -2.25033890e-01  -5.08939600e-02  -1.83010053e+00
C     6.180044215013415e+00   4.435193738493926e+00   2.627075244034711e+00  3.91937120e-01  -4.51920550e-01   1.45322719e+00
C     1.443244369806460e-02   1.178320567181680e-02   3.550380296713177e+00  1.34627200e-02  -6.99873380e-01  -4.16341530e-01
C     1.847968951424970e+00   1.841978257177739e+00   3.549932466088117e+00 -1.47011841e+00  -2.80921107e+00   1.05940916e+00
C     7.096862050124642e+00   1.791433818138229e+00   5.317778050025270e+00  1.88939110e-01  -9.74617610e-01   7.75836720e-01
C     1.734555632375847e+00   7.094948249502659e+00   5.329759438519732e+00  7.52360490e-01   1.11034441e+00   4.65709890e-01
C     8.673538763099573e-01   9.095808211260316e-01   4.441453628705776e+00  1.27679132e+00  -4.14271800e-02  -3.51302300e-01
C     2.706231866046210e+00   2.664909823429662e+00   4.495616468111546e+00 -6.78512470e-01   5.77819540e-01  -1.84860541e+00
C     8.271808391257061e-01   2.559779807091172e+00   6.278991609693933e+00  2.40651731e+00   3.87414116e+00  -6.93451330e-01
C     2.690111740649705e+00   9.073925643066908e-01   6.176211993294745e+00 -1.67736315e+00  -1.95415210e+00   2.36280828e+00
C     3.525942463840558e+00   7.066747786368821e+00   3.557498600040619e+00  3.93906710e-01   1.30838394e+00  -6.31206370e-01
C     5.304819040167878e+00   1.830131715460378e+00   3.534608199688147e+00 -4.46259000e-01  -1.32901660e+00  -3.25691320e-01
C     3.541349827700955e+00   1.756845086680024e+00   5.344931371422955e+00  1.15289776e+00   3.57704640e-01  -1.53854510e+00
C     5.429743738807829e+00   7.052473576158278e+00   5.254255550555747e+00 -2.80509894e+00   2.70366425e+00   1.16268428e+00
C     4.391312166144594e+00   8.707939263526802e-01   4.363449068748301e+00  2.65508534e+00   8.63802480e-01   2.57775494e+00
C     6.230083316288868e+00   2.701707994806616e+00   4.457049934439414e+00 -6.07192210e-01  -1.33071519e+00  -9.47815560e-01
C     4.432050607264041e+00   2.636339651235357e+00   6.193664734679822e+00  1.10852878e+00   6.74806480e-01   1.13839804e+00
C     6.271925482188522e+00   8.910043802931855e-01   6.206770320211638e+00 -1.94360141e+00  -1.38387762e+00   4.03117470e-01
C     2.156837591360400e-02   3.536236454973484e+00   3.574392050733953e+00 -4.63058320e-01   5.47829030e-01  -1.47203392e+00
C     1.782443014124227e+00   5.278460724756013e+00   3.555057496628685e+00  3.75656020e-01   1.09172376e+00   2.13452890e-01
C     3.658847290966400e-03   5.315774185688691e+00   5.346360306538028e+00  5.90927320e-01  -2.07217080e-01  -5.80873060e-01
C     1.811894772891863e+00   3.526250187455777e+00   5.349804621634322e+00 -1.01665205e+00   5.31102790e-01   8.90991800e-01
C     9.179451598545331e-01   4.381109589326561e+00   4.434174319605992e+00 -4.28432900e-01   1.33629538e+00   1.26551479e+00
C     2.644455479509064e+00   6.229672520545658e+00   4.475497215233254e+00 -7.07956710e-01  -4.39536810e-01  -1.40587197e+00
C     8.625448862390750e-01   6.214024892000705e+00   6.259461005292804e+00 -2.58371000e-02   3.64613530e-01  -6.90884710e-01
C     2.670651225295609e+00   4.517109992334960e+00   6.252916991428832e+00 -9.20022850e-01  -1.97378860e+00  -1.35194026e+00
C     3.585279808408329e+00   3.553558117045448e+00   3.553071119011752e+00 -2.68102940e+00   1.20602799e+00   3.71568980e-01
C     5.298376818915824e+00   5.306652444530028e+00   3.560128360988887e+00  1.16206738e+00   7.22395650e-01  -5.81392370e-01
C     3.524863689623746e+00   5.410462142451079e+00   5.346055568460308e+00  8.18720650e-01  -3.22646937e+00  -5.56304170e-01
C     5.358855065314106e+00   3.526911128590985e+00   5.337363815785929e+00 -1.66615190e+00   1.75797750e+00   1.00966201e+00
C     4.378288753978266e+00   4.444588300912745e+00   4.459275794814414e+00  2.70535216e+00   1.04437100e-01  -1.96510490e-01
C     6.270397242409448e+00   6.222839478217957e+00   4.387956066573015e+00 -7.65132650e-01  -1.90293306e+00   1.20674280e+00
C     4.501907919719828e+00   6.203809448937728e+00   6.116393195262922e+00 -1.92367620e-01   2.46740612e+00   2.92219953e+00
C     6.236062139470324e+00   4.450302477520058e+00   6.270547727716314e+00 -2.47571410e-01  -2.77974300e-02  -7.26501720e-01
