64
Lattice="7.10842262195238 0 0 0 7.10842262195238 0 0 0 7.10842262195238 " PBC="1 1 1" Properties=species:S:1:pos:R:3:force:R:3 Energy="-512.71034714"
C     3.348408258305760e-02   7.098793124213591e+00   3.992559299284920e-02 -8.87500440e-01  -7.25750200e-02  -1.23914447e+00
C     1.807499066512108e+00   1.773926981657015e+00   7.056156521001926e+00 -1.39599443e+00  -4.50904900e-02   1.88752905e+00
C     7.084790313578679e+00   1.753686814509958e+00   1.777608504816139e+00  1.54341183e+00   6.02405980e-01   4.20765200e-02
C     1.820861408268958e+00   3.027441651744900e-02   1.798827146336839e+00 -8.45474870e-01  -1.99811317e+00  -1.03145102e+00
C     9.745432026814614e-01   8.619851690419762e-01   8.968170085537858e-01 -3.17688562e+00   1.56590096e+00  -5.98466380e-01
C     2.638921074909811e+00   2.636749167462496e+00   8.611797136749040e-01  1.67589690e+00   1.36553696e+00   8.42396330e-01
C     9.196563704318459e-01   2.674591281785423e+00   2.664752158615950e+00 -2.04618912e+00  -4.89742800e-01  -1.70796580e-01
C     2.669831695251750e+00   8.584556239584675e-01   2.666044896353623e+00  5.89074120e-01   1.82407775e+00  -4.51293700e-01
C     3.538595171767253e+00   7.107052329371543e+00   7.095597106319412e+00  1.72165382e+00  -5.49988590e-01   3.21774700e-02
C     5.323997635480865e+00   1.718009854632856e+00   7.070089171505578e+00 -1.06948792e+00   2.03015412e+00   1.53578805e+00
C     3.556843558896186e+00   1.732321526230607e+00   1.740613714469516e+00 -1.32261860e-01   1.33789046e+00   9.94948020e-01
C     5.351042340180916e+00   7.090762383758646e+00   1.788137926906240e+00 -9.29161680e-01  -1.78803330e-01  -2.80405670e-01
C     4.443384347373595e+00   8.801879911819149e-01   8.719900606269476e-01  1.79590780e-01  -1.25685732e+00  -1.38193210e-01
C     6.165064493857836e+00   2.625520987428848e+00   9.324884949454697e-01  1.16763766e+00   3.96631770e-01  -2.30880932e+00
C     4.430828100741853e+00   2.648004359502099e+00   2.662421022501947e+00 -2.19074940e-01   9.75047410e-01  -9.79334220e-01
C     6.203225207682591e+00   8.704616075951952e-01   2.648620944080157e+00  1.24882745e+00   3.71010810e-01   4.96877420e-01
C     7.050127085851416e+00   3.509868543191083e+00   1.891629451830820e-02  2.42983906e+00  -3.52032300e-02   7.46868690e-01
C     1.745467629771356e+00   5.339089243208481e+00   3.539283622498000e-02  8.12588350e-01   5.09670370e-01  -1.07061880e+00
C     7.108343503256239e+00   5.249478335133976e+00   1.784873952491814e+00  5.78549130e-01   2.33482110e+00   2.29340770e-01
C     1.801656227455372e+00   3.538557923632724e+00   1.796387109188298e+00 -3.46245750e-01  -3.38324620e-01  -1.09183081e+00
C     9.177009144533100e-01   4.404661570572276e+00   8.791465361838587e-01 -1.92308437e+00   1.03466440e-01   1.29096099e+00
C     2.672426269508050e+00   6.248465626099962e+00   8.797781195336457e-01 -1.23317630e-01  -1.30246922e+00   1.05438535e+00
C     9.440575238437459e-01   6.214555535749288e+00   2.672425985171145e+00 -1.54202243e+00  -5.84530790e-01  -1.42084235e+00
C     2.690824573270038e+00   4.429263608007417e+00   2.683587061695259e+00  2.75859800e-02   6.00342160e-01  -8.19904990e-01
C     3.524714057327595e+00   3.619407985164985e+00   7.104757161875997e+00  7.25563030e-01  -1.99539337e+00   1.03767188e+00
C     5.361104525652205e+00   5.352214732323633e+00   9.575258521818598e-03 -3.76233930e-01   4.50224860e-01  -6.51763180e-01
C     3.554811260869128e+00   5.324971986969388e+00   1.792804961777401e+00  7.53683100e-02   1.49573409e+00  -2.05550360e-01
C     5.288485306671642e+00   3.570952356112362e+00   1.736039089092415e+00  1.21705800e-02  -7.21950100e-01   1.74856396e+00
C     4.431000551074614e+00   4.535073260632606e+00   8.873656498382338e-01  2.77086500e-02  -2.97514222e+00  -5.25902870e-01
C     6.246993685028039e+00   6.193186053500591e+00   9.265365416015177e-01  1.64232760e-01   5.09613980e-01  -8.23317780e-01
C     4.451555692427964e+00   6.216224948801595e+00   2.688236752015227e+00 -6.61373630e-01  -4.68456950e-01   5.55564700e-02
C     6.168163695035929e+00   4.429545599132752e+00   2.676538136572588e+00  1.42202597e+00  -4.29971860e-01  -5.11407050e-01
C     2.659914877023040e-02   7.098423344068898e+00   3.493570280723720e+00 -3.47958100e-02  -3.00181270e-01   1.95306977e+00
C     1.800249683871553e+00   1.789012831562310e+00   3.523366300398844e+00 -3.83215400e-01   4.25780020e-01   1.10379347e+00
C     7.083951164288388e+00   1.793705741091807e+00   5.338413729806903e+00  8.85168020e-01  -7.96001930e-01  -1.12569733e+00
C     1.771538409488242e+00   4.273114523251080e-02   5.327693801990586e+00 -5.63354100e-02  -1.08451777e+00   2.70096390e-01
C     9.297812521906428e-01   8.926902138017448e-01   4.402549302790743e+00 -1.87017132e+00   8.89231550e-01   7.98269320e-01
C     2.643085899722868e+00   2.723813980722970e+00   4.440948433110174e+00  9.88145440e-01  -2.11025976e+00   5.21968070e-01
C     8.545805384514007e-01   2.664269994309636e+00   6.226882322498857e+00  5.29252410e-01  -1.91680430e-01  -4.73155100e-01
C     2.679586939034306e+00   8.633875186564498e-01   6.242764102484912e+00 -3.69257800e-01   1.44747516e+00  -2.03673408e+00
C     3.509218833363615e+00   7.099346585998784e+00   3.532312179181888e+00  2.02354633e+00   2.68251020e-01   1.29920815e+00
C     5.333272420978536e+00   1.793094558914940e+00   3.530658404659345e+00 -3.57990490e-01  -3.88105030e-01   3.77187620e-01
C     3.547758212861338e+00   1.762893216982024e+00   5.336758178178705e+00 -2.30931920e-01   1.20856673e+00  -6.46856540e-01
C     5.351899331611984e+00   4.841767007583220e-02   5.248651056909460e+00 -3.97055740e-01  -2.35102886e+00   1.28399784e+00
C     4.429318129608912e+00   9.067966652384561e-01   4.399425079965027e+00  5.37826800e-02   4.17053500e-02   3.26948710e-01
C     6.199450137681787e+00   2.671317924253139e+00   4.458125225529142e+00  2.97837610e-01   4.87983190e-01  -1.11722570e-01
C     4.398618273997656e+00   2.680959362189550e+00   6.227700786279322e+00  8.15725980e-01  -7.29401270e-01   5.08729760e-01
C     6.190519613091603e+00   8.656042802504967e-01   6.186183190956498e+00  1.74637039e+00   8.77529240e-01   9.68355250e-01
C     7.089763294959405e+00   3.581403159048286e+00   3.542393983899607e+00  5.78310270e-01  -1.29503332e+00   7.27355640e-01
C     1.791529924012052e+00   5.320013364602355e+00   3.539063545733685e+00  6.50875570e-01   1.07606587e+00   8.33242010e-01
C     3.460621817785080e-02   5.337488355350231e+00   5.321417846743614e+00 -7.63924830e-01  -2.57226020e-01   6.19158320e-01
C     1.775981386878421e+00   3.590845703319789e+00   5.362183157700564e+00 -7.50729700e-01  -4.17929700e-01  -1.27655168e+00
C     9.181744775682543e-01   4.473053055199594e+00   4.394781858309643e+00 -1.33050083e+00  -8.03332820e-01   2.06388683e+00
C     2.644067715055143e+00   6.260848498304002e+00   4.476295491093480e+00  5.94415510e-01  -1.41955056e+00  -1.06083546e+00
C     8.730682661699491e-01   6.252677793007670e+00   6.209028594993785e+00  6.31563390e-01  -1.08147190e+00   7.12070260e-01
C     2.647901998216371e+00   4.466121205797474e+00   6.267460255435543e+00 -3.26195530e-01   1.02752933e+00  -1.21429467e+00
C     3.579216394997696e+00   3.576029475884471e+00   3.562372347841570e+00 -9.30851170e-01  -1.34674019e+00   3.81105030e-01
C     5.327841728265308e+00   5.294998825402574e+00   3.601495613173299e+00 -1.77334750e-01   1.03021774e+00  -7.96607850e-01
C     3.529865886621440e+00   5.385880292936180e+00   5.375400771972870e+00  4.56816640e-01  -1.76632540e+00  -1.58467582e+00
C     5.293033346548144e+00   3.562989998683021e+00   5.407664480560527e+00  9.61370280e-01  -6.11022090e-01  -1.98126705e+00
C     4.427617297328625e+00   4.409659218179494e+00   4.485436567161670e+00  1.80087640e-01   1.99288345e+00   2.14913100e-02
C     6.257603219041068e+00   6.193480128944381e+00   4.438055020766929e+00 -6.93463610e-01   1.00098317e+00  -7.58423280e-01
C     4.484268511156752e+00   6.232979145495803e+00   6.145289999476614e+00 -6.52980450e-01   6.92308610e-01   2.41321340e+00
C     6.233978092126592e+00   4.406712279413920e+00   6.281550428584454e+00 -7.77575490e-01   1.43534990e+00  -1.78572726e+00
