52
Lattice="8.88768389401873 1.33226762955019e-15 0 4.44384194700937 7.69696003302603 0 0 0 30 " PBC="1 1 1" Properties=species:S:1:pos:R:3:force:R:3 Energy="-418.33297856"
C     1.279655792648618e+01   7.046191911572338e+00  -2.253188999999978e-01 -7.67506510e-01   6.33996700e-02  -8.29964700e-02
C     8.945123706683182e+00   6.798380509476858e+00  -1.913963999999986e-01  2.02622437e+00   1.18517540e-01   1.95401870e-01
C     1.038844953034327e+01   6.418740732950758e+00  -2.447711999999989e-01 -1.64216655e+00  -4.88221280e-01   3.46449340e-01
C     1.068285956864069e+01   4.998125443228107e+00  -2.412884999999996e-01  7.06182870e-01   1.78466536e+00  -1.14346330e-01
C     6.600971439356240e+00   6.226618837881936e+00  -1.883313000000015e-01 -1.08318880e-01   1.09193082e+00   5.37550370e-01
C     7.913305378502665e+00   5.773452080368453e+00  -1.440780000000004e-01  2.29144802e+00   1.87739810e+00  -9.93050480e-01
C     8.260490306028277e+00   4.419108232260905e+00  -2.911472999999987e-01  1.15474877e+00   2.78765300e-01   1.15521658e+00
C     9.643440182164216e+00   4.028169703258766e+00  -2.132252999999977e-01  6.43635100e-01   9.26019580e-01  -4.55112780e-01
C     1.006181092494044e+01   2.689985006977400e+00  -1.748513999999979e-01 -1.71530302e+00  -1.24270702e+00  -2.12882780e-01
C     4.230370402436220e+00   5.683083304169828e+00  -2.769353999999993e-01 -7.63462180e-01  -1.60513732e+00  -4.03108200e-02
C     5.595901795737491e+00   5.290188438836864e+00  -2.765765999999985e-01 -1.92412703e+00  -2.67058677e+00   8.20095900e-01
C     5.876152331552389e+00   3.844436724926640e+00  -1.818393000000000e-01  1.69517360e+00   2.52894311e+00  -1.56543254e+00
C     7.248019932459591e+00   3.462428747738510e+00  -2.666388000000026e-01 -5.92510790e-01  -5.00261770e-01   2.63277810e-01
C     7.599833210243609e+00   2.101695653110059e+00  -2.596322999999998e-01  9.54190040e-01  -1.04998122e+00   5.40792410e-01
C     8.985028515278337e+00   1.714450356439115e+00  -1.685163000000003e-01  1.20488372e+00  -4.69137780e-01  -4.66664910e-01
C     3.188415804074548e+00   4.627570157716615e+00  -2.832056999999999e-01 -1.66006980e-01   2.73078513e+00   5.13589710e-01
C     3.548517024866568e+00   3.308245014718357e+00  -2.167361999999997e-01 -4.66075670e-01  -2.52541755e+00  -8.03265220e-01
C     4.887417095510704e+00   2.886684515084865e+00  -2.911812000000005e-01  7.10986700e-02   3.03987900e-02   9.82931230e-01
C     5.262317243162030e+00   1.529870327655688e+00  -2.650626000000003e-01 -2.71794619e+00  -2.08183997e+00   2.54708850e-01
C     6.570223782596294e+00   1.103863371182465e+00  -2.244813000000008e-01  2.38042293e+00  -1.07432040e-01  -2.75093760e-01
C     1.141766789990370e+01   7.423162998116837e+00  -2.153844000000014e-01 -1.04157807e+00  -2.29342240e-01  -1.98252470e-01
C     2.547052225770609e+00   2.274842001708121e+00  -2.114867999999994e-01 -1.45614413e+00   2.36762492e+00   6.28390320e-01
C     2.840542522154551e+00   9.371664593327400e-01  -1.371848999999976e-01  1.09771710e+00  -2.22998696e+00  -5.80526900e-02
C     4.204205946469929e+00   5.068476658507112e-01  -1.923971999999985e-01  3.55088600e-01   1.33197320e-01  -5.27169100e-02
C     5.085091006043521e-01   3.194012121825118e-01  -1.800806999999978e-01 -2.66936339e+00   1.11690187e+00   3.92772980e-01
C     6.267438305379835e+00   7.619805163872077e+00  -9.145559999999975e-02  1.46039594e+00   1.44825650e-01  -8.03518630e-01
C     5.431014330072073e-01   6.813636115165118e-01   3.578801400000000e+00  1.16859827e+00  -1.67165166e+00   8.88354070e-01
C     2.991751531666325e+00   6.334474953329521e-02   3.538537800000000e+00 -1.40093287e+00   1.24690900e-01   2.94168830e-01
C     4.337600971761315e+00   4.737095589855506e-01   3.532028400000000e+00  8.26870250e-01  -1.10603360e-01   2.56524040e-01
C     9.808507848667350e+00   7.195010632542780e+00   3.536003700000000e+00  3.99772290e-01   3.52410910e-01   5.74821560e-01
C     1.116647933412325e+01   7.587031662003538e+00   3.641104800000000e+00  4.31667980e-01   2.98265120e-01  -1.42291590e-01
C     1.218433604280586e+01   6.589930745217995e+00   3.697452300000000e+00  2.93566190e-01   4.83900580e-01  -5.02964290e-01
C     4.676382688145722e+00   6.970187663999301e+00   3.666053700000000e+00 -8.41010480e-01   1.32392705e+00  -3.22909590e-01
C     5.709296333207641e+00   6.022842898662089e+00   3.634169700000000e+00 -2.34772200e-01  -1.22564719e+00   7.32394800e-02
C     7.076028764159794e+00   6.381798249651569e+00   3.551657700000000e+00  2.76718910e-01   8.00378900e-01   7.61714580e-01
C     8.109840598558941e+00   5.439542098529391e+00   3.670071300000000e+00  2.55239630e-01  -1.17869691e+00  -1.10489177e+00
C     9.471917527400063e+00   5.838227540832125e+00   3.600259500000000e+00 -2.72341540e-01  -1.26373473e+00  -4.85234990e-01
C     1.047022964149558e+01   4.820293493242181e+00   3.524816400000000e+00  4.95900750e-01   2.05134140e-01   1.45113732e+00
C     1.184028166684961e+01   5.226265801544517e+00   3.635564700000000e+00 -1.30345650e-01  -8.70568670e-01  -1.82185940e-01
C     3.982260973697150e+00   4.242427362647465e+00   3.680974500000000e+00  5.51491700e-02  -1.33755780e+00  -5.16285510e-01
C     5.363299953862731e+00   4.627975325692594e+00   3.689184300000000e+00  1.02474640e-01   2.48145950e-01  -9.35949700e-02
C     6.420333617595976e+00   3.669504142814416e+00   3.672926400000000e+00 -5.28320580e-01  -8.67330980e-01  -2.12534780e-01
C     7.797717271118081e+00   4.034740290157975e+00   3.633636900000000e+00 -1.62016669e+00   1.54401354e+00   5.94529220e-01
C     8.775626507033552e+00   3.058023386559082e+00   3.632549100000000e+00  4.23649040e-01  -1.22495104e+00  -4.13957200e-02
C     1.012535622101617e+01   3.434664427457494e+00   3.637232400000000e+00  8.80806610e-01   9.41654800e-02  -1.36412384e+00
C     2.246654509573045e+00   2.425410626541384e+00   3.518303400000000e+00  1.07782335e+00  -3.06701440e-01   1.53033546e+00
C     3.627232085638062e+00   2.824175270562826e+00   3.590617500000000e+00  1.29231200e+00   2.26461800e-01   1.65492930e-01
C     4.723529537041141e+00   1.823662137456783e+00   3.624766800000000e+00 -1.58689402e+00   2.37835378e+00  -4.70528470e-01
C     6.098189026626971e+00   2.270253151107835e+00   3.653441700000000e+00 -1.77042761e+00   1.46476540e-01   1.65209750e-01
C     7.084192009623209e+00   1.282238495637707e+00   3.667607100000000e+00  7.33052100e-02  -8.87835490e-01  -4.76501270e-01
C     8.434643936802221e+00   1.664253861907467e+00   3.609415800000000e+00  1.53801100e-01   5.78663180e-01   2.65570980e-01
C     1.928101698282205e+00   1.007222342255393e+00   3.636026400000000e+00  2.09482980e-01   2.11732138e+00  -1.61739494e+00
