52
Lattice="8.88768389401873 1.33226762955019e-15 0 4.44384194700937 7.69696003302603 0 0 0 30 " PBC="1 1 1" Properties=species:S:1:pos:R:3:force:R:3 Energy="-418.38090231"
C     1.302309387947185e+01   7.407073580748526e+00  -1.347050999999979e-01  2.82518524e+00  -9.73910050e-01   5.55353600e-02
C     9.280176324688863e+00   7.180146032424044e+00  -1.482156000000003e-01  2.06225615e+00  -1.32528515e+00   6.86272700e-02
C     1.065524824666462e+01   6.732372534803583e+00  -2.451372000000021e-01  1.04745540e-01   3.49988832e+00   3.62275480e-01
C     1.096152298750021e+01   5.392377821401562e+00  -2.525988000000012e-01  3.67287165e+00   1.35730390e-01   1.79742970e-01
C     6.950525913421972e+00   6.624422054626030e+00  -1.149765000000009e-01 -1.26504623e+00  -2.75502875e+00   5.65295680e-01
C     8.295298076802846e+00   6.188412667685022e+00  -5.292150000000007e-02 -5.82986290e-01   2.36515130e-01  -1.02578947e+00
C     8.639951791946832e+00   4.819055283282156e+00  -1.522635000000001e-01 -6.05358060e-01  -8.05036960e-01   5.03023700e-02
C     1.000375057571840e+01   4.435760143468207e+00  -2.407457999999991e-01 -1.99290351e+00  -2.17351653e+00   6.43690170e-01
C     1.034315718004139e+01   3.057130847074004e+00  -1.385550000000002e-01 -1.30972773e+00  -1.25230547e+00   2.92310110e-01
C     4.494346701454729e+00   6.045484045377536e+00  -1.470062999999975e-01  9.41433210e-01  -3.42931924e+00  -5.10713930e-01
C     5.918333680377363e+00   5.595123599490992e+00  -1.858907999999992e-01 -1.31064730e+00   6.99394700e-01   8.35072410e-01
C     6.242150442796956e+00   4.169752127257004e+00  -1.436495999999998e-01 -4.46833680e-01   1.74805227e+00  -5.60946870e-01
C     7.630444305521020e+00   3.807670886860140e+00  -1.495046999999978e-01 -9.03143520e-01  -9.89375900e-01  -4.88875000e-03
C     7.931373148875116e+00   2.375196813849668e+00  -1.560216000000025e-01  1.21751488e+00   3.20637879e+00   6.20792300e-02
C     9.303483694651851e+00   2.039987508187942e+00  -7.117620000000002e-02  1.07638796e+00  -5.42786180e-01  -5.18736030e-01
C     3.472231279941623e+00   4.978379123179943e+00  -1.922999999999995e-01  2.66665480e-01   1.93228839e+00   3.16660590e-01
C     3.801428379591210e+00   3.604585441924586e+00  -9.601709999999741e-02  1.49751612e+00   7.54903390e-01  -7.49739550e-01
C     5.173409565088061e+00   3.206468958907270e+00  -1.791444000000020e-01  1.24822256e+00  -5.36082530e-01   4.98746730e-01
C     5.565105302217662e+00   1.803948221610346e+00  -2.177285999999974e-01 -1.52778725e+00   1.92758288e+00   3.14125170e-01
C     6.908944169963276e+00   1.444952923398310e+00  -2.264118000000011e-01  1.10344880e-01  -1.11996837e+00   2.62836880e-01
C     7.266668868491719e+00   7.973596470438229e-02  -2.028581999999979e-01 -2.87911204e+00  -1.15936182e+00  -2.38712500e-01
C     2.799673975348632e+00   2.621884536750369e+00  -6.282870000000074e-02 -2.00737040e-01   7.45444630e-01  -7.11604900e-02
C     3.169678253462453e+00   1.280681477593239e+00  -4.859099999997341e-03 -2.82997470e-01  -1.86897048e+00  -3.99833030e-01
C     4.542521322076227e+00   8.389819590108519e-01  -1.263830999999982e-01 -1.31029192e+00   1.18249730e+00   1.92282880e-01
C     7.851592812593622e-01   6.370705313886733e-01  -6.314850000000050e-02 -1.56701907e+00   1.85668869e+00   1.09035630e-01
C     2.129881851406340e+00   2.660391888993257e-01  -1.356029999999819e-02  1.16942304e+00   9.79780600e-01  -3.57415320e-01
C     2.776966610130247e-01   3.459734272940808e-01   3.581130300000000e+00 -3.91149930e-01  -9.46541440e-01  -2.31767400e-02
C     7.081021332419139e+00   7.476270405962230e+00   3.530870700000000e+00  1.00290803e+00  -1.73149806e+00  -4.09650760e-01
C     4.008063028338481e+00   1.602283096709127e-01   3.503995200000000e+00  3.73752270e-01  -1.76229053e+00   1.74760100e-02
C     9.498725493410216e+00   6.845492601215684e+00   3.523024500000000e+00  9.26145000e-02   4.03920850e-01  -6.01321870e-01
C     1.087698636135720e+01   7.249107022782429e+00   3.540456900000000e+00 -1.22122930e-01  -1.81820820e-01   4.88613830e-01
C     1.189288009172215e+01   6.228465184653931e+00   3.588725400000000e+00 -5.83498080e-01   1.34814968e+00  -1.47116110e-01
C     4.363976510855389e+00   6.628067642774639e+00   3.569634600000000e+00  3.21976310e-01   1.23763271e+00   6.13229210e-01
C     5.381101141029786e+00   5.652217262935923e+00   3.621468000000000e+00  5.70349430e-01   2.87314400e-01  -6.50662920e-01
C     6.742247307190409e+00   6.073812475859151e+00   3.493523400000000e+00  2.41148850e-01  -1.85556090e-01   6.53363460e-01
C     7.775727142128192e+00   5.085906655403846e+00   3.449796600000000e+00  1.01506570e+00  -1.09944661e+00   1.72711700e-02
C     9.183263863038238e+00   5.463482107249900e+00   3.421764000000000e+00 -6.87622080e-01  -7.82352120e-01   5.06422110e-01
C     1.022339732916780e+01   4.418291584801722e+00   3.454158600000000e+00 -2.30062169e+00   2.18625090e+00   2.65463830e-01
C     1.154261438012608e+01   4.865401373558796e+00   3.604622100000000e+00  8.41495240e-01  -8.50686110e-01  -4.83194680e-01
C     3.690776759781313e+00   3.885037034540886e+00   3.641229900000000e+00 -1.21156935e+00  -4.08011370e-01  -7.31817800e-01
C     5.030611548666753e+00   4.274109127705350e+00   3.648768900000000e+00  7.97267560e-01   2.48726860e-01   1.76811870e-01
C     6.024649131212462e+00   3.282481442227540e+00   3.646052100000000e+00  2.71739462e+00  -3.88734810e-01  -1.07246732e+00
C     7.469414449086479e+00   3.661279710113560e+00   3.511363200000000e+00 -2.16464988e+00   9.55921530e-01   7.64751020e-01
C     8.486587650437864e+00   2.661614705033223e+00   3.565678500000000e+00 -2.33654800e-01   2.39829663e+00  -5.74913940e-01
C     9.839050060602403e+00   3.063291955699618e+00   3.465749400000000e+00  7.93851730e-01   1.12665220e-01   4.47183600e-02
C     1.994547756851974e+00   2.099837453019616e+00   3.444519900000000e+00 -8.11995800e-01   8.50562060e-01   5.52501410e-01
C     3.330619900339427e+00   2.512405517280459e+00   3.477063600000000e+00  1.31520385e+00  -7.34276300e-02   5.66248700e-01
C     4.361245055638777e+00   1.506975950955254e+00   3.497682000000000e+00 -1.00509256e+00   7.01905670e-01   5.43632400e-02
C     5.696593830513331e+00   1.887076236599949e+00   3.558102000000000e+00  1.76156485e+00   1.22641440e+00   6.40809350e-01
C     6.771804629787384e+00   9.448611102747310e-01   3.613467900000000e+00 -6.70164870e-01  -1.01530947e+00  -5.13208200e-01
C     8.140869633394626e+00   1.331770126761964e+00   3.624643800000000e+00 -4.13564750e-01  -1.71923828e+00  -2.13100310e-01
C     1.647641723092450e+00   7.535033693976869e-01   3.541116900000000e+00 -1.24837239e+00  -8.45154580e-01  -2.95629090e-01
