52
Lattice="8.88768389401873 1.33226762955019e-15 0 4.44384194700937 7.69696003302603 0 0 0 30 " PBC="1 1 1" Properties=species:S:1:pos:R:3:force:R:3 Energy="-419.26119231"
C     1.247590904452347e+01   6.700569311716425e+00  -4.348770000000002e-02 -8.12370000e-03   2.42422022e+00   2.87709000e-03
C     8.743881346698970e+00   6.597052434455353e+00   8.716740000000001e-02 -8.69555600e-02  -3.13569020e+00   5.70371210e-01
C     1.009911840235883e+01   6.170066193757513e+00   1.459857000000000e-01  2.92017560e-01  -1.27626490e-01  -1.06425342e+00
C     1.046260329768341e+01   4.789759806742373e+00   9.805380000000000e-02 -2.53952030e-01  -2.98876050e-01  -1.51411990e-01
C     6.337204178729637e+00   5.967071034163110e+00   1.845330000000000e-02  1.18699910e-01  -1.39782879e+00  -5.19392800e-02
C     7.724116984245939e+00   5.592525798511267e+00   9.118320000000001e-02 -6.94025570e-01  -1.59486540e-01  -2.23367300e-01
C     8.079856840761536e+00   4.214827372463091e+00   1.112010000000000e-01 -7.20659220e-01  -6.89597740e-01  -1.54433930e-01
C     9.441540178003310e+00   3.815674493777736e+00   1.010925000000000e-01 -7.46777470e-01  -8.51888140e-01  -2.17889300e-02
C     9.732376478614034e+00   2.403487067409534e+00   5.294070000000000e-02  6.76095480e-01   7.86547100e-01   2.60346450e-01
C     3.946532574067726e+00   5.368549110723086e+00  -4.658699999999882e-02  3.84082400e-02  -2.42166004e+00  -8.37020200e-02
C     5.307059090359571e+00   4.946607380659308e+00  -4.100130000000135e-02  1.01688479e+00   1.09008669e+00   1.84422170e-01
C     5.671767064305681e+00   3.570919092692566e+00  -1.972920000000045e-02  6.30124100e-02   5.77063690e-01   9.59925200e-02
C     7.057497274594616e+00   3.182577979822152e+00   7.462229999999999e-02 -4.71297100e-01   1.15792891e+00  -4.37461940e-01
C     7.374300676813523e+00   1.809165144149079e+00   3.188820000000001e-02 -1.75133120e-01   1.18354630e-01   5.95092900e-02
C     8.732446093730351e+00   1.411779949304214e+00   4.444650000000000e-02 -3.64515670e-01  -9.50518040e-01  -5.20919540e-01
C     2.923016142537673e+00   4.352326097347811e+00  -1.193729999999960e-02  2.43369300e-02   1.20465836e+00   6.44329350e-01
C     3.243446652990218e+00   2.978465221631393e+00   5.874510000000000e-02  6.90779660e-01   6.23392800e-01  -1.00207306e+00
C     4.628585921196954e+00   2.620370082894866e+00  -3.937469999999976e-02 -1.59754000e-01  -1.99708930e+00   9.83925130e-01
C     4.982052974726849e+00   1.207365778158680e+00   5.711550000000000e-02 -1.16127186e+00   1.43922202e+00  -5.93845960e-01
C     6.324384802351315e+00   8.447688414398070e-01   4.936800000000000e-03  1.18015054e+00  -1.31746833e+00   2.26029430e-01
C     1.111035081044263e+01   7.133152935687280e+00   6.756000000000000e-03  5.27979160e-01   6.31386600e-01   4.12436390e-01
C     2.202367269360427e+00   2.016567967904661e+00   6.008610000000000e-02  9.87415370e-01  -1.33570830e+00  -3.28955300e-02
C     2.568770746749826e+00   6.217816748330828e-01   5.745150000000000e-02 -3.28704340e-01   1.25830890e-01  -7.83595200e-02
C     3.951880690058991e+00   2.098569224915473e-01   8.457450000000000e-02 -8.82549760e-01   3.08085260e+00  -2.79393480e-01
C     1.742945912343919e-01   6.742383047079401e-03  -3.901979999999838e-02 -6.12105830e-01   8.01179300e-01   3.99390100e-01
C     5.969954193864055e+00   7.324788998639010e+00   1.443000000000000e-02  1.08391145e+00   6.42975830e-01  -1.39407050e-01
C     8.583639340936466e-01   9.427243572008026e-01   3.275036400000000e+00 -9.60405170e-01   6.03496920e-01   3.62825600e-01
C     3.205422428867585e+00   3.651534050232375e-01   3.246455100000000e+00  1.65769730e+00  -2.42205070e-01   2.49128450e-01
C     4.596713085765320e+00   7.438607718113035e-01   3.343456800000000e+00 -5.74970570e-01   2.59616700e-02   8.86833000e-02
C     1.007536971194602e+01   7.452109109640858e+00   3.474774600000000e+00 -9.02712670e-01   7.27220100e-02  -7.54380010e-01
C     6.995059604635633e+00   1.472129811689836e-01   3.472761900000000e+00 -2.14914160e-01   4.03869210e-01   1.41882530e-01
C     1.245449790312502e+01   6.865697429172835e+00   3.448386000000000e+00  4.98804490e-01   2.25776530e-01  -6.64670500e-02
C     4.930615597010203e+00   7.241614955828427e+00   3.333224400000000e+00  1.06791904e+00   1.04146413e+00   2.22578330e-01
C     5.976080473681914e+00   6.266428207883497e+00   3.344706300000000e+00 -2.07484330e-01   5.65275340e-01  -6.87847070e-01
C     7.339767406461949e+00   6.668561734340471e+00   3.270241500000000e+00 -8.28593530e-01   7.66888680e-01   5.49372700e-01
C     8.351385361015007e+00   5.695246502226835e+00   3.350279700000000e+00  2.67743510e-01  -8.14494640e-01   1.25952260e-01
C     9.716876449164817e+00   6.064319353236550e+00   3.417335400000000e+00  6.71545320e-01   8.61085130e-01   3.49432800e-01
C     1.076804597462800e+01   5.104270832339424e+00   3.448161600000000e+00 -9.70038730e-01  -4.90772070e-01  -3.87721700e-01
C     3.235220925433343e+00   5.498446240912578e+00   3.462043800000000e+00  2.20379440e-01  -2.34466380e-01  -3.72806970e-01
C     4.273630803079060e+00   4.534759443978872e+00   3.370345800000000e+00 -6.43951360e-01  -8.78261820e-01   2.81058870e-01
C     5.628658243230971e+00   4.903025037820639e+00   3.332570400000000e+00  6.61476000e-03  -4.03589920e-01   1.00869346e+00
C     6.612774548674919e+00   3.890193689882585e+00   3.454190400000000e+00  1.64842679e+00   2.53894270e-01  -1.47311199e+00
C     8.004691831752101e+00   4.310135133973766e+00   3.395227500000000e+00 -4.25420480e-01  -6.82476540e-01   1.65373700e-01
C     9.040044523873327e+00   3.315644333303997e+00   3.342757500000000e+00  1.84660480e-01   7.41742200e-01   2.88974300e-01
C     1.042142368015970e+01   3.731829353022138e+00   3.316413300000000e+00  1.83846950e-01  -5.62963370e-01   2.21363380e-01
C     2.593758071449978e+00   2.760291887766631e+00   3.248041500000000e+00 -1.84944101e+00  -1.67156030e-01   6.26300370e-01
C     3.937143889990622e+00   3.142243138359341e+00   3.365689200000000e+00 -1.82246190e-01   5.09499310e-01  -7.27671910e-01
C     4.917065875219345e+00   2.136437498567070e+00   3.336833100000000e+00  1.02775871e+00  -8.25625560e-01   1.47952470e-01
C     6.289223303981535e+00   2.498471094781348e+00   3.348426600000000e+00  1.31575190e-01   8.80327190e-01   1.25054731e+00
C     7.323189517432883e+00   1.530096233432568e+00   3.451884600000000e+00  4.79390070e-01   1.32820780e-01  -6.00495360e-01
C     8.698215801710834e+00   1.942787064205890e+00   3.382890900000000e+00  2.90505980e-01  -9.33528430e-01  -3.24778300e-01
C     2.223434590402173e+00   1.381275280343718e+00   3.207873900000000e+00 -5.79439260e-01  -8.51687070e-01   2.99102110e-01
