52
Lattice="8.88768389401873 1.33226762955019e-15 0 4.44384194700937 7.69696003302603 0 0 0 30 " PBC="1 1 1" Properties=species:S:1:pos:R:3:force:R:3 Energy="-418.19019414"
C     1.247661143823591e+01   6.784637664312893e+00   7.611780000000000e-02  3.96972154e+00   1.56052525e+00  -4.49101950e-01
C     8.755039389417069e+00   6.563800181672947e+00  -1.211957999999989e-01  7.45144540e-01  -6.86953250e-01   7.87872730e-01
C     1.015338620023164e+01   6.148901170036620e+00  -2.954129999999822e-02 -1.92205220e+00   3.42414724e+00  -4.20852930e-01
C     1.045498833015596e+01   4.835174641824983e+00   3.957300000000000e-03  2.32134989e+00  -2.50241266e+00  -1.47933700e-02
C     6.345399956465791e+00   6.024012220829847e+00  -2.216819999999942e-02  1.26916019e+00  -2.51080995e+00   2.47098110e-01
C     7.725338418615152e+00   5.549748249813335e+00  -8.443859999999859e-02 -8.38105390e-01   3.34742898e+00  -3.24632660e-01
C     8.046899620237811e+00   4.215341375453894e+00  -8.834159999999969e-02  2.05249017e+00  -1.08990733e+00   5.06303960e-01
C     9.468617351330570e+00   3.856323909996973e+00  -3.714899999999943e-02 -1.85029097e+00  -1.76731910e+00  -3.40583790e-01
C     9.798591767795713e+00   2.455647364323236e+00  -3.320189999999812e-02 -6.87428700e-02   7.79193490e-01   3.88419970e-01
C     3.963499073789905e+00   5.450148586420331e+00   1.628322000000000e-01  2.29234360e-01  -2.32765710e+00  -6.22193780e-01
C     5.328157918699976e+00   5.018309335453976e+00   1.410774000000000e-01  1.74617300e-01   4.31612130e-01  -2.96698070e-01
C     5.675117232335240e+00   3.610393798872025e+00   1.762308000000000e-01  4.18719250e-01   7.37803950e-01  -7.37822920e-01
C     7.053159018374119e+00   3.243984634819893e+00   2.715300000000000e-02 -5.91605820e-01  -2.93448776e+00   2.06733680e-01
C     7.424963274577868e+00   1.764399239766598e+00   3.031800000000000e-02 -1.62733073e+00   4.46727612e+00   3.05018150e-01
C     8.770204174498872e+00   1.469662320243418e+00   3.798600000000000e-03  1.60433257e+00  -1.25587753e+00  -5.10170700e-01
C     2.965804474641859e+00   4.421911080255829e+00   9.380160000000000e-02 -8.89294620e-01   1.11701554e+00   6.55773840e-01
C     3.288855074318119e+00   3.067974863151470e+00   1.917489000000000e-01  4.75830980e-01  -1.66233652e+00  -1.04033416e+00
C     4.655534311952270e+00   2.611175063534227e+00   1.814217000000000e-01  2.78762120e-01   7.84377850e-01   5.99035970e-01
C     5.036076939024241e+00   1.235611620259173e+00   1.688442000000000e-01 -1.14943492e+00   6.13935100e-02  -9.25584530e-01
C     6.382577579193055e+00   8.381084310170471e-01   1.040679000000000e-01  2.17661740e-01  -4.64870840e-01  -5.06282530e-01
C     1.116537846088137e+01   7.160860298464074e+00   7.230000000000000e-04 -1.81601888e+00   4.73476300e-02   5.88922560e-01
C     2.276444648138287e+00   2.051284721271975e+00   4.201590000000000e-02  1.25745320e-01   1.22949360e+00   3.62322400e-02
C     2.658375931402511e+00   7.109118562236804e-01  -5.360310000000013e-02 -7.98550710e-01  -2.13064506e+00   3.33513880e-01
C     4.006171507071922e+00   2.484825000404960e-01  -1.267739999999762e-02 -6.01308200e-02   6.83846150e-01   1.63137780e-01
C     2.671739986326108e-01   9.657729809802379e-02   8.550000000000001e-04 -2.22774749e+00  -8.76583450e-01   2.97500830e-01
C     6.057585868288830e+00   7.382919981387184e+00  -5.384820000000090e-02 -6.67176400e-02   1.54529156e+00   3.82938300e-02
C     7.785185817661207e-01   8.767364715932054e-01   3.425098800000000e+00  6.95708480e-01   1.79102513e+00  -4.10541000e-03
C     3.213966603750053e+00   3.263853567441335e-01   3.555744900000000e+00 -1.35364531e+00  -6.55005140e-01  -2.43415760e-01
C     4.563079290287098e+00   7.160928339590740e-01   3.476949600000000e+00  5.53402650e-01  -8.74858700e-01   2.66674940e-01
C     1.005458355234723e+01   7.414842276446006e+00   3.381597600000000e+00 -2.63424360e-01   1.28715470e+00  -4.25495810e-01
C     6.956408889371763e+00   1.449709336818449e-01   3.272525700000000e+00  8.14933200e-01  -1.20129932e+00   4.98851810e-01
C     1.243319088078956e+01   6.794097459098563e+00   3.270954000000000e+00 -1.53365785e+00   2.15376402e+00   1.51245000e-01
C     4.895543196569190e+00   7.198553081426987e+00   3.364549200000000e+00 -2.15515800e-02   1.59640090e-01   1.38542340e-01
C     5.915487311147911e+00   6.231136491601943e+00   3.400772100000000e+00  1.29070537e+00  -1.31208600e-01  -8.02969730e-01
C     7.308652691658521e+00   6.627607287595245e+00   3.449937000000000e+00 -1.08629505e+00   1.06832125e+00   1.46373880e-01
C     8.321344145122760e+00   5.673574248839965e+00   3.348884100000000e+00  1.55149223e+00  -6.46361970e-01  -4.23186910e-01
C     9.736716603669146e+00   6.068945226214580e+00   3.315310200000000e+00 -1.65509350e+00  -2.17858121e+00   3.62648570e-01
C     1.074537615927184e+01   5.015088157681421e+00   3.309106500000000e+00 -2.41833761e+00   2.21879740e+00   2.84276370e-01
C     3.155461205949599e+00   5.447085889054794e+00   3.297915600000000e+00  3.13681755e+00  -3.44896170e-01  -5.00475900e-02
C     4.230091595017472e+00   4.489872697323919e+00   3.313530600000000e+00 -1.34484995e+00  -6.84474290e-01   2.04371690e-01
C     5.573581266133343e+00   4.854845608634453e+00   3.220280100000000e+00  2.56373260e-01   1.31964912e+00   1.52114156e+00
C     6.576811780088898e+00   3.888837947342901e+00   3.289526100000000e+00  1.89931280e+00  -3.75945770e-01  -8.05236190e-01
C     7.974201432322477e+00   4.298351165137436e+00   3.229490700000000e+00 -2.63216400e-01  -7.67393250e-01   8.88551250e-01
C     9.011725607805321e+00   3.296460122246823e+00   3.293751600000000e+00 -3.21673600e-01  -6.20741900e-02   1.49839580e-01
C     1.037811666283702e+01   3.682757538290073e+00   3.413371500000000e+00  5.04235970e-01  -1.59806937e+00  -5.15206210e-01
C     2.555011769101763e+00   2.690149337074041e+00   3.506733300000000e+00 -2.49178162e+00   1.81491340e-01   2.08846870e-01
C     3.888547412062238e+00   3.128592348837335e+00   3.480743100000000e+00  8.98823810e-01  -2.11669466e+00  -3.30896220e-01
C     4.908238805285803e+00   2.063052372553041e+00   3.470102100000000e+00 -1.20398490e-01   2.82208700e+00  -4.88788960e-01
C     6.257783744366228e+00   2.510320102929931e+00   3.302712000000000e+00 -2.62186000e-01  -8.30622230e-01   5.93091640e-01
C     7.276328981925379e+00   1.521809455355469e+00   3.282242700000000e+00  1.22232417e+00   1.72328710e-01  -1.80632930e-01
C     8.667417843968027e+00   1.912270772835748e+00   3.291210300000000e+00 -4.12771980e-01  -6.60809850e-01   4.42342210e-01
C     2.155850153498922e+00   1.300916554603308e+00   3.568161600000000e+00  7.34888200e-01  -7.60541000e-03  -5.68784530e-01
