52
Lattice="8.88768389401873 1.33226762955019e-15 0 4.44384194700937 7.69696003302603 0 0 0 30 " PBC="1 1 1" Properties=species:S:1:pos:R:3:force:R:3 Energy="-419.53616068"
C     1.316839257983210e+01   7.511273178364259e+00  -2.270327999999999e-01  6.15072490e-01  -2.43061720e-01  -1.46058710e-01
C     9.405518397468803e+00   7.312656973270124e+00  -2.867889000000012e-01  1.10037990e+00  -1.25723500e-01   6.54689790e-01
C     1.080904912767792e+01   6.916266533539535e+00  -3.368861999999986e-01 -1.77275217e+00  -3.50045730e-01  -1.35415550e-01
C     1.112834277003559e+01   5.526881428229808e+00  -3.391932000000004e-01  5.76905780e-01   7.21190910e-01   6.10074200e-02
C     7.035376098323653e+00   6.724304273421735e+00  -1.512375000000006e-01 -3.26970070e-01  -1.24937340e-01   4.40584350e-01
C     8.388886899151409e+00   6.312488894882226e+00  -2.184188999999996e-01  3.63472670e-01   7.36997500e-01  -5.38637350e-01
C     8.738296013998994e+00   4.942876356254366e+00  -3.177969000000012e-01  1.51711400e-01  -7.46838500e-02   5.56956930e-01
C     1.011083134660197e+01   4.568741445541721e+00  -2.958084000000021e-01 -4.85124460e-01  -1.14990914e+00  -1.84398600e-02
C     1.044453356876446e+01   3.175679887273665e+00  -1.907096999999993e-01 -4.24408960e-01  -1.94734320e-01   6.31287000e-02
C     4.632157039308132e+00   6.139044519991802e+00  -2.448638999999986e-01  1.77540120e-01  -7.77892630e-01  -9.24123600e-02
C     6.012572681262903e+00   5.753073455053825e+00  -1.949378999999993e-01 -4.76251510e-01  -1.60069255e+00  -2.60070030e-01
C     6.345662097592143e+00   4.315313032925148e+00  -2.583845999999994e-01  4.17107630e-01   2.15525704e+00  -2.83835500e-02
C     7.736473485649708e+00   3.945257895876405e+00  -2.891517000000015e-01 -1.15347234e+00  -3.07488500e-01  -6.98325700e-02
C     8.050700614927901e+00   2.554111880051015e+00  -2.868881999999999e-01  7.74442690e-01   4.58871620e-01   3.43623990e-01
C     9.423846353655140e+00   2.171817575949769e+00  -1.692180000000008e-01  1.11197900e-02  -1.41489750e-01  -4.14355210e-01
C     3.607704201407247e+00   5.128699367113037e+00  -3.244830000000007e-01  1.04646610e-01   8.70376550e-01   7.97152510e-01
C     3.927202038321290e+00   3.768561863251707e+00  -1.878180000000000e-01  1.21594210e+00  -8.45140720e-01  -7.21772020e-01
C     5.313855012378641e+00   3.362574314968513e+00  -2.589699000000003e-01 -2.32376240e-01  -2.48640990e-01   6.29544000e-01
C     5.685329357818821e+00   1.979088852552181e+00  -2.389304999999986e-01 -1.68945096e+00   4.62248940e-01  -1.03663260e-01
C     7.016591975086590e+00   1.589590039923654e+00  -2.935760999999992e-01  1.09120649e+00  -7.79637310e-01  -4.05266400e-02
C     7.364030246014382e+00   1.935195090710699e-01  -3.249065999999985e-01  3.14763960e-01   1.02672454e+00   4.07549460e-01
C     2.915448678625036e+00   2.772791135098549e+00  -1.303055999999998e-01  1.14124370e-01   1.55908840e-01  -2.20157300e-02
C     3.265010217245214e+00   1.393755054366759e+00  -8.530890000000113e-02  2.80706160e-01   1.02267600e-02   1.53439170e-01
C     4.649792689362807e+00   1.005828884611562e+00  -1.721132999999995e-01 -7.79039210e-01  -5.96377390e-01  -2.90876370e-01
C     8.878923749400898e-01   7.738639838258453e-01  -1.304105999999976e-01 -1.24424289e+00   1.25845737e+00   2.16236590e-01
C     2.231242286750437e+00   4.055437415678645e-01  -3.033119999999911e-02  1.30528519e+00  -3.31654880e-01  -9.05371040e-01
C     1.429932796509731e-01   1.863508683775291e-01   3.672447600000000e+00  6.41938350e-01   3.48870980e-01   4.28190200e-01
C     6.978358540295771e+00   7.305285825558193e+00   3.559212600000000e+00  8.70168900e-02  -2.53548290e-01   5.27989050e-01
C     8.344992406853320e+00   7.694623848691694e+00   3.554570700000000e+00  1.59001030e-01  -1.14215353e+00  -1.78335390e-01
C     9.386739254271220e+00   6.698366749634240e+00   3.522027300000000e+00 -2.86079640e-01   5.92634670e-01   3.41662770e-01
C     1.074344002313645e+01   7.111163336638374e+00   3.635029200000000e+00  4.65954710e-01  -7.25113430e-01  -2.46980610e-01
C     1.176780104994841e+01   6.098221845202289e+00   3.670835400000000e+00  2.33334960e-01   1.01352551e+00   3.14611970e-01
C     4.266424092556313e+00   6.497049142478376e+00   3.757900500000000e+00 -1.05949250e+00   2.73785190e-01  -6.75712870e-01
C     5.280606188343485e+00   5.513618642462915e+00   3.732145800000000e+00  3.37526240e-01   3.67042860e-01  -1.53979350e-01
C     6.637505863574336e+00   5.926668767330437e+00   3.619286400000000e+00  3.71533290e-01  -6.26764870e-01  -9.21594000e-02
C     7.662542132175533e+00   4.922495883669329e+00   3.551814600000000e+00  5.02851170e-01   5.49737710e-01   4.07506400e-02
C     9.054118039304553e+00   5.327120377300812e+00   3.498818400000000e+00 -6.81656670e-01  -1.00148406e+00  -5.41015400e-02
C     1.007240673384687e+01   4.305743787367851e+00   3.508963800000000e+00 -3.80388410e-01   1.58032991e+00   7.04247340e-01
C     1.142701356439572e+01   4.731025151419045e+00   3.644087700000000e+00  9.66195900e-02  -4.37221220e-01  -5.09094130e-01
C     3.577301433657886e+00   3.757799281011359e+00   3.682181400000000e+00 -1.73150750e-01  -2.45368250e-01   3.09905920e-01
C     4.937478708935526e+00   4.142886350089890e+00   3.735769800000000e+00  1.58693870e-01  -3.45817450e-01   3.46165400e-02
C     5.945438937162665e+00   3.137262050675926e+00   3.733798500000000e+00  6.70487970e-01   3.63440480e-01  -6.97255030e-01
C     7.328509553000210e+00   3.540586450788741e+00   3.608261400000000e+00 -5.18064590e-01  -5.45213200e-02   2.53348080e-01
C     8.355510844082167e+00   2.553501511120636e+00   3.581564100000000e+00 -1.72655580e-01   2.51013080e-01   4.20009740e-01
C     9.718426725842560e+00   2.949838841827018e+00   3.581436300000000e+00  3.05772400e-01  -3.15048490e-01  -7.80981140e-01
C     1.874730668332917e+00   1.981311349760844e+00   3.555291600000000e+00 -3.43097450e-01  -2.63409720e-01   1.09803376e+00
C     3.237418669882851e+00   2.384547619681315e+00   3.669834000000000e+00 -1.47407880e-01  -1.06790974e+00  -8.17914740e-01
C     4.237849741118453e+00   1.344218266279283e+00   3.631101600000000e+00  4.74682720e-01   1.94880245e+00   2.53365450e-01
C     5.608937270527023e+00   1.757143084637516e+00   3.680544300000000e+00 -1.56946340e-01   1.41920160e-01   1.27922490e-01
C     6.644458562029926e+00   7.907992971014530e-01   3.679735500000000e+00 -4.32420900e-02  -2.46803120e-01  -1.09569570e-01
C     8.011752694627425e+00   1.185928512961526e+00   3.678269400000000e+00  2.84538900e-02  -5.73956840e-01  -3.47161530e-01
C     1.526021012420099e+00   5.994534095428551e-01   3.639542700000000e+00 -5.86548510e-01  -1.28485640e-01  -7.11628980e-01
