52
Lattice="8.88768389401873 1.33226762955019e-15 0 4.44384194700937 7.69696003302603 0 0 0 30 " PBC="1 1 1" Properties=species:S:1:pos:R:3:force:R:3 Energy="-416.54911539"
C     1.295058122174971e+01   7.169870359875192e+00  -6.179700000000565e-03 -6.10417310e-01   4.17070466e+00  -3.44617070e-01
C     9.210520213115426e+00   7.109263111146166e+00   6.880170000000001e-02 -1.00872467e+00  -1.32734968e+00   5.58381750e-01
C     1.057383279611756e+01   6.691736280385997e+00   1.704054000000000e-01 -6.65167100e-01   2.01663810e-01  -2.71660370e-01
C     1.091551989124815e+01   5.310437216435787e+00   2.030169000000000e-01 -2.61982915e+00   2.13680700e-02  -6.69020200e-02
C     6.826174906283587e+00   6.508817486485844e+00  -7.754850000000246e-02 -4.39219350e-01  -5.30790270e+00   9.91064150e-01
C     8.167520645321900e+00   6.056079295706833e+00   1.148073000000000e-01  9.88175250e-01   4.38191747e+00  -1.19982003e+00
C     8.585359549119705e+00   4.757235301530804e+00   1.154997000000000e-01 -3.60961146e+00  -3.13300934e+00   5.48386300e-01
C     9.863634594915755e+00   4.350664323677335e+00   2.151156000000000e-01  3.29531923e+00  -2.70164268e+00  -9.23762550e-01
C     1.023211894569964e+01   2.902490376445670e+00   4.300860000000000e-02 -6.12325490e-01   2.02419825e+00  -3.54196700e-02
C     4.401516887274142e+00   5.865634568228548e+00  -9.358499999997605e-03  4.48606820e-01  -4.17599482e+00   4.96837580e-01
C     5.805168312213805e+00   5.443572303770699e+00  -4.234500000002583e-03 -5.21833640e-01   5.97369100e-01  -2.12694630e-01
C     6.164280333733542e+00   4.039077065317279e+00   8.799029999999999e-02 -4.48843300e-02   1.56774191e+00  -6.86806490e-01
C     7.582105970302707e+00   3.688553349192663e+00   9.316410000000000e-02 -2.43457206e+00   5.24481700e-02  -1.70864590e-01
C     7.842661665280345e+00   2.292772916763609e+00   4.219050000000000e-02  8.74709300e-01   3.57482220e-01   8.00114040e-01
C     9.216000044550805e+00   1.902639797659010e+00  -4.045200000000193e-03 -6.86655700e-01  -3.82615200e-01  -4.37685200e-01
C     3.295386456626661e+00   4.871309483108223e+00   1.001652000000000e-01  5.73529649e+00  -5.71991790e-01  -8.62893860e-01
C     3.710986152836046e+00   3.463548193605273e+00  -4.779780000000144e-02  1.68838240e+00   2.84181931e+00   6.83714590e-01
C     5.099626501889487e+00   3.059788607372363e+00   1.133370000000000e-02  1.05791575e+00   1.45605175e+00   2.05176890e-01
C     5.477395727215467e+00   1.702518529000609e+00   6.319469999999999e-02 -1.50207745e+00   2.52096970e-01  -2.46964170e-01
C     6.832777785426574e+00   1.257964361882296e+00   1.472817000000000e-01 -3.27750340e-01   4.29948314e+00  -1.02809954e+00
C     1.160436525415005e+01   7.650751946216698e+00   9.975810000000000e-02  3.40461130e-01  -3.17255142e+00   1.88038980e-01
C     2.714346388531395e+00   2.559864203129436e+00  -1.223733000000031e-01 -2.94005653e+00  -4.06499118e+00   2.73375350e-01
C     2.963209268792235e+00   1.106454475806964e+00  -1.855098000000019e-01  3.55202591e+00   2.62729917e+00   7.30511450e-01
C     4.394253246569066e+00   7.975024256523795e-01  -2.934750000000008e-02 -6.78064330e-01  -2.44444009e+00  -1.81307830e-01
C     5.786916297707267e-01   5.074860517155992e-01  -1.424703000000029e-01  3.03608034e+00  -3.87053110e-01   6.96170830e-01
C     2.005028245714575e+00   1.051771115395428e-01  -1.536945000000003e-01 -2.36491717e+00   2.79650560e+00  -4.34124760e-01
C     4.053180691957609e-01   4.667312641135517e-01   3.232015800000000e+00 -8.49319920e-01   2.42195819e+00   1.35275848e+00
C     7.215936507250763e+00   7.578125432583224e+00   3.321360600000000e+00 -7.38443990e-01  -5.57337390e-01   9.76847070e-01
C     4.125524569525603e+00   2.292641144807896e-01   3.409070100000000e+00 -1.10209107e+00   2.94081905e+00  -5.73592300e-02
C     9.560554532896973e+00   6.987660840841805e+00   3.474485700000000e+00  1.30612097e+00  -4.04329704e+00   7.67791660e-01
C     1.092863998038276e+01   7.310654532148719e+00   3.461778000000000e+00  2.39000306e+00   1.14047065e+00  -6.04212310e-01
C     1.206801576900879e+01   6.369628586148136e+00   3.401499300000000e+00 -3.23962965e+00   2.69536360e-01   7.75328800e-02
C     4.513211699782875e+00   6.820155671219330e+00   3.326241000000000e+00 -2.42469880e-01  -2.32490504e+00  -8.51316540e-01
C     5.491993750643461e+00   5.764464648019824e+00   3.234438300000000e+00  1.00027688e+00   1.50333985e+00   6.33949540e-01
C     6.857458086900205e+00   6.188100171107803e+00   3.369984000000000e+00 -8.97483500e-02  -1.28869280e+00  -1.34754890e-01
C     7.835967641369917e+00   5.128090229696263e+00   3.539830800000000e+00  1.75713317e+00   1.24240116e+00  -7.70378020e-01
C     9.261069936298306e+00   5.531165479212906e+00   3.598723500000000e+00 -9.59162760e-01   1.58020721e+00  -1.25334297e+00
C     1.034075039624645e+01   4.600322688301614e+00   3.446499300000000e+00 -2.24884866e+00  -1.35231270e-01   1.28668020e+00
C     1.169749795874088e+01   4.972363487098896e+00   3.377261700000000e+00 -1.61503000e-03   2.16252270e+00  -1.56344140e-01
C     3.813426086542785e+00   4.030022207598786e+00   3.241590900000000e+00 -4.79020560e-01  -1.26930839e+00   6.19827320e-01
C     5.142557393265898e+00   4.395724097993762e+00   3.183573000000000e+00  1.37325638e+00   1.35830720e-01   5.23638960e-01
C     6.138697179660622e+00   3.371021189814236e+00   3.251913300000000e+00  1.07197090e+00   6.29958500e-01   4.71445190e-01
C     7.500877650001888e+00   3.743268036231521e+00   3.406787700000000e+00  7.03064020e-01   1.41704369e+00   6.10990400e-02
C     8.585123979789264e+00   2.803846983366793e+00   3.388335600000000e+00 -1.29778251e+00   8.44269540e-01   3.55354090e-01
C     9.942493991256779e+00   3.224907796355138e+00   3.492411300000000e+00  7.28832890e-01   1.62954350e-01  -1.34921176e+00
C     2.101693141230198e+00   2.283283257773022e+00   3.355054500000000e+00 -3.13433120e-01  -5.08082060e-01   9.42664750e-01
C     3.472609849334555e+00   2.665653607839365e+00   3.364328400000000e+00 -9.65727200e-01  -5.06707750e-01  -6.06877590e-01
C     4.433006481824922e+00   1.659210813695811e+00   3.386403000000000e+00  1.73019446e+00  -1.67232319e+00  -1.77930980e-01
C     5.828069071744006e+00   2.004717651272873e+00   3.343366500000000e+00 -1.60030995e+00  -1.20856870e-01  -1.98020390e-01
C     6.825949199977672e+00   1.007758050673481e+00   3.352188900000000e+00  9.68283190e-01   3.02450650e-01   1.65885970e-01
C     8.194471566090805e+00   1.465162985288282e+00   3.282665700000000e+00  1.60787923e+00  -2.68128483e+00   2.29159340e-01
C     1.769536841009159e+00   9.141012101196399e-01   3.365018700000000e+00 -5.35259070e-01  -1.72608831e+00  -1.34349834e+00
