52
Lattice="8.88768389401873 1.33226762955019e-15 0 4.44384194700937 7.69696003302603 0 0 0 30 " PBC="1 1 1" Properties=species:S:1:pos:R:3:force:R:3 Energy="-418.14331905"
C     4.323483468126581e+00   7.439578073864016e+00  -2.237471999999983e-01 -2.74084544e+00   2.78760981e+00   7.35199200e-02
C     9.397465844783895e+00   7.294751304243533e+00  -2.094783000000007e-01 -2.29005260e-01  -1.64417691e+00  -2.04254700e-01
C     1.076960354238879e+01   6.888529922314628e+00  -1.898882999999998e-01  1.05339035e+00  -4.82165690e-01   4.03022140e-01
C     1.114781475218065e+01   5.448192557967908e+00  -1.581344999999992e-01 -2.48926434e+00   2.99653581e+00  -3.19598800e-01
C     6.967397625971468e+00   6.669081125203295e+00  -2.916030000000021e-01  1.46338722e+00   2.31237440e-01  -1.50970000e-04
C     8.330766912414903e+00   6.279396507959643e+00  -2.675826000000008e-01  1.75678510e+00   8.36416170e-01   2.37851480e-01
C     8.726456596956901e+00   4.916758646632568e+00  -2.482380000000006e-01 -2.31739796e+00  -3.93123710e-01   2.78130180e-01
C     1.006266685453138e+01   4.527887982912089e+00  -2.026569000000009e-01  1.85292418e+00  -2.00636766e+00  -6.90304000e-03
C     1.045931214280003e+01   3.095668987157011e+00  -2.388906000000013e-01 -1.16610075e+00   2.48791363e+00  -3.44738380e-01
C     4.639663621547538e+00   6.119790651446357e+00  -1.997396999999985e-01 -9.71058640e-01  -3.11185258e+00  -6.43469900e-02
C     5.972971650353749e+00   5.681025290997007e+00  -2.502843000000006e-01 -2.80525110e-01   1.42762574e+00   2.16060690e-01
C     6.292927914011047e+00   4.333522808842524e+00  -2.004504000000011e-01  4.54322670e-01  -6.87048500e-02  -3.17445130e-01
C     7.621146188457473e+00   3.913108771405499e+00  -2.168451000000005e-01  2.48247283e+00   3.32587103e+00  -1.16985950e-01
C     7.972909695255571e+00   2.619898798032229e+00  -2.209526999999980e-01  2.84191487e+00  -4.46846558e+00   9.93255800e-02
C     9.417675901351767e+00   2.157871761949813e+00  -2.699021999999971e-01 -1.92972174e+00  -4.42708130e-01   1.59429370e-01
C     3.596031783949512e+00   5.108838978117229e+00  -1.694652000000012e-01  1.40750191e+00  -3.10409450e-01  -9.49478900e-02
C     3.957432161890052e+00   3.721625647049567e+00  -2.276778000000022e-01 -8.70439330e-01   1.56025413e+00  -1.77465040e-01
C     5.296056492194209e+00   3.381202574602719e+00  -2.387297999999980e-01  9.73189000e-02  -3.03353502e+00   4.70345810e-01
C     5.628568431274667e+00   1.961870291147469e+00  -1.971777000000010e-01  5.73944600e-02   2.80911750e-01  -1.22881460e-01
C     6.999122343621181e+00   1.572309594960301e+00  -1.742606999999978e-01  1.60566110e-01  -1.44988700e-02  -1.92746130e-01
C     7.380894359562926e+00   1.901105254737829e-01  -1.731099000000000e-01 -8.98153000e-01  -1.02869331e+00  -1.51201160e-01
C     2.943182429571721e+00   2.770415237476489e+00  -3.143748000000031e-01 -1.17954623e+00  -2.80222875e+00   5.88294030e-01
C     3.211436680743435e+00   1.328667251265070e+00  -3.157494000000014e-01  2.67906105e+00   1.96927164e+00   1.79005070e-01
C     4.618109962676413e+00   9.563189589145895e-01  -2.224919999999990e-01 -1.07477901e+00   8.95548120e-01  -2.81526010e-01
C     8.330935823637686e-01   7.496214845761566e-01  -3.012098999999999e-01  1.70208751e+00   1.36388556e+00   1.28301740e-01
C     2.226735031152478e+00   3.618180043638373e-01  -3.275289000000008e-01 -1.91296393e+00  -3.01123830e-01   1.21933070e-01
C     1.767418595532154e-01   1.934591649044347e-01   3.583632300000000e+00 -5.83746320e-01   1.82171743e+00   3.17404770e-01
C     7.029246485301583e+00   7.285820983338327e+00   3.682410000000000e+00  2.90562960e-01   6.45382510e-01  -1.40300570e-01
C     3.972455367073657e+00   2.244064090666560e-02   3.670710300000000e+00 -1.78356928e+00   4.27547300e-01   1.74470560e-01
C     9.386838574161995e+00   6.734242357303670e+00   3.645682500000000e+00  5.42061140e-01  -1.13733995e+00   1.68926290e-01
C     1.074233759481334e+01   7.090547183137219e+00   3.595143300000000e+00  1.08261147e+00   2.15904233e+00   2.68081420e-01
C     1.178584784762653e+01   6.147675737030243e+00   3.611235300000000e+00  2.57855430e-01  -4.51939280e-01  -4.99829580e-01
C     4.258596931580460e+00   6.549345290736607e+00   3.569925000000000e+00  9.89306350e-01  -1.50963351e+00   1.12797310e-01
C     5.322800556493610e+00   5.522102693625583e+00   3.579365100000000e+00 -1.67508143e+00   1.87766231e+00  -9.46304800e-02
C     6.670480015116114e+00   5.895742151021096e+00   3.631411500000000e+00  1.86813550e-01   2.03293929e+00   4.42867880e-01
C     7.691226865322608e+00   4.957311081155427e+00   3.727904100000000e+00  1.52320410e-01  -5.23111910e-01  -7.90125080e-01
C     9.025785747293430e+00   5.340475603557666e+00   3.709142400000000e+00  1.11120559e+00   2.22567650e+00  -2.02911420e-01
C     1.006741341092702e+01   4.431428756180926e+00   3.666626400000000e+00  6.57669660e-01  -3.17039413e+00   1.18524640e-01
C     1.145729479220062e+01   4.766855731872300e+00   3.608448900000000e+00 -2.24464660e-01  -1.08743460e-01   2.61874710e-01
C     3.592678682139942e+00   3.769614037687808e+00   3.608183400000000e+00 -3.98255270e-01  -7.91371340e-01  -8.64702300e-02
C     4.973067261615762e+00   4.181810107870402e+00   3.559995000000000e+00 -5.85148350e-01  -1.61813333e+00   1.86150420e-01
C     6.023828264680575e+00   3.208888652231901e+00   3.562288200000000e+00 -5.14023150e-01  -2.96202790e-01   1.65224420e-01
C     7.382971146876709e+00   3.606339271237022e+00   3.623148600000000e+00 -1.26338039e+00  -1.24597218e+00   2.89759890e-01
C     8.367405098142839e+00   2.593437111266691e+00   3.650937300000000e+00  1.39931440e-01   1.15581855e+00  -2.39674390e-01
C     9.707366447669553e+00   3.017422615127235e+00   3.687363300000000e+00  1.66559678e+00  -8.60985180e-01  -1.92020820e-01
C     1.827583771648048e+00   1.969287697589180e+00   3.682234500000000e+00  1.68759412e+00   8.59781960e-01   1.39593000e-01
C     3.233168579420433e+00   2.344184299466393e+00   3.665793000000000e+00  2.51246700e-02   1.93783765e+00  -8.55112200e-02
C     4.305920823146585e+00   1.414547006434999e+00   3.675048000000000e+00 -1.56850850e-01  -3.32034250e-01  -4.79998020e-01
C     5.697353371938501e+00   1.825393106797930e+00   3.591190200000000e+00 -1.99321017e+00  -9.23006300e-02   2.50364610e-01
C     6.672081705771387e+00   8.204245114089216e-01   3.599831700000000e+00 -1.61140730e-01  -1.00935012e+00  -4.03172790e-01
C     8.012617466309617e+00   1.247033908943693e+00   3.574065600000000e+00  1.64403171e+00  -2.72654492e+00   3.14648060e-01
C     1.555953576340957e+00   5.659625509995198e-01   3.688453200000000e+00 -1.07566484e+00   6.96360650e-01  -5.68188730e-01
