52
Lattice="8.88768389401873 1.33226762955019e-15 0 4.44384194700937 7.69696003302603 0 0 0 30 " PBC="1 1 1" Properties=species:S:1:pos:R:3:force:R:3 Energy="-418.225795"
C     1.250221214505674e+01   6.794184819594904e+00   4.965060000000000e-02  1.21770218e+00  -5.13372840e-01   4.36428440e-01
C     8.838608059159704e+00   6.634513846799764e+00  -1.104158999999996e-01 -1.50210021e+00   3.53512640e-01  -4.32027890e-01
C     1.019083845583553e+01   6.265323540179993e+00  -1.151310000000016e-01 -1.76413331e+00  -3.49477869e+00   6.72802460e-01
C     1.048963554377094e+01   4.833998854210800e+00  -6.365070000000017e-02  1.43144952e+00   1.74629485e+00  -9.61377100e-02
C     6.450577474183669e+00   6.004504044725011e+00  -2.161770000000018e-02 -2.00936876e+00   1.23529320e+00  -4.75901400e-02
C     7.804146756010127e+00   5.652272065291337e+00  -1.435542000000005e-01  6.93232480e-01  -6.98069020e-01   4.21218070e-01
C     8.182941575613292e+00   4.286840977169374e+00  -1.433105999999995e-01 -2.86505766e+00  -1.58415718e+00   3.84320330e-01
C     9.510549977196430e+00   3.874497664141407e+00  -1.414437000000000e-01 -8.93283460e-01  -1.39286257e+00   2.59907450e-01
C     9.816429438252795e+00   2.475680857950119e+00  -5.522429999999900e-02 -6.26986850e-01  -1.32392501e+00  -1.53582580e-01
C     3.972777015874970e+00   5.443152973388265e+00   1.264212000000000e-01  8.84063370e-01  -1.48495820e+00  -4.61663650e-01
C     5.380890724733809e+00   5.067431719213438e+00   7.125030000000000e-02 -2.77752320e-01  -1.97137746e+00   5.81462920e-01
C     5.723495873139871e+00   3.636961164898775e+00   1.685187000000000e-01  1.24850090e-01   1.43447354e+00  -9.53237840e-01
C     7.122722920186530e+00   3.252269180778583e+00   1.431420000000000e-02 -1.19071890e+00   2.23132412e+00  -3.90481500e-02
C     7.372464036992872e+00   1.894166214361983e+00   2.562000000000000e-02  3.35311579e+00  -1.97626571e+00  -2.77017640e-01
C     8.783212899642361e+00   1.450225802836462e+00  -3.888630000000148e-02 -6.71652180e-01   1.01162793e+00   3.82309190e-01
C     2.936235328093856e+00   4.422448482005124e+00   1.096110000000000e-01  1.59442622e+00   6.95781300e-01  -4.15541490e-01
C     3.297826702370834e+00   3.050078738355317e+00   9.902279999999999e-02  5.22247660e-01  -4.92255380e-01   2.66168790e-01
C     4.679422806491768e+00   2.651629361816704e+00   1.797570000000000e-01  7.50403160e-01   3.04063620e-01  -9.86996350e-01
C     5.070396819267248e+00   1.273992203570366e+00  -3.316500000000389e-03 -2.79835188e+00   3.56440990e-01   9.38163480e-01
C     6.395972607549686e+00   8.692602603768659e-01   4.286280000000000e-02  1.75197370e-01   5.38676390e-01  -6.16108400e-02
C     1.116623590019516e+01   7.177019989077459e+00   6.160649999999999e-02  1.18041568e+00   2.61657192e+00  -7.91854220e-01
C     2.278698475895272e+00   2.050237318951093e+00   8.227800000000000e-03  2.68526010e-01   7.83382120e-01   1.98103050e-01
C     2.614099934353451e+00   6.768145541995813e-01   1.752690000000000e-02  6.11178800e-01  -5.19472600e-02  -4.06507270e-01
C     4.007781288847742e+00   2.965778014535543e-01  -4.838880000000145e-02  1.91379500e-01   4.24501800e-01   2.17418740e-01
C     2.090245936469220e-01   3.961171206799229e-02   2.481780000000000e-02  6.46939050e-01   2.34846118e+00  -2.33005690e-01
C     6.031193713231058e+00   7.394099969769959e+00   6.911400000000000e-03  9.69029730e-01  -1.12159930e+00  -5.40392800e-02
C     7.893232057795302e-01   9.130583490051751e-01   3.519994800000000e+00  4.05543200e-02  -1.46764008e+00  -9.92276670e-01
C     3.176011705259993e+00   3.273164579989626e-01   3.645569700000000e+00 -8.15616700e-02  -1.65089033e+00  -1.30156051e+00
C     4.534295637250265e+00   7.304422765430030e-01   3.504159600000000e+00  1.29750240e-01  -1.53963741e+00  -1.65331700e-02
C     9.980755650884163e+00   7.423223881070674e+00   3.314478300000000e+00  6.45380460e-01  -9.04510000e-01   4.27826200e-01
C     6.927377358767592e+00   6.134284719909249e-02   3.265087500000000e+00 -3.03518360e-01   2.01057413e+00   2.78331590e-01
C     1.240534634486033e+01   6.792082779810712e+00   3.304100100000000e+00  5.76957600e-01   3.32280500e-01  -4.28479930e-01
C     4.895239948796916e+00   7.201711298066496e+00   3.364589100000000e+00 -6.74102960e-01   6.97783650e-01   7.96691490e-01
C     5.892299432730947e+00   6.192971423171590e+00   3.391674300000000e+00 -3.19211900e-02   8.82065070e-01   3.59075280e-01
C     7.237285478784623e+00   6.619006550518522e+00   3.453816000000000e+00  1.94795199e+00  -7.71797000e-02   6.17177230e-01
C     8.291522899387026e+00   5.621478991238517e+00   3.402825900000000e+00 -5.50101810e-01  -2.07347250e-01  -7.25268070e-01
C     9.662885147090707e+00   6.012961618345176e+00   3.308133000000000e+00 -1.88862820e-01   6.12961250e-01   2.70571250e-01
C     1.070930065043219e+01   5.039163555928859e+00   3.281139000000000e+00 -6.00722000e-02  -3.94204810e-01   1.29562790e-01
C     3.207937957747704e+00   5.399445939797110e+00   3.270982500000000e+00 -2.47048243e+00   2.08158046e+00   6.82715870e-01
C     4.180249908126388e+00   4.458841171449369e+00   3.420063900000000e+00  1.22216503e+00  -2.49420180e+00  -6.00387630e-01
C     5.527208842208367e+00   4.820836975589900e+00   3.408777300000000e+00  1.91323679e+00   1.35744790e-01  -8.40907110e-01
C     6.572489921573114e+00   3.839309471972256e+00   3.266072400000000e+00 -3.71590900e-02   2.56256000e-02   1.19880744e+00
C     7.950960938788192e+00   4.216016937635728e+00   3.295686900000000e+00  6.30196840e-01   8.46363600e-01   4.53277660e-01
C     9.021286444837715e+00   3.241913305906220e+00   3.383857800000000e+00 -1.41595690e+00   5.89364770e-01  -7.20376450e-01
C     1.039245414114853e+01   3.644922900353807e+00   3.389632200000000e+00 -1.56589612e+00   1.16291165e+00   4.82327940e-01
C     2.496382918051920e+00   2.699827186737362e+00   3.593232300000000e+00  1.29973438e+00  -1.67645455e+00  -1.10602701e+00
C     3.868321976415972e+00   3.054225706480280e+00   3.439803000000000e+00 -8.58823060e-01   1.27251993e+00   1.20018580e+00
C     4.878643795594831e+00   2.089991732658041e+00   3.472146600000000e+00  1.18592190e-01  -2.65041990e-01  -3.75744590e-01
C     6.232550143299276e+00   2.455825395008730e+00   3.333385800000000e+00  4.63988700e-01   7.47892640e-01  -3.31745120e-01
C     7.258101053265960e+00   1.497579271241829e+00   3.277368600000000e+00  5.80041390e-01  -1.98272105e+00   2.72956530e-01
C     8.637651924071951e+00   1.871634056600561e+00   3.345170400000000e+00  5.15277250e-01   2.59479510e-01   7.23962210e-01
C     2.177713144850891e+00   1.296729716225389e+00   3.627074100000000e+00 -1.88893168e+00   9.75782900e-01   2.01484320e-01
