52
Lattice="8.88768389401873 1.33226762955019e-15 0 4.44384194700937 7.69696003302603 0 0 0 30 " PBC="1 1 1" Properties=species:S:1:pos:R:3:force:R:3 Energy="-418.84646285"
C     1.302830508396813e+01   7.290409987877813e+00  -6.564329999999785e-02 -9.74561610e-01   1.58813966e+00   2.13992800e-01
C     9.280927289523989e+00   7.156810158096288e+00  -1.599038999999998e-01 -1.91036395e+00  -7.95327400e-01   7.98644880e-01
C     1.061107032525084e+01   6.765310597677564e+00  -2.024141999999998e-01  4.06103560e-01  -2.34260405e+00  -2.48121750e-01
C     1.098878649107356e+01   5.361192664204813e+00  -1.925036999999996e-01 -1.81529316e+00  -6.73337500e-02  -1.39711510e-01
C     6.885313554907537e+00   6.539435993485185e+00   4.502640000000000e-02 -6.48112400e-01  -2.30351370e-01   8.76211300e-02
C     8.249272583616730e+00   6.151655219304954e+00  -9.253290000000192e-02  2.57991800e-02   9.06541020e-01  -2.51990230e-01
C     8.614729122757055e+00   4.804568296022490e+00  -1.863141000000006e-01 -1.64394815e+00  -2.26570001e+00   1.27195650e-01
C     9.934044382046649e+00   4.365494441415137e+00  -1.644927000000003e-01  1.74360489e+00   2.96217010e-01   6.06046800e-02
C     1.027163563248406e+01   2.967427319130771e+00  -2.722080000000204e-02  1.04894652e+00   1.55162365e+00   8.02555400e-02
C     4.483166083917923e+00   5.922294354036588e+00  -2.374800000000121e-02 -3.32571920e-01   6.93011300e-02  -7.75477390e-01
C     5.848863943540373e+00   5.532355429233544e+00   6.131700000000000e-03  9.57420220e-01  -5.60267100e-02  -2.51469690e-01
C     6.215682920159450e+00   4.149607951344889e+00  -1.061978999999980e-01 -3.59421170e-01  -2.25679920e-01  -1.10296750e-01
C     7.593681689777730e+00   3.736138188216532e+00  -1.989944999999977e-01 -5.83855190e-01   2.93321689e+00   6.56023440e-01
C     7.927844649512589e+00   2.403896622652730e+00  -1.329336000000012e-01 -3.53646520e-01  -2.46042099e+00   1.81103910e-01
C     9.300859294878704e+00   1.985049147490612e+00   1.946430000000000e-02 -2.55231774e+00   5.17729910e-01  -7.12107950e-01
C     3.430329449894532e+00   4.951107177432046e+00  -1.780940999999991e-01  1.58914973e+00  -4.79099470e-01   1.17646852e+00
C     3.784510806592401e+00   3.559246421898270e+00  -3.861450000000133e-02  1.97755470e-01   2.30153040e-01  -4.68393720e-01
C     5.177119550939804e+00   3.153420894623708e+00  -7.871310000000165e-02 -6.51081850e-01   1.01618205e+00   5.46778050e-01
C     5.503111929532828e+00   1.780387057262512e+00  -3.224970000000127e-02  2.62405260e-01   2.82062170e-01  -6.99166870e-01
C     6.870311052274372e+00   1.382465230364355e+00  -1.355262000000010e-01  3.07250150e-01   1.28193755e+00   1.29482100e-01
C     7.162135396728515e+00   9.324482228343499e-03  -1.890888000000004e-01  3.60834709e+00   6.69848300e-01   6.37743280e-01
C     2.741540745964963e+00   2.591611854165177e+00   6.085170000000000e-02  1.22236787e+00  -6.98502950e-01  -8.44478100e-02
C     3.101604327359338e+00   1.185509413487892e+00   1.459656000000000e-01  3.68803370e-01   1.61178251e+00  -4.87160350e-01
C     4.468410881116566e+00   8.077613188283649e-01  -6.698100000001261e-03  1.22740630e-01   3.10553260e-01   9.50586600e-02
C     7.013966378588248e-01   6.325438722254300e-01   7.498170000000001e-02  7.67716380e-01  -2.38405842e+00   1.15894230e-01
C     2.088215811607787e+00   2.309717620330454e-01   1.733106000000000e-01 -8.53903000e-01  -1.23684664e+00  -7.39919550e-01
C     3.299238467001878e-01   3.794431191973337e-01   3.558838200000000e+00 -4.85827320e-01   1.13562821e+00  -4.41391320e-01
C     7.135146216371330e+00   7.511026567764898e+00   3.398932500000000e+00  1.69739400e-01  -1.23467701e+00   2.84268430e-01
C     4.055480332811238e+00   1.807738050789917e-01   3.348293700000000e+00  2.91327480e-01   4.99126200e-01   5.92162930e-01
C     9.540625545937520e+00   6.898920818355128e+00   3.334507200000000e+00 -1.03078827e+00  -1.35906192e+00  -4.80918540e-01
C     1.089320465136716e+01   7.263069539185650e+00   3.416832000000000e+00  8.07942420e-01   1.01680473e+00   4.07811480e-01
C     1.194623214715356e+01   6.312283232110224e+00   3.501456600000000e+00 -4.17894620e-01  -7.97356100e-01  -9.52784200e-02
C     4.417179742034768e+00   6.734529607851989e+00   3.611699400000000e+00 -5.83098300e-02  -2.01274901e+00  -2.56013160e-01
C     5.433115377832284e+00   5.718536502672811e+00   3.619614900000000e+00 -7.69160200e-02  -1.79119070e-01  -8.09089860e-01
C     6.790641723643438e+00   6.114992597472455e+00   3.481769400000000e+00  6.35537190e-01  -5.15806520e-01  -1.67389400e-01
C     7.813785715452423e+00   5.087430037732984e+00   3.375035700000000e+00 -1.66992020e-01   9.49620820e-01  -4.07307000e-02
C     9.195575838222057e+00   5.473117700602657e+00   3.247968900000000e+00 -4.84472710e-01   1.60473792e+00   9.35440170e-01
C     1.023131709991432e+01   4.526910392018680e+00   3.333457200000000e+00  2.23748020e-01  -8.42039970e-01   1.26148090e-01
C     1.160857797009020e+01   4.902483941530530e+00   3.455189400000000e+00 -6.41049260e-01   1.37184350e+00  -1.38193870e-01
C     3.723533740813667e+00   3.925580001802908e+00   3.529752900000000e+00  5.44797350e-01  -5.01632400e-02   1.56779000e-01
C     5.085308710594019e+00   4.323330494370798e+00   3.538885200000000e+00  5.57146450e-01  -1.08164000e-02   1.18878939e+00
C     6.119068018737380e+00   3.313345713160638e+00   3.621565800000000e+00 -1.30537069e+00   3.54466270e-01  -1.39015025e+00
C     7.449413560854720e+00   3.711646230492271e+00   3.452804400000000e+00  1.91238894e+00  -6.54794500e-02   8.54964900e-02
C     8.515383968477501e+00   2.729257360077670e+00   3.392370000000000e+00 -5.20097550e-01   5.57270100e-02   5.08584660e-01
C     9.892637595206629e+00   3.128873364848030e+00   3.382164300000000e+00 -9.94638240e-01   1.09367730e+00  -8.85554200e-02
C     2.024865379752773e+00   2.182426526867919e+00   3.453780000000000e+00 -1.97361300e-01  -1.25902630e+00   1.33132820e-01
C     3.379808298027422e+00   2.545354124989680e+00   3.557451000000000e+00 -3.72177140e-01   9.53311610e-01  -7.21370280e-01
C     4.367145900086803e+00   1.575507604883166e+00   3.501720900000000e+00  1.94278710e+00  -1.53226944e+00  -3.45811200e-01
C     5.760891601890322e+00   1.930891951266727e+00   3.516940200000000e+00 -1.34928780e-01   7.54118330e-01   6.13253590e-01
C     6.798718091964449e+00   9.655869454563129e-01   3.504839700000000e+00 -4.68815010e-01  -8.74565330e-01  -3.51229330e-01
C     8.165247128281399e+00   1.340889638944708e+00   3.498291000000000e+00  4.87477390e-01   1.00337721e+00  -3.00302200e-02
C     1.683974219355963e+00   7.974505481417772e-01   3.451990800000000e+00 -2.08970900e-01  -8.74769200e-02   4.08885940e-01
