52
Lattice="8.88768389401873 1.33226762955019e-15 0 4.44384194700937 7.69696003302603 0 0 0 30 " PBC="1 1 1" Properties=species:S:1:pos:R:3:force:R:3 Energy="-417.65057904"
C     1.289159779653785e+01   7.159189519350362e+00   3.382230000000000e-02 -1.99808840e-01   8.67995630e-01   2.75698800e-02
C     9.108216705603169e+00   6.922666093986878e+00  -1.394351999999976e-01  4.41332890e-01  -3.11948280e-01   1.78570710e-01
C     1.050676171180299e+01   6.560871334442332e+00  -2.222316000000006e-01 -2.24642444e+00  -2.50465140e+00   5.46594390e-01
C     1.081218345711914e+01   5.131452492746169e+00  -1.869981000000003e-01  8.46433390e-01   5.99129590e-01   1.84441540e-01
C     6.712963411014956e+00   6.317728138605047e+00  -1.146329999999907e-02  6.00894380e-01   2.70217920e+00   3.81435510e-01
C     8.084491946767965e+00   5.914494562620586e+00  -1.041216000000027e-01 -3.51812760e-01   7.40416910e-01  -3.79761290e-01
C     8.354358068323092e+00   4.523733548735897e+00  -1.925102999999986e-01  3.41344270e+00   1.35183684e+00   3.51598500e-02
C     9.794592666621785e+00   4.101590389228134e+00  -2.087553000000000e-01 -7.37289590e-01   2.35003385e+00   3.37783630e-01
C     1.014208115298930e+01   2.745153506779627e+00  -5.550330000000159e-02  1.35330055e+00   1.88131024e+00   9.24044000e-03
C     4.365932511771034e+00   5.773911973730246e+00   8.472810000000000e-02 -2.85166978e+00   1.76181100e+00  -8.11756790e-01
C     5.669766447855669e+00   5.408378646759927e+00   1.964760000000000e-02  1.85666696e+00  -2.58565435e+00   1.54040990e-01
C     5.976087982295063e+00   3.988531128800269e+00  -1.782630000000296e-02  2.18308888e+00   2.31981403e+00  -4.53188650e-01
C     7.329748940566515e+00   3.614240200707817e+00  -1.377419999999994e-01  7.09202490e-01  -1.85649914e+00   4.10955440e-01
C     7.740833648938301e+00   2.232556596634508e+00  -8.532209999999907e-02 -1.67363726e+00   2.00170950e-01   1.21921500e-01
C     9.098886456202836e+00   1.856478588362290e+00  -8.022000000025287e-04  6.29700000e-05  -2.06205900e+00  -6.92410000e-04
C     3.345452513023292e+00   4.788032762850841e+00  -2.791709999999981e-02 -2.60064233e+00   1.15900775e+00  -1.67246560e-01
C     3.652305753209783e+00   3.458050562934246e+00   1.675020000000000e-02 -1.94039070e-01  -3.59429899e+00   1.43293940e-01
C     5.019880380584607e+00   3.043083510171252e+00   3.862200000000000e-03 -2.79498040e+00  -2.02051645e+00   5.25892670e-01
C     5.331825330388416e+00   1.644071201195202e+00   1.819650000000000e-02 -4.59363730e-01  -3.38325300e-01  -4.84235700e-01
C     6.666045546687321e+00   1.292502776685714e+00  -5.528729999999982e-02  2.40148209e+00  -3.08371827e+00  -1.01882700e-01
C     1.147655831555775e+01   7.517113477695822e+00  -1.006505999999980e-01  2.50339559e+00   2.99104655e+00   4.51691020e-01
C     2.642975842664304e+00   2.379260192988706e+00   5.641649999999999e-02  1.92346450e-01   2.00934162e+00  -2.63600800e-01
C     3.008835749333127e+00   1.024706371811539e+00   1.149888000000000e-01 -1.50116998e+00  -6.74732200e-01  -4.55356510e-01
C     4.331720880175825e+00   5.909097839095552e-01   1.735320000000000e-02  9.02031640e-01   1.24552024e+00  -7.94960200e-02
C     6.329035241167720e-01   4.938598924656893e-01   9.917400000000000e-02 -4.14643524e+00  -1.70087255e+00  -4.81763510e-01
C     1.935416705895869e+00   6.511289519138680e-02   8.594220000000001e-02  2.31159185e+00  -1.45986885e+00   2.12890000e-04
C     4.231298320743924e-01   5.176881413265634e-01   3.548810700000000e+00  1.81111917e+00   6.11781500e-02  -2.19783470e-01
C     7.324057581483517e+00   7.633932087341540e+00   3.527934000000000e+00 -4.65151890e-01  -2.73032430e-01  -4.18967670e-01
C     4.240785431351783e+00   3.707457083026343e-01   3.414369600000000e+00  4.70553120e-01  -8.29247860e-01   1.62317710e-01
C     9.723737430704414e+00   7.057928775013284e+00   3.285848700000000e+00 -1.51507890e+00   2.57789333e+00   1.63500980e-01
C     1.104956229686710e+01   7.483276178981536e+00   3.290992800000000e+00  1.18856046e+00  -5.12069600e-01   3.59083510e-01
C     1.206226730401553e+01   6.477307825454231e+00   3.355523400000000e+00  2.38903390e-01  -4.38010660e-01   4.10000930e-01
C     4.536692205190756e+00   6.856535583709925e+00   3.523382700000000e+00 -7.39545090e-01   4.15096600e-02  -2.03734010e-01
C     5.560844371478623e+00   5.916440585024971e+00   3.560408400000000e+00  1.18527925e+00  -3.01963526e+00  -4.52372880e-01
C     6.969522404281875e+00   6.242402455028254e+00   3.484305900000000e+00 -9.81871560e-01   1.69595170e+00   1.63971640e-01
C     7.993047366717719e+00   5.302452467070265e+00   3.342000000000000e+00  4.25267240e-01   1.13768646e+00   1.79171430e-01
C     9.350270420343870e+00   5.741615375505165e+00   3.259235100000000e+00 -3.77296380e-01  -2.92375560e+00   1.60867930e-01
C     1.032631937510428e+01   4.703249208728384e+00   3.297366000000000e+00  2.30981467e+00   5.96091840e-01   3.37963160e-01
C     1.172613141000850e+01   5.094300883042964e+00   3.383557800000000e+00 -2.36069810e-01  -8.00604110e-01   3.25653500e-02
C     3.860649284004341e+00   4.058197391606203e+00   3.525332400000000e+00 -1.01939890e-01   1.29011547e+00  -5.07432010e-01
C     5.251814846774721e+00   4.472921682249850e+00   3.525243900000000e+00 -4.11181620e-01   1.63965774e+00   1.98009040e-01
C     6.354343275661947e+00   3.568689360341476e+00   3.489143100000000e+00 -3.20569763e+00  -1.34374310e+00  -8.77970700e-02
C     7.668036808799211e+00   3.958748203781786e+00   3.385824300000000e+00  9.45140520e-01  -1.30663773e+00   8.97475900e-02
C     8.650703355246083e+00   2.944472752202903e+00   3.406536300000000e+00  1.37650569e+00  -1.39750193e+00   6.68424100e-02
C     1.002996257671222e+01   3.329291967072391e+00   3.402276300000000e+00 -1.10976594e+00  -1.21565503e+00   3.23683400e-02
C     2.129284289288625e+00   2.280533980619906e+00   3.507916500000000e+00 -1.07649800e-01   3.29935000e-02  -7.45450100e-02
C     3.476564290977661e+00   2.683371471041223e+00   3.524787900000000e+00  2.28864437e+00   5.98512600e-02   5.25573000e-03
C     4.588030041441304e+00   1.735869379840999e+00   3.486212700000000e+00 -3.23525600e-02   1.08310407e+00  -6.64119100e-02
C     6.003362772074344e+00   2.183028429142265e+00   3.460240500000000e+00 -1.86275098e+00  -9.85243290e-01  -9.21004100e-02
C     6.975852609389426e+00   1.155199785494556e+00   3.390263100000000e+00 -4.17178400e-02   1.55850280e-01   8.94276700e-02
C     8.349584757979075e+00   1.510811961895005e+00   3.460671000000000e+00 -1.29821795e+00   2.30952707e+00  -1.74878790e-01
C     1.806534135963901e+00   8.599224624076705e-01   3.557501700000000e+00  2.67279630e-01   2.40046240e+00   3.02367500e-02
