52
Lattice="8.88768389401873 1.33226762955019e-15 0 4.44384194700937 7.69696003302603 0 0 0 30 " PBC="1 1 1" Properties=species:S:1:pos:R:3:force:R:3 Energy="-418.91378303"
C     1.291564986886814e+01   7.151606705237607e+00   3.517380000000000e-02  3.60398200e-02   5.82958300e-02   7.31635800e-02
C     9.084989232643272e+00   7.021191415698895e+00   1.171830000000000e-02  2.28314362e+00  -8.08505170e-01  -5.27355780e-01
C     1.050145936403782e+01   6.568860086227069e+00  -9.387570000000167e-02 -1.64766480e-01   2.60888591e+00   9.97425980e-01
C     1.084345663934693e+01   5.204121493599006e+00  -6.747629999999916e-02  1.22355449e+00  -2.21565660e-01  -5.66658500e-02
C     6.744202731162082e+00   6.382637526173240e+00   9.679380000000000e-02 -6.27142220e-01   2.18996300e-02  -2.90849550e-01
C     8.079022066219343e+00   6.011565004947732e+00   1.416540000000000e-02  1.61100683e+00   6.61670950e-01  -1.30489090e-01
C     8.451160632730161e+00   4.651352301786909e+00  -8.741219999999927e-02  6.02649790e-01  -5.01514700e-01   5.33257210e-01
C     9.819027353835066e+00   4.234905508458149e+00  -6.846750000000057e-02  1.25634900e-02  -7.02830850e-01   2.50726560e-01
C     1.018364925054920e+01   2.838436429015211e+00   6.126060000000000e-02 -1.74659977e+00   3.32879330e-01  -6.25735230e-01
C     4.393283781235382e+00   5.762098140689000e+00  -1.478459999999870e-02 -4.60633110e-01  -1.00316700e-02   1.50145350e-01
C     5.771999342575382e+00   5.373245410885390e+00  -1.040459999999754e-02 -1.54611771e+00  -1.74022640e-01   8.30713230e-01
C     6.101693530368658e+00   3.974391197468357e+00   4.444860000000000e-02 -1.16334946e+00   2.42725085e+00  -9.21835290e-01
C     7.453306677436498e+00   3.663956250994392e+00  -2.836740000000049e-02  1.49995200e-01  -1.64692085e+00  -6.41401600e-02
C     7.765764179975163e+00   2.272516057356655e+00  -2.825400000000045e-02  1.35250557e+00   2.46718700e-02   1.84146680e-01
C     9.128473333671963e+00   1.843261445568374e+00   4.557120000000000e-02  8.30366480e-01   8.88029300e-02   2.80867940e-01
C     3.362478515727618e+00   4.774964325324705e+00  -1.632419999999968e-02 -1.18971303e+00   1.30409681e+00  -7.81738900e-02
C     3.679656844896477e+00   3.409328728974745e+00   4.843080000000000e-02  1.02325290e-01   4.81944900e-01  -3.89112880e-01
C     5.041076262386001e+00   3.042297342673788e+00   4.646100000000000e-03  6.05701630e-01  -6.74719200e-01   3.33333730e-01
C     5.381526769628290e+00   1.675986338081196e+00  -2.568329999999719e-02 -1.35282250e-01  -3.34146690e-01   2.71914320e-01
C     6.755075698139910e+00   1.300948650926633e+00  -2.797799999999739e-02 -1.01871990e-01  -1.44013518e+00   1.80180820e-01
C     1.158011240900486e+01   7.603179884146478e+00   1.541580000000000e-02 -2.39070568e+00  -1.41797346e+00  -8.77420190e-01
C     2.645788083643806e+00   2.445497921918877e+00   8.454060000000001e-02 -3.37810840e-01  -4.43187260e-01   2.72061170e-01
C     2.950647149724407e+00   1.064606412002255e+00   1.545453000000000e-01  7.31471670e-01   2.14594600e-02  -3.75271100e-01
C     4.335744423634095e+00   7.208771103745214e-01   4.833840000000000e-02 -2.69491550e-01  -1.59537763e+00   7.01273800e-02
C     5.925325087242355e-01   4.378636615818361e-01   1.305135000000000e-01 -6.03496010e-01   1.27284840e+00  -3.96878900e-01
C     1.932399648275737e+00   5.216191327530850e-02   1.842894000000000e-01  1.21097750e+00   6.66818560e-01  -4.15316960e-01
C     4.429002627226021e-01   5.592548812421757e-01   3.408839400000000e+00 -7.58837100e-02  -1.85945405e+00   7.79239200e-02
C     7.272645618614950e+00   7.621686223933810e+00   3.375073500000000e+00 -2.32991140e-01  -6.93034060e-01  -5.58643370e-01
C     4.181900926018217e+00   2.932520219941915e-01   3.293148000000000e+00  1.61080000e-01   6.71126070e-01   6.61600850e-01
C     9.626535409388291e+00   6.997086153246542e+00   3.275025300000000e+00  6.59562120e-01   3.83919240e-01   3.37329370e-01
C     1.099154176327055e+01   7.384337530515909e+00   3.355348200000000e+00  1.14502366e+00   1.25841399e+00   2.17636180e-01
C     1.206877619930580e+01   6.467192788461206e+00   3.432908100000000e+00 -4.20029930e-01  -9.93573460e-01  -6.80406930e-01
C     4.559164802778245e+00   6.848506576824231e+00   3.432233700000000e+00 -8.57438470e-01   9.91302850e-01   2.90644040e-01
C     5.572332502770855e+00   5.874657483562915e+00   3.453919200000000e+00 -3.66613910e-01  -1.32354510e+00  -9.49223200e-02
C     6.918392625374163e+00   6.226069659783795e+00   3.332684400000000e+00  2.91743910e-01   1.18962902e+00   8.71453820e-01
C     7.912970801296931e+00   5.241292499641485e+00   3.354382200000000e+00  1.60028826e+00  -8.34206930e-01  -5.92621590e-01
C     9.292108750319912e+00   5.631539071936927e+00   3.287902800000000e+00 -5.94307000e-02   1.29845570e-01  -1.30261510e-01
C     1.035571596726322e+01   4.692957064685070e+00   3.261562800000000e+00 -9.24500880e-01  -9.63063100e-01   6.92714760e-01
C     1.172219261069401e+01   5.084223484184487e+00   3.356504400000000e+00  5.09248120e-01  -3.39665760e-01   5.82806390e-01
C     3.869197991659605e+00   4.102574060719967e+00   3.486962100000000e+00 -3.78973590e-01  -1.49054414e+00  -9.86867640e-01
C     5.254524657151513e+00   4.468534030184749e+00   3.523652400000000e+00 -1.20409893e+00   5.33144630e-01  -6.53961640e-01
C     6.245712714922994e+00   3.471001929698325e+00   3.421062600000000e+00  3.56593870e-01  -1.16648337e+00   3.95522630e-01
C     7.626740229963071e+00   3.836098454186941e+00   3.358432500000000e+00 -2.02574573e+00   1.60433857e+00   5.57686510e-01
C     8.624588051492577e+00   2.880362309085823e+00   3.407797800000000e+00  1.76297760e-01  -2.72414870e-01  -7.24534990e-01
C     9.962114086760806e+00   3.310834810859651e+00   3.333985800000000e+00  1.89298759e+00  -5.86528630e-01   1.17179610e-01
C     2.108176839966419e+00   2.319009390478670e+00   3.362066700000000e+00  1.28673474e+00  -4.97114800e-01  -4.30280700e-02
C     3.504423091639413e+00   2.685204886920369e+00   3.346225500000000e+00  2.14808600e-01   8.25413180e-01   1.07059143e+00
C     4.540642288489298e+00   1.671940661950227e+00   3.388673400000000e+00 -1.00102345e+00   6.05553430e-01  -4.26540160e-01
C     5.900674072379763e+00   2.054110583177389e+00   3.428925000000000e+00 -2.51200700e-02   1.45080562e+00  -1.80969310e-01
C     6.920032577461106e+00   1.077664073784349e+00   3.414192900000000e+00 -3.81549300e-01  -1.37606140e-01  -3.59712650e-01
C     8.277791158468744e+00   1.499427157405831e+00   3.384733200000000e+00  4.89462930e-01  -5.36172100e-02   5.62903010e-01
C     1.817541488053139e+00   9.059391227950270e-01   3.412933500000000e+00 -8.11455520e-01   1.54102376e+00  -2.68214780e-01
