52
Lattice="8.88768389401873 1.33226762955019e-15 0 4.44384194700937 7.69696003302603 0 0 0 30 " PBC="1 1 1" Properties=species:S:1:pos:R:3:force:R:3 Energy="-417.927628"
C     1.228625009184778e+01   6.526716613096410e+00  -1.168455000000002e-01  5.38160360e-01  -7.25592860e-01  -7.03493350e-01
C     8.559076846942979e+00   6.390839560720408e+00  -5.645489999999853e-02 -7.30616710e-01   5.41931640e-01  -4.70013470e-01
C     9.903596644556956e+00   5.981246217571960e+00  -1.543524000000005e-01  7.30951030e-01  -1.73120670e-01   2.73153170e-01
C     1.023480613802013e+01   4.590195259202940e+00  -2.170784999999995e-01  4.57368660e-01   1.14995654e+00   6.71344060e-01
C     6.166210606468723e+00   5.747080755913667e+00  -1.463025000000009e-01 -3.40707920e-01   1.18508809e+00   3.30420680e-01
C     7.529234873061153e+00   5.415282819906837e+00  -2.087159999999955e-02  7.78392680e-01  -1.43406302e+00  -7.17989210e-01
C     7.938392864882003e+00   4.035384987530088e+00  -8.064089999999879e-02 -4.36605493e+00  -8.88376310e-01  -4.18640330e-01
C     9.234760879846412e+00   3.635816934820715e+00  -1.109481000000017e-01  1.22555814e+00  -2.43879885e+00  -1.57208360e-01
C     9.603251274275541e+00   2.218737474596645e+00  -1.234350000000006e-01 -2.39286799e+00   5.31046000e-02  -9.06971200e-01
C     3.742618754050608e+00   5.152981813585281e+00  -2.633453999999986e-01  5.47503830e-01  -4.91879960e-01   2.87551080e-01
C     5.162111631219627e+00   4.770020490927835e+00  -3.014777999999971e-01 -1.69918553e+00  -7.98449910e-01   4.55564530e-01
C     5.496020092084473e+00   3.373397780162699e+00  -3.476096999999996e-01 -7.97557150e-01   4.04999660e-01  -3.04177340e-01
C     6.869985719649253e+00   2.989087796168796e+00  -2.640336000000012e-01 -4.35253350e-01   2.34333086e+00   7.82993970e-01
C     7.130935583436608e+00   1.638252530321323e+00  -2.121485999999990e-01  3.32367301e+00  -2.25272832e+00   1.33126960e-01
C     8.545052611651716e+00   1.197123664355560e+00  -1.382349000000005e-01 -6.98572980e-01   1.70700759e+00   1.84202450e-01
C     2.678297988162638e+00   4.177245733603011e+00  -2.863083000000017e-01  2.82852765e+00  -5.52692510e-01  -5.95938970e-01
C     3.067152421623211e+00   2.765130427750290e+00  -4.018239000000001e-01 -2.42533460e-01   2.14805332e+00   1.58618040e-01
C     4.418051221046099e+00   2.374197517528973e+00  -4.390221000000025e-01  2.02142951e+00   1.31634782e+00   7.42874940e-01
C     4.781875714787017e+00   1.016817603537592e+00  -2.944254000000015e-01  3.73474930e-01  -4.63452630e-01  -3.34792680e-01
C     6.177349492897822e+00   5.873185362987577e-01  -2.290016999999978e-01 -1.83898257e+00   2.75621117e+00   2.85106800e-02
C     1.096369491626243e+01   6.949623157099948e+00  -1.524023999999997e-01 -1.67022347e+00  -1.34119897e+00  -4.44507500e-02
C     2.039898008057149e+00   1.832721459412093e+00  -3.393380999999991e-01 -5.89182760e-01  -1.75974990e+00   1.17823632e+00
C     2.319315101341155e+00   4.268288378652262e-01  -2.116179000000002e-01  2.94595340e+00   9.19901560e-01  -3.47376720e-01
C     3.749379523008857e+00   7.293616233547910e-02  -2.041332000000011e-01 -1.15750456e+00  -1.12262823e+00   3.96595860e-01
C     4.383260296916863e+00   7.508082018735820e+00  -1.275906000000013e-01  2.60469280e+00   9.14191830e-01   1.75314190e-01
C     5.793038713413345e+00   7.142561930536753e+00  -1.178160000000013e-01 -1.41447329e+00  -1.03993779e+00  -2.95725810e-01
C     1.044362538617909e+00   1.147751360303925e+00   3.557442000000000e+00 -3.37365040e-01   5.86827190e-01   4.23780030e-01
C     3.443379366614034e+00   5.616180788801866e-01   3.466913100000000e+00 -8.90849560e-01  -3.91619830e-01   6.28047800e-02
C     4.799250825685587e+00   9.591769941129291e-01   3.467830800000000e+00 -4.86303900e-01  -3.80955910e-01   2.53161480e-01
C     1.022265689831244e+01   7.634873194644408e+00   3.543153600000000e+00  7.83316940e-01   1.34977170e-01  -1.42012320e-01
C     7.150611803720584e+00   2.712745071725310e-01   3.549867900000000e+00  7.19999960e-01   2.65819114e+00   1.08367530e+00
C     1.266529052381581e+01   7.040206986361810e+00   3.598466100000000e+00  3.20116480e-01   1.31224243e+00  -2.63922570e-01
C     5.127879518636227e+00   7.473594249929399e+00   3.595931700000000e+00  1.01726829e+00  -8.31435600e-01   1.26009280e-01
C     6.168018361820662e+00   6.437826268980346e+00   3.667140900000000e+00 -1.29911275e+00   2.82209315e+00  -8.42837350e-01
C     7.499193569246355e+00   6.862637117864907e+00   3.548177400000000e+00  1.78728313e+00   1.71506580e-01   9.55504190e-01
C     8.539716982551294e+00   5.886265499892960e+00   3.709214700000000e+00 -3.65597380e-01  -1.24440246e+00  -1.08642593e+00
C     9.908503623890191e+00   6.259456070579523e+00   3.644597700000000e+00 -1.32537630e-01   9.33892420e-01   1.58886000e-01
C     1.099782553221840e+01   5.358418217992400e+00   3.691281900000000e+00 -1.50879542e+00  -2.44353815e+00  -5.65737070e-01
C     3.482750520860075e+00   5.683951829139612e+00   3.590900400000000e+00 -2.21092309e+00   4.94422090e-01   4.01771210e-01
C     4.441321356465503e+00   4.703036926570757e+00   3.596111700000000e+00  1.52134703e+00  -5.30993080e-01  -1.83426610e-01
C     5.795768653074308e+00   5.106422902363812e+00   3.681650700000000e+00  6.31631880e-01  -1.70552693e+00   4.00522100e-02
C     6.809565378877831e+00   4.107326317781690e+00   3.731217000000000e+00  6.85475440e-01  -1.03733718e+00  -8.52478770e-01
C     8.188611918056058e+00   4.473025360301454e+00   3.698274600000000e+00  3.60262380e-01   1.15301940e+00   1.08521293e+00
C     9.246912254490020e+00   3.503340014537967e+00   3.742543500000000e+00 -4.30720500e-01   9.19677480e-01  -5.53412660e-01
C     1.062975539009513e+01   3.963201587885544e+00   3.679509300000000e+00 -4.82665530e-01  -9.86992650e-01  -4.54126910e-01
C     2.747712842724674e+00   2.967040392950063e+00   3.478016400000000e+00  6.98452600e-02  -6.59597740e-01   6.92187740e-01
C     4.120443349351604e+00   3.340640518879823e+00   3.472677000000000e+00 -6.98532060e-01  -3.36983330e-01   4.23271140e-01
C     5.121597033754941e+00   2.345043511114541e+00   3.517351800000000e+00  6.67412800e-02  -6.95470160e-01  -4.16470530e-01
C     6.474571818863954e+00   2.697789493539020e+00   3.622242300000000e+00  4.33646740e-01   1.03635588e+00   9.26742230e-01
C     7.476109362330871e+00   1.696606032183964e+00   3.732519600000000e+00  1.10855485e+00  -3.20351680e-01  -1.68243500e+00
C     8.861947247445681e+00   2.132681920859632e+00   3.682433700000000e+00  9.94390110e-01  -1.01896088e+00   9.20968200e-02
C     2.438454993443893e+00   1.557780659268472e+00   3.491793300000000e+00 -1.66201943e+00   3.46844140e-01  -2.08751020e-01
