52
Lattice="8.88768389401873 1.33226762955019e-15 0 4.44384194700937 7.69696003302603 0 0 0 30 " PBC="1 1 1" Properties=species:S:1:pos:R:3:force:R:3 Energy="-417.81338319"
C     1.226145345377379e+01   6.494556558942261e+00  -1.393358999999990e-01 -3.30981030e-01   2.18413310e+00  -6.29309000e-03
C     8.538807772796876e+00   6.359673030166933e+00  -1.750037999999989e-01  8.63654360e-01  -2.73284937e+00  -2.58064700e-02
C     9.901253495547939e+00   5.937748079476020e+00  -1.504493999999994e-01 -1.81853063e+00  -1.68617111e+00   4.66962600e-02
C     1.021324261714681e+01   4.548166547746328e+00  -1.601445000000012e-01 -7.48345060e-01  -6.04700830e-01  -2.78933270e-01
C     6.133907386150657e+00   5.726988226603353e+00  -1.181681999999995e-01 -8.75824800e-02   4.67557630e-01   1.51292580e-01
C     7.575575656772286e+00   5.358169760122631e+00  -1.354593000000008e-01 -4.03418284e+00  -1.74455868e+00  -2.20468560e-01
C     7.828055468878791e+00   3.919833143566108e+00  -1.997813999999991e-01  1.38091762e+00   2.18840735e+00   3.79389730e-01
C     9.213205402285745e+00   3.530255437097274e+00  -2.058657000000004e-01 -9.43373040e-01   2.25140560e-01   4.14039800e-01
C     9.531931877093150e+00   2.136520394826593e+00  -1.685084999999980e-01  1.05654456e+00   2.24556856e+00  -8.68640440e-01
C     3.676604770939957e+00   5.148419055679497e+00  -2.496866999999980e-01  8.24581600e-01  -7.45108280e-01   9.78920850e-01
C     5.030544002596789e+00   4.778413794931749e+00  -1.685651999999997e-01  2.64172490e+00  -1.38057969e+00  -2.59192700e-02
C     5.398365021109253e+00   3.354422849448742e+00  -1.586015999999972e-01  1.03409404e+00   1.94003954e+00  -1.13557276e+00
C     6.787129353380878e+00   2.993641548631345e+00  -2.072615999999989e-01 -1.73219210e-01  -2.07822399e+00   6.81988010e-01
C     7.159044083530453e+00   1.568047865161290e+00  -1.562483999999991e-01 -2.51711039e+00   1.22286912e+00  -5.91174090e-01
C     8.507619420219497e+00   1.218829784366563e+00  -1.763939999999984e-01 -4.28246860e-01  -2.83944128e+00   7.87525500e-01
C     2.661454805086511e+00   4.145027721339837e+00  -2.256396000000009e-01  7.49323980e-01   3.87408510e-01  -5.91939530e-01
C     3.005035910109417e+00   2.789806034940867e+00  -3.662198999999973e-01  1.57493720e+00  -1.32447591e+00   4.82717170e-01
C     4.433474241104150e+00   2.392111653211596e+00  -3.659660999999979e-01 -2.55538644e+00  -1.67244704e+00   6.43123590e-01
C     4.762303435040130e+00   9.583117788359569e-01  -3.305660999999986e-01 -1.38764263e+00   1.99643191e+00  -1.45708200e-02
C     6.072812510538974e+00   5.776986447444630e-01  -1.882077000000031e-01  3.19716421e+00  -9.92215800e-02   1.57020030e-01
C     1.087155465310347e+01   6.872947349764293e+00  -1.203095999999988e-01  2.44424521e+00   2.55858654e+00  -3.75711110e-01
C     2.005727352012089e+00   1.771917014567099e+00  -2.984591999999999e-01  8.05387580e-01  -3.78001210e-01   6.60748310e-01
C     2.370358758557042e+00   3.893882073128961e-01  -1.908584999999974e-01  2.69292220e-01   5.46062040e-01  -7.52023310e-01
C     8.188536152622152e+00   7.661500212111390e+00  -3.052278000000008e-01 -1.36178733e+00   3.18845223e+00   6.40729260e-01
C     4.413929072156098e+00   7.510531884143769e+00  -1.056230999999990e-01 -1.14705992e+00  -1.46618030e-01  -1.95473900e-01
C     5.772495276484036e+00   7.139838438199739e+00  -7.958849999999984e-02  6.78680770e-01  -1.70791496e+00  -4.99507000e-01
C     1.068423676390017e+00   1.146713117365478e+00   3.639573600000000e+00 -4.60587080e-01   4.39246870e-01   6.67365000e-03
C     3.481504819768601e+00   5.770944333821079e-01   3.574519500000000e+00 -2.55868080e-01   1.22929400e-01   2.57368920e-01
C     4.849873784447495e+00   1.018647478815124e+00   3.480248100000000e+00 -8.78400670e-01  -6.60404150e-01   8.15273150e-01
C     5.845953490105208e+00   3.310693417703900e-03   3.519085800000000e+00 -5.42219440e-01  -2.20860230e-01  -3.84031480e-01
C     7.187825113919190e+00   3.508973265644724e-01   3.518185200000000e+00  1.37485480e+00   1.55492580e+00   6.02075400e-01
C     1.267280950440875e+01   7.074074380189814e+00   3.632812200000000e+00 -3.56032170e-01   7.48808930e-01  -1.05300606e+00
C     5.136620066901092e+00   7.445366495684978e+00   3.626268000000000e+00  4.54903230e-01   2.43873131e+00   5.99972500e-02
C     6.142181953676912e+00   6.511164597477393e+00   3.604019400000000e+00  2.46083965e+00  -1.76509193e+00   3.72800970e-01
C     7.572810610422267e+00   6.874468269066221e+00   3.637943100000000e+00 -1.37012798e+00   1.52665452e+00   3.19828950e-01
C     8.604783494153319e+00   5.940806543513541e+00   3.795285600000000e+00 -1.03321460e-01  -1.28759293e+00  -2.05081654e+00
C     9.962789063866733e+00   6.317114767860255e+00   3.570016500000000e+00 -5.78612990e-01   5.62845070e-01   6.01843420e-01
C     1.099236840543413e+01   5.359997018433753e+00   3.494366100000000e+00 -9.97672600e-02  -1.18392730e+00   1.03783939e+00
C     3.468182851535876e+00   5.721884526346662e+00   3.535932900000000e+00 -2.81988080e-01  -7.73090960e-01   2.31789170e-01
C     4.468585882145288e+00   4.706930279862732e+00   3.591405300000000e+00 -7.14724430e-01   8.27374290e-01  -8.02779870e-01
C     5.806682506698817e+00   5.105941149635534e+00   3.594348300000000e+00  6.35499950e-01   1.73094923e+00   3.51565990e-01
C     6.839264907799407e+00   4.185152897611431e+00   3.634309500000000e+00  2.65527468e+00  -1.69986034e+00  -1.57922570e-01
C     8.257987445453328e+00   4.550440383678391e+00   3.702204600000000e+00 -9.83280680e-01   5.28319780e-01   7.16753730e-01
C     9.293376888173395e+00   3.595906426764358e+00   3.735221400000000e+00 -2.13262290e-01  -2.56696701e+00  -1.26989448e+00
C     1.068191360734034e+01   3.973636125689414e+00   3.646357800000000e+00 -1.01262222e+00  -6.45712510e-01  -4.98734110e-01
C     2.806901973363022e+00   2.951327664805620e+00   3.577077900000000e+00 -2.46869037e+00  -5.04569400e-01   5.71441500e-01
C     4.125790535487234e+00   3.340718104236926e+00   3.512853600000000e+00  1.01227576e+00   8.29162600e-01   5.70343420e-01
C     5.165539076104868e+00   2.414599399513646e+00   3.540635700000000e+00  7.24623630e-01  -1.88115398e+00  -6.64977090e-01
C     6.538108582340738e+00   2.792212027676645e+00   3.558147300000000e+00 -5.13578650e-01  -2.93973970e-01   2.24534560e-01
C     7.519306705641476e+00   1.756649863438793e+00   3.564473100000000e+00  1.76771239e+00   3.22960030e-01  -3.67802350e-01
C     8.927624209583811e+00   2.138153843684159e+00   3.579309000000000e+00 -1.50359260e-01   1.40352821e+00   1.19308546e+00
C     2.444198703591588e+00   1.550641190053445e+00   3.681540900000000e+00 -6.27560000e-02   4.26732880e-01  -1.20621060e+00
