32
Lattice="9.86 0 0 4.93 8.53901048131456 0 0 0 30 " PBC="1 1 1" Properties=species:S:1:pos:R:3:force:R:3 Energy="-257.62138563"
C     9.833745334300000e+00   3.513162386734000e-02   3.642093900000000e+00  1.48709120e+00   5.21121280e-01  -1.52171900e-01
C     1.243650871200000e+00   7.537727818917296e-01   3.615077400000000e+00 -1.80733780e+00  -8.21986500e-02   1.56842280e-01
C     2.455159917200000e+00   3.852357500031040e-02   3.657040800000000e+00  8.67233700e-02   1.20457516e+00  -1.39986220e-01
C     3.673996570100000e+00   7.947686565963145e-01   3.656853900000000e+00  2.30734800e-02  -2.04373780e+00   2.47089900e-01
C     4.885290175100000e+00   4.882751355642160e-02   3.714677100000000e+00  1.14140072e+00   2.28389910e-01  -5.33056200e-01
C     6.135997404599999e+00   7.421684374296191e-01   3.654960900000000e+00  5.19949160e-01   4.19602330e-01   6.13931090e-01
C     7.395331049499999e+00   6.797983094222321e-02   3.688410300000000e+00 -1.16403929e+00  -5.73168170e-01  -1.43623290e-01
C     8.620767296199999e+00   7.756768807948160e-01   3.656529900000000e+00 -1.14318290e-01  -8.26831170e-01  -3.00888680e-01
C     1.108031358230000e+01   2.179531959468063e+00   3.616093500000000e+00 -1.47856900e-02   3.67304300e-01   2.04867520e-01
C     2.449633091400000e+00   2.909390303219400e+00   3.670338000000000e+00 -6.68580000e-03  -5.26327720e-01  -2.91911820e-01
C     3.682416566400000e+00   2.185945012508858e+00   3.654142800000000e+00  5.38018100e-02   9.54332920e-01   2.49514880e-01
C     4.930589381500000e+00   2.878539285305684e+00   3.691262400000000e+00 -4.19587320e-01   3.00151460e-01  -3.86773900e-01
C     6.164079079000000e+00   2.163666563386328e+00   3.677120700000000e+00 -7.27090330e-01   5.98760900e-01  -9.25660900e-02
C     7.372771221600000e+00   2.906167509884038e+00   3.667833300000000e+00  5.41373180e-01   2.01228430e-01  -6.07766580e-01
C     8.611689983000000e+00   2.180926123709133e+00   3.595080300000000e+00 -2.40891400e-01   1.08650492e+00   7.00157780e-01
C     9.833720536400000e+00   2.898797489938750e+00   3.629223900000000e+00  6.79013720e-01  -4.88989890e-01  -1.36441780e-01
C     1.230805056140000e+01   4.327152782871319e+00   3.697225800000000e+00  5.95276010e-01  -5.06807420e-01  -2.98631000e-02
C     3.693156127700000e+00   5.031711575592301e+00   3.724198500000000e+00 -9.36131860e-01   5.60654990e-01  -3.05730400e-01
C     4.907801935499999e+00   4.303048949478478e+00   3.664861800000000e+00  4.06591840e-01   4.51970010e-01   7.40828140e-01
C     6.130139677200000e+00   5.044889915856190e+00   3.712580100000000e+00  5.00490420e-01  -1.02180534e+00  -7.10854490e-01
C     7.370069483000000e+00   4.358903897879731e+00   3.634971000000000e+00  5.82362490e-01  -1.54917414e+00   8.88519670e-01
C     8.633397019499998e+00   5.038505041549980e+00   3.692283900000000e+00 -1.20791303e+00   3.17282440e-01  -4.42733060e-01
C     9.849186538000000e+00   4.317721275015948e+00   3.685753500000000e+00 -1.98423190e-01  -3.48868990e-01  -2.87939540e-01
C     1.107809572320000e+01   5.003055766492785e+00   3.678012600000000e+00  3.00190220e-01   1.88626964e+00   5.54642250e-01
C     1.352490841090000e+01   6.482570235183442e+00   3.723254400000000e+00  1.04118282e+00  -1.76267634e+00  -2.84510440e-01
C     4.922471150500000e+00   7.143904813024980e+00   3.651799800000000e+00 -1.00212859e+00   1.22078673e+00   5.13283120e-01
C     6.142697225299999e+00   6.438479566910591e+00   3.689766000000000e+00  2.62775450e-01   1.24055830e+00  -6.81452600e-02
C     7.373118145699999e+00   7.181585075350286e+00   3.684277200000000e+00  5.27368710e-01  -1.52957850e+00  -1.49570240e-01
C     8.620972827899999e+00   6.463655643849404e+00   3.675579300000000e+00 -2.98881200e-01  -2.26822570e-01   4.24754680e-01
C     9.850344348499998e+00   7.162089148182768e+00   3.715064700000000e+00  1.82757900e-02   2.41050050e-01   2.71971700e-02
C     1.110099458720000e+01   6.454411054933442e+00   3.736812000000000e+00 -1.54131002e+00  -5.69033190e-01  -3.87383270e-01
C     1.229848256530000e+01   7.180076915319308e+00   3.718980000000000e+00  9.12583420e-01   2.55476110e-01   1.30287780e-01
