32
Lattice="9.86 0 0 4.93 8.53901048131456 0 0 0 30 " PBC="1 1 1" Properties=species:S:1:pos:R:3:force:R:3 Energy="-257.65722533"
C     9.844647339100000e+00   2.590061197804080e-02   3.574822200000000e+00  4.73602260e-01  -4.59317600e-01   1.60038500e-02
C     1.235189117800000e+00   7.230740145348720e-01   3.621052200000000e+00  7.83246200e-02   2.93720960e-01  -9.17124000e-02
C     2.484631358599999e+00   1.095111016039040e-02   3.511462200000000e+00 -1.22814859e+00   6.63663550e-01   1.87599690e-01
C     3.685795637700000e+00   7.653092412205240e-01   3.509389500000000e+00 -1.62675000e-03  -4.22738080e-01   1.22092780e-01
C     4.901983697400000e+00   5.378005424471680e-02   3.462218100000000e+00  1.23130340e+00  -1.19185243e+00   8.52297500e-02
C     6.168108220099999e+00   7.255012282638120e-01   3.472841700000000e+00 -1.29510833e+00   1.08074251e+00   4.67884850e-01
C     7.386456014199999e+00   3.666873114384480e-02   3.518928000000000e+00 -3.94834600e-01  -1.48138575e+00   3.05631290e-01
C     8.596455888600000e+00   7.228834238209584e-01   3.605850900000000e+00  1.48335176e+00   7.67502240e-01  -2.96867820e-01
C     1.109924428930000e+01   2.156014841485305e+00   3.724266000000000e+00 -8.64034440e-01  -5.29622020e-01  -1.94017990e-01
C     2.451292825199999e+00   2.887060790814200e+00   3.699177000000000e+00  1.91060720e-01  -1.83546340e-01  -3.16081270e-01
C     3.678142404300000e+00   2.177997499284807e+00   3.594344400000000e+00  7.09157950e-01   3.35299870e-01   1.07457710e-01
C     4.939627008200000e+00   2.881507018398008e+00   3.564933300000000e+00 -7.54222960e-01  -4.98422980e-01  -2.87957760e-01
C     6.163178318700000e+00   2.161180772045495e+00   3.538761600000000e+00  3.06782000e-03  -6.40307860e-01  -4.13116550e-01
C     7.392412243000000e+00   2.855998773951523e+00   3.530402400000000e+00 -2.10658600e-02   9.64942240e-01   2.60744000e-02
C     8.627864031200000e+00   2.153116786718498e+00   3.614851500000000e+00 -8.70457920e-01  -5.44431950e-01   1.39105400e-01
C     9.838025018000000e+00   2.849151683008031e+00   3.718135800000000e+00  1.32784903e+00   3.14011650e-01  -2.22424480e-01
C     1.229530705370000e+01   4.305014629690976e+00   3.649885200000000e+00  6.22292120e-01   2.33569920e-01   3.02466100e-02
C     3.686248606100000e+00   5.014254593347199e+00   3.569659500000000e+00  1.18844800e-02  -6.20884830e-01  -1.14587230e-01
C     4.935680888299999e+00   4.288256480063556e+00   3.503013900000000e+00 -4.96306800e-01   1.13209722e+00   2.23912480e-01
C     6.166288655700000e+00   5.026905649713948e+00   3.422174100000000e+00 -2.73761960e-01  -1.72318456e+00   2.62312400e-01
C     7.383076992199999e+00   4.293342912436177e+00   3.451783200000000e+00  7.09972180e-01  -5.00324370e-01   3.44558880e-01
C     8.637192330700000e+00   4.979368636811369e+00   3.498893700000000e+00 -8.37159390e-01   2.99371050e-01   6.09620300e-02
C     9.853786770299999e+00   4.274249941173212e+00   3.670902000000000e+00 -7.97232710e-01  -1.57785180e-01  -6.12218970e-01
C     1.105000507620000e+01   4.999609421863056e+00   3.616083000000000e+00  1.44858645e+00   3.14783230e-01   3.33874350e-01
C     1.355023806070000e+01   6.434373839891597e+00   3.542686500000000e+00  2.53692610e-01  -7.02251100e-02  -4.00569800e-02
C     4.937836974500000e+00   7.136683371862044e+00   3.477552900000000e+00 -4.61473900e-01   1.97760490e-01   4.88442850e-01
C     6.174023382000000e+00   6.416849143293389e+00   3.445684200000000e+00 -5.66138760e-01   1.46975316e+00  -1.88813700e-01
C     7.398894108400000e+00   7.136758258983954e+00   3.444485400000000e+00  4.37944230e-01  -5.41864420e-01  -1.74149090e-01
C     8.626137643800000e+00   6.400993737853915e+00   3.424738500000000e+00  2.67832270e-01   7.46489880e-01   4.58189230e-01
C     9.846248356600000e+00   7.144969713021941e+00   3.482762700000000e+00 -4.41526100e-02   1.92771140e-01  -2.42223130e-01
C     1.108280929620000e+01   6.424767196931283e+00   3.545138400000000e+00 -5.37095720e-01   3.87370060e-01   1.36150080e-01
C     1.231242435880000e+01   7.138532153021069e+00   3.577689300000000e+00  1.92899400e-01   1.72044300e-01  -6.01501250e-01
