32
Lattice="9.86 0 0 4.93 8.53901048131456 0 0 0 30 " PBC="1 1 1" Properties=species:S:1:pos:R:3:force:R:3 Energy="-257.48520964"
C     9.824832091499999e+00   6.896758097949720e-01   3.528708300000000e+00 -1.20603392e+00  -3.38647570e-01  -4.64244630e-01
C     1.173677458500000e+00   1.395873665577591e+00   3.481776600000000e+00  1.61722610e+00  -2.08006320e-01   2.52321720e-01
C     2.425594707200000e+00   6.795187422191168e-01   3.428195700000000e+00  2.11201210e-01  -8.56263300e-02  -1.94619760e-01
C     3.672459297500000e+00   1.383158566632242e+00   3.408099600000000e+00 -8.72143750e-01   9.01615030e-01   1.27552780e-01
C     4.905462453300000e+00   6.961881715276488e-01   3.413079600000000e+00 -8.21913040e-01  -7.09640220e-01   3.21179400e-02
C     6.119771295600001e+00   1.421498979857757e+00   3.423258300000000e+00 -5.01292330e-01  -7.12189280e-01   2.37522590e-01
C     7.325485225200000e+00   7.018007777260480e-01   3.458872200000000e+00  1.32228642e+00  -1.42225423e+00   1.28916900e-02
C     8.564377857599998e+00   1.365589125619118e+00   3.517752900000000e+00  5.99634770e-01   1.85154452e+00  -2.90070960e-01
C     1.105937818940000e+01   2.810382696846525e+00   3.539768100000000e+00 -3.48736590e-01  -2.19167510e-01   1.30016370e-01
C     2.421227417400000e+00   3.532197719676226e+00   3.536949600000000e+00  1.53856270e-01  -1.03027740e-01  -7.01524630e-01
C     3.652512369600000e+00   2.816304671394615e+00   3.429663900000000e+00  4.59149610e-01   2.61735070e-01   5.27972710e-01
C     4.895157767299999e+00   3.543142767139175e+00   3.451151100000000e+00 -1.01508065e+00   2.59411190e-01  -3.71349890e-01
C     6.109217200900000e+00   2.826326822604886e+00   3.458251200000000e+00  2.37100460e-01   3.27023860e-01  -1.22223810e-01
C     7.342032375800001e+00   3.522243795159690e+00   3.484594200000000e+00  5.00020300e-01  -2.57422820e-01  -4.51479220e-01
C     8.568378355399998e+00   2.816723253688344e+00   3.477089100000000e+00  5.19382760e-01  -1.52425465e+00   9.06241650e-01
C     9.819191826399999e+00   3.485977934530291e+00   3.578369100000000e+00 -4.88252380e-01   1.57542352e+00  -5.89368860e-01
C     1.226193839800000e+01   4.954911800725286e+00   3.489735600000000e+00  3.95183920e-01   6.66040150e-01   7.57216500e-02
C     3.636986468500000e+00   5.688631826576098e+00   3.455463600000000e+00  7.13799850e-01  -1.68047287e+00  -1.47582160e-01
C     4.882194677399999e+00   4.979849639271707e+00   3.409751700000000e+00  5.54847920e-01  -4.40074890e-01   5.63999390e-01
C     6.147672827799999e+00   5.680074628003775e+00   3.419976600000000e+00 -9.45854930e-01  -8.19281060e-01  -5.44307070e-01
C     7.379503038000001e+00   4.917566267610797e+00   3.423921600000000e+00 -1.48831109e+00   1.92683304e+00   5.50064090e-01
C     8.577278385800000e+00   5.662559409707200e+00   3.484053300000000e+00  8.68962130e-01  -1.58583727e+00  -4.14867390e-01
C     9.808918988199999e+00   4.924530342997866e+00   3.549972000000000e+00  1.99494140e-01   7.34447940e-01  -2.87368470e-01
C     1.103060084270000e+01   5.678829042545058e+00   3.476972700000000e+00 -1.65454470e-01  -9.07749580e-01   6.43021220e-01
C     1.354779016780000e+01   7.076867688839748e+00   3.468933000000000e+00 -1.52007318e+00   1.79681340e+00  -2.04889330e-01
C     4.895451348800000e+00   7.816867388387657e+00   3.457268700000000e+00  6.59276890e-01  -7.86687880e-01  -6.19221600e-02
C     6.125520563000000e+00   7.100851207574925e+00   3.371270100000000e+00  6.62618070e-01  -1.34751010e-01   5.87122060e-01
C     7.381392707000000e+00   7.790517197507845e+00   3.381071100000000e+00 -1.63028976e+00   5.94968250e-01  -1.00157880e-01
C     8.576142661700001e+00   7.061108518048385e+00   3.384809100000000e+00  7.16854500e-01   1.03145808e+00   6.53689620e-01
C     9.795115924899999e+00   7.799786720334409e+00   3.455481900000000e+00  5.87439800e-01   4.05395590e-01  -4.15039540e-01
C     1.101787744940000e+01   7.104891696553851e+00   3.482747700000000e+00  1.87042544e+00  -3.40763490e-01  -3.85787500e-01
C     1.230912224480000e+01   7.804123427586886e+00   3.446385300000000e+00 -1.84532446e+00  -5.68549000e-02   4.46547780e-01
