32
Lattice="9.86 0 0 4.93 8.53901048131456 0 0 0 30 " PBC="1 1 1" Properties=species:S:1:pos:R:3:force:R:3 Energy="-256.93276221"
C     5.033842709900000e+00   6.783314867409881e+00  -2.640677999999994e-01 -2.67112550e-01  -1.13746655e+00  -2.10013420e-01
C     6.263093692000000e+00   7.465372172054597e+00  -2.318618999999984e-01  9.55000330e-01  -7.88073290e-01   4.60540150e-01
C     7.478028151300000e+00   6.713154600141590e+00  -1.337418000000028e-01  1.37224875e+00   2.60868230e-01  -2.01265220e-01
C     8.730471332400001e+00   7.427618815799582e+00  -1.984542000000005e-01  1.34763330e-01   9.45970290e-01  -4.44353020e-01
C     9.994990449900000e+00   6.760973741950428e+00  -3.731375999999997e-01 -2.68492234e+00  -2.03111325e+00   6.18812340e-01
C     1.118026149360000e+01   7.442776071742212e+00  -4.509408000000015e-01  1.41676612e+00   2.51182520e-01   3.10983550e-01
C     1.241032277050000e+01   6.706688349065505e+00  -4.975512000000002e-01  1.60997893e+00   2.29690571e+00  -2.66411080e-01
C     1.366893239560000e+01   7.452564681015854e+00  -4.507875000000006e-01 -9.02466730e-01  -3.47944460e-01   3.15291920e-01
C     1.374762298500000e+00   3.258215712535784e-01  -2.906511000000016e-01 -1.82107389e+00   4.34041650e-01  -1.25874570e-01
C     2.562296015000000e+00   1.048477088884826e+00  -2.746422000000024e-01  1.66402399e+00  -4.11418000e-02   2.12459670e-01
C     3.814464447200000e+00   3.368366386024640e-01  -2.050808999999987e-01 -4.61806260e-01  -4.45814340e-01   8.97489500e-02
C     5.053327548900000e+00   1.057253227685855e+00  -1.543712999999975e-01 -1.09346926e+00  -7.00246200e-01  -2.37382790e-01
C     6.262011655600000e+00   3.121322566025664e-01  -2.932140000000025e-01 -7.63953800e-02   7.04914220e-01  -6.69827700e-02
C     7.477467265200000e+00   1.012905449807451e+00  -3.253500000000003e-01  1.84615490e+00   8.75245500e-01  -1.01017840e-01
C     8.755503160900000e+00   3.274463741677128e-01  -4.365404999999996e-01 -2.04614869e+00  -6.33557760e-01   5.73397300e-01
C     9.960854784800000e+00   1.009315820581869e+00  -3.375224999999986e-01  1.05334014e+00   1.11804638e+00  -5.62854260e-01
C     2.577536173300000e+00   2.468413685995057e+00  -3.475187999999996e-01 -6.73389950e-01   7.76524900e-02  -8.80402500e-02
C     3.783469290700000e+00   3.178451193230113e+00  -2.828210999999996e-01  1.44926556e+00   7.32481770e-01   3.57836290e-01
C     5.002309739699999e+00   2.482936151898603e+00  -8.299350000000061e-02  1.51614260e+00  -7.30591460e-01  -9.48494910e-01
C     6.267089506300000e+00   3.161583231927921e+00  -1.097123999999994e-01 -5.54919150e-01   9.12651050e-01   4.52831520e-01
C     7.511421062599999e+00   2.440877682729886e+00  -2.088393000000011e-01 -1.22842151e+00   5.79609440e-01  -7.05033900e-02
C     8.728259290699999e+00   3.188763414626390e+00  -2.845584000000017e-01  3.36988260e-01  -1.58840917e+00   2.04716220e-01
C     9.924878257699998e+00   2.427679873522103e+00  -3.807848999999983e-01  2.45032760e+00   1.73327343e+00   2.12937880e-01
C     1.122752993920000e+01   3.188692967789930e+00  -4.293966000000005e-01 -2.46648865e+00  -9.61135880e-01   1.15862860e-01
C     3.860164462600000e+00   4.604903909237632e+00  -3.842718000000005e-01 -1.67711871e+00   5.79361390e-01   4.08609570e-01
C     5.044769709800000e+00   5.359382696515848e+00  -1.624203000000009e-01  1.75139170e-01  -1.02963982e+00  -6.20724350e-01
C     6.252333276800000e+00   4.614437372878133e+00  -4.877460000000156e-02  1.52952206e+00  -9.27292510e-01  -3.73489510e-01
C     7.531607243400000e+00   5.278943339211943e+00  -7.666890000000137e-02 -1.45601738e+00   1.18691785e+00  -1.95764030e-01
C     8.768742232199999e+00   4.598078336600548e+00  -1.986231000000025e-01 -8.83434990e-01  -7.02381800e-02  -2.91589090e-01
C     9.973451772899999e+00   5.306594960679012e+00  -3.696189000000025e-01  5.84319720e-01   1.09017872e+00  -5.32897200e-02
C     1.119369155310000e+01   4.610333439051340e+00  -4.830308999999993e-01  1.63989891e+00  -3.86487010e-01  -8.74664400e-02
C     1.248018560330000e+01   5.330692902154619e+00  -5.410578000000008e-01 -1.44069494e+00  -1.96014896e+00   6.11488440e-01
