32
Lattice="9.86 0 0 4.93 8.53901048131456 0 0 0 30 " PBC="1 1 1" Properties=species:S:1:pos:R:3:force:R:3 Energy="-254.22267291"
C     5.080609873099999e+00   8.062707634859478e+00  -2.241683999999999e-01  1.80190360e+00  -4.08192610e-01   1.48737512e+00
C     1.407940656200000e+00   2.770142097618896e-01  -8.417310000000100e-02 -1.30382735e+00  -1.04489108e+00  -2.38751438e+00
C     7.532844180400000e+00   8.098471145502337e+00  -3.256905000000003e-01 -4.14970270e-01  -1.01576175e+00   2.52465547e+00
C     3.844200826800000e+00   2.391413073601552e-01  -1.998426000000002e-01  7.14977600e-01  -2.44270284e+00   5.36934000e-01
C     1.002043043310000e+01   8.023368242797908e+00  -4.189859999999967e-02 -3.09074505e+00   2.01047816e+00  -1.67912757e+00
C     6.239662338700000e+00   1.458752462439272e-01  -2.007678000000013e-01  5.96864749e+00   3.36396403e+00  -3.93339690e-01
C     1.254690876560000e+01   7.952301218006745e+00  -2.076537000000016e-01 -3.39296917e+00   4.13694153e+00   1.18098089e+00
C     8.816251952000000e+00   1.659158768899632e-01  -1.647614999999973e-01 -1.23865242e+00   3.56002898e+00  -9.94146560e-01
C     1.405520519200000e+00   1.698460760095299e+00  -3.869699999999909e-02 -1.55660481e+00  -1.20729240e+00   7.63735220e-01
C     2.614194667300000e+00   2.307069766096295e+00   2.120094000000000e-01  1.32869065e+00   2.00339287e+00  -1.70361077e+00
C     3.904321585200000e+00   1.587132044720622e+00  -3.515100000001325e-03 -3.15233233e+00   2.74526260e+00   5.23022820e-01
C     5.071373074400000e+00   2.331622751440383e+00  -4.800029999999822e-02  1.72034869e+00   2.06778519e+00  -7.94767400e-02
C     6.291546693999999e+00   1.655277105515634e+00  -2.707155000000014e-01  1.42251406e+00  -1.97860106e+00   1.43904671e+00
C     7.597387888300000e+00   2.353461014572668e+00  -1.324842000000004e-01 -2.22888404e+00  -1.27480160e-01  -6.56685780e-01
C     8.825965284500001e+00   1.674603362544913e+00  -1.555533000000011e-01 -8.89403840e-01  -1.85042812e+00  -1.46680170e-01
C     1.001526024350000e+01   2.435713033021268e+00  -8.292210000000111e-02  6.85518530e-01  -1.82506208e+00   9.87025800e-01
C     2.535863179100000e+00   3.748799369583268e+00   2.269284000000000e-01  3.27535350e+00   1.53209285e+00   8.95529130e-01
C     3.858986587000000e+00   4.488250096147418e+00   2.399394000000000e-01 -1.14835210e+00  -7.66228790e-01   4.93356500e-02
C     5.100798321699999e+00   3.819504767280602e+00   8.334960000000000e-02 -8.26366110e-01  -3.21072308e+00  -1.96484220e-01
C     6.361586365899999e+00   4.445828206692673e+00  -9.968700000001718e-03 -2.99956780e+00   3.17399956e+00   4.47301810e-01
C     7.563576666499999e+00   3.793949558276478e+00  -5.128170000000054e-02  8.53405330e-01  -2.44891313e+00  -2.46773900e-02
C     8.770607399099999e+00   4.492177272457273e+00   2.175300000000000e-02 -1.39679996e+00   2.62294564e+00  -7.45051620e-01
C     9.971690875500000e+00   3.822136319530329e+00   1.244484000000000e-01  1.68357758e+00  -6.86522000e-03  -4.11876490e-01
C     1.120371818710000e+01   4.546692023163691e+00   2.553219000000000e-01 -4.77236390e-01  -1.19974191e+00  -9.71696730e-01
C     3.863046737800000e+00   5.899306378528763e+00   2.581032000000000e-01 -1.66173538e+00   1.32105980e+00  -1.47875016e+00
C     5.015275491799999e+00   6.650207832756488e+00  -7.433220000000063e-02  2.35759907e+00  -1.91868580e+00   1.11096923e+00
C     6.260273041800000e+00   5.906277797464845e+00  -1.812900000000184e-02  3.00366540e-01   1.34088890e-01  -8.25672320e-01
C     7.460315499400000e+00   6.634716359943672e+00  -1.400153999999993e-01  1.18996718e+00   8.88443840e-01  -1.21125499e+00
C     8.683923258400000e+00   5.935347321622118e+00  -1.542576000000011e-01  2.57199483e+00  -2.42307420e-01   1.72087126e+00
C     9.989298715599999e+00   6.671467748708963e+00  -2.974680000000163e-02 -3.38870854e+00  -3.16977002e+00  -3.51445950e-01
C     1.114208608790000e+01   5.967495586007955e+00   1.124463000000000e-01  4.66468758e+00  -1.08269815e+00   1.13614884e+00
C     1.248710066780000e+01   6.657811650808719e+00   1.618086000000000e-01 -1.37239670e+00  -3.61413832e+00  -5.45440410e-01
