32
Lattice="9.86 0 0 4.93 8.53901048131456 0 0 0 30 " PBC="1 1 1" Properties=species:S:1:pos:R:3:force:R:3 Energy="-247.58741547"
C     4.912205608700000e+00   8.397911785438374e+00  -2.329740000000058e-02  1.42059845e+00  -2.19615890e-01  -1.66565574e+00
C     1.252871253000000e+00   6.475153848411248e-01  -1.506411000000014e-01 -5.64947440e-01  -4.37158138e+00   2.20576338e+00
C     7.303762511300000e+00   8.310557537447766e+00   5.774849999999999e-02  4.92050694e+00   4.47492110e+00  -2.34341810e+00
C     3.778117874300000e+00   5.419850845328921e-01  -1.906688999999986e-01 -2.07440174e+00  -1.21030576e+00  -1.61937050e-01
C     9.970798496200000e+00   8.306212974305646e+00  -3.760271999999993e-01 -3.56103243e+00   6.78305126e+00   8.90554000e-01
C     6.215149294100000e+00   6.416370446365880e-01  -4.115595000000027e-01 -3.02543200e-01  -4.55763463e+00   3.63994970e-01
C     1.231540055050000e+01   8.402649740793308e+00  -4.554971999999999e-01  2.13312821e+00  -2.21380731e+00  -1.72651805e+00
C     8.612421496400000e+00   4.710109641757520e-01  -2.129814000000003e-01  1.78124670e-01   3.64696200e+00   9.40525790e-01
C     1.335586546500000e+00   2.022732330166548e+00  -3.828059999999986e-01 -3.75060990e-01   1.36340555e+00  -2.38181473e+00
C     2.534142313300000e+00   2.734790338061382e+00  -8.879465999999994e-01  5.06642650e-01  -4.97252556e+00   2.90028882e+00
C     3.764324769600000e+00   1.930423321344918e+00  -5.378141999999997e-01  9.36820940e-01   2.24163005e+00  -7.53512970e-01
C     5.031529553900000e+00   2.727095494157434e+00  -5.630136000000014e-01 -2.71847581e+00  -2.55223900e-01   6.23721770e-01
C     6.213519091000000e+00   2.009519492300320e+00  -1.783886999999993e-01 -3.33521170e-01   2.08135588e+00  -1.01225301e+00
C     7.455379041100000e+00   2.677948365438747e+00   8.115000000000000e-04  9.88046160e-01   2.53465989e+00  -7.00755710e-01
C     8.665303141399999e+00   1.959236845968002e+00  -7.142850000000323e-02  1.69189748e+00   2.02874130e-01  -1.41782474e+00
C     9.974157453100000e+00   2.690797356068421e+00  -4.458143999999997e-01 -3.11367519e+00   2.05756041e+00   1.11142350e+00
C     2.517136672700000e+00   4.038960581440585e+00  -1.248111899999998e+00 -2.42528956e+00   3.42806078e+00  -9.45320100e-02
C     3.715613165100000e+00   4.806565023288027e+00  -1.049322000000000e+00 -2.15567690e-01   1.42066576e+00  -5.19939150e-01
C     4.870396891600000e+00   4.224497311221388e+00  -7.352618999999976e-01  5.81442430e+00  -6.36820301e+00   2.15635900e+00
C     6.103641124399999e+00   4.846803487763037e+00  -3.522647999999968e-01  3.46578555e+00   2.27908950e-01   1.11586670e+00
C     7.512197882700001e+00   4.193091769967100e+00  -3.727170000000157e-02 -5.47115672e+00  -4.36447397e+00  -1.52066707e+00
C     8.662593761299998e+00   4.852200569336921e+00  -3.113877000000009e-01  2.29950707e+00   1.58941652e+00  -1.49967422e+00
C     9.914649493699999e+00   4.265821425488823e+00  -7.316612999999990e-01 -1.33322786e+00  -6.10178796e+00   1.26111857e+00
C     1.102866986030000e+01   4.802187755735770e+00  -1.302927600000000e+00  3.23077474e+00   3.30488157e+00   1.88175396e+00
C     3.884144031900000e+00   6.197480341650198e+00  -8.661596999999972e-01 -3.15554269e+00   2.61029150e+00   9.19966700e-01
C     4.950832848900000e+00   6.973390166650908e+00  -1.542440999999997e-01  1.08766665e+00  -2.06029287e+00  -2.44654894e+00
C     6.228847792100000e+00   6.224943336375763e+00  -1.407429000000029e-01 -3.03296205e+00   7.95162870e-01  -1.45595800e-02
C     7.441356642100000e+00   6.932341435471452e+00  -4.751610000000284e-02 -9.43240200e-01  -2.85143590e-01  -9.14046500e-02
C     8.644033740999999e+00   6.256613245394512e+00  -3.907929000000010e-01 -6.74753680e-01   7.28226630e-01   1.15193412e+00
C     9.801076590699999e+00   6.996845120637372e+00  -5.619501000000007e-01  5.73983851e+00  -2.32456123e+00  -2.24772526e+00
C     1.115742169100000e+01   6.420251768189459e+00  -1.077432000000002e+00 -2.68609889e+00  -6.55025804e+00  -5.01042820e-01
C     1.246385226680000e+01   6.837500268482083e+00  -1.063486200000000e+00 -1.43226499e+00   6.36438023e+00   3.57651250e+00
