32
Lattice="9.86 0 0 4.93 8.53901048131456 0 0 0 30 " PBC="1 1 1" Properties=species:S:1:pos:R:3:force:R:3 Energy="-253.06638561"
C     4.949390133700000e+00   8.424718984159078e+00  -3.573509999999978e-01 -8.53922030e-01   1.84457561e+00   1.60337800e+00
C     1.246161325800000e+00   5.662561117509296e-01  -3.365474999999982e-01  1.99385017e+00   2.53415061e+00   1.73981700e-01
C     7.474750736600000e+00   8.423136278566609e+00  -3.462008999999995e-01 -4.16624246e+00  -1.80076997e+00   1.52590017e+00
C     3.676011214600000e+00   5.830444894754480e-01  -1.233533999999992e-01  2.95890582e+00   2.90639310e+00  -3.64786285e+00
C     9.853823005799999e+00   8.460576423917217e+00  -3.874940999999978e-01  1.80016448e+00  -8.50185840e-01   1.05105470e+00
C     6.169362461400000e+00   6.376666609337024e-01  -4.625661000000001e-01 -7.76749970e-01  -1.65930808e+00   2.11295317e+00
C     1.232608602970000e+01   8.517593873205216e+00  -1.745993999999982e-01 -1.50644680e-01  -1.07779682e+00  -2.49470921e+00
C     8.608263337199999e+00   6.607986695438128e-01  -1.535885999999991e-01  2.59696597e+00  -1.00825670e-01  -2.07273117e+00
C     1.304653754500000e+00   2.060430012073233e+00  -2.767896000000007e-01 -1.85759475e+00  -1.63970567e+00  -1.38303100e-01
C     2.508101165899999e+00   2.787058133550090e+00  -3.400832999999999e-01 -1.25365047e+00   3.35616050e-01  -4.14326500e-02
C     3.696722341800000e+00   2.076019768896674e+00  -3.818139000000009e-01  1.30543900e-01  -2.81777599e+00   1.90044629e+00
C     4.916094737800000e+00   2.725586907175933e+00  -3.238671000000011e-01  1.18436272e+00   9.82640600e-01  -4.73689940e-01
C     6.164043435100000e+00   1.979326490534193e+00  -3.568800000000003e-01 -3.90320000e-03   4.91223042e+00   8.44170230e-01
C     7.389708039399999e+00   2.757869319416411e+00  -1.727121000000018e-01  8.39777610e-01   4.79534930e-01  -1.92690193e+00
C     8.655083350000000e+00   2.085220552688873e+00  -3.351566999999989e-01 -9.87159560e-01  -1.32478798e+00   2.74632049e+00
C     9.894895328800001e+00   2.771420899828381e+00  -2.283015000000006e-01  1.22177740e-01  -1.30829850e+00  -1.53420241e+00
C     2.462292444000000e+00   4.237222656979312e+00  -3.711404999999992e-01  3.31349290e+00  -3.89622469e+00   1.21399260e-01
C     3.673906153900000e+00   4.907999928779948e+00  -3.456858000000018e-01  1.19129668e+00   1.32827519e+00  -1.24757389e+00
C     4.891483241100000e+00   4.161656598346447e+00  -2.956109999999974e-01  1.76876654e+00   8.30667040e-01  -6.14992240e-01
C     6.163050631699999e+00   4.894019177701253e+00  -3.511263000000007e-01  4.67644000e-02   7.54430000e-02   2.44961915e+00
C     7.421377274799999e+00   4.209284722490848e+00  -2.187209999999986e-01 -6.29252150e-01  -1.05194850e-01  -8.38318100e-01
C     8.687617504599999e+00   4.976165568590216e+00  -3.291006000000003e-01 -1.25525462e+00  -4.89027649e+00  -1.86316360e-01
C     9.845046619799998e+00   4.134563598944979e+00  -4.041935999999993e-01  2.51346263e+00   3.53261217e+00   1.03388530e+00
C     1.117157715070000e+01   4.874423856451750e+00  -4.022784000000001e-01 -6.00912395e+00  -1.23961956e+00  -6.07935300e-02
C     3.694447590500000e+00   6.352861641310986e+00  -5.700804000000019e-01  2.31172519e+00   3.73989920e-01   2.95603164e+00
C     5.010869402900000e+00   7.035990847941256e+00  -2.898971999999986e-01 -2.54001472e+00  -9.30491670e-01  -1.09220220e+00
C     6.228253036900000e+00   6.338926830108673e+00  -1.184325000000008e-01 -8.13889380e-01  -2.32463957e+00  -2.63541919e+00
C     7.484804091200000e+00   6.953058697307923e+00  -2.624876999999977e-01 -1.91610764e+00   4.05296697e+00  -2.26719180e-01
C     8.685301637100000e+00   6.345347141308375e+00  -4.234530000000021e-01  2.53292810e+00  -3.97540110e-01   1.44266127e+00
C     9.977102092799999e+00   7.029753015395511e+00  -3.396845999999982e-01 -3.73879005e+00  -2.80067980e-01  -8.00850780e-01
C     1.110370238970000e+01   6.208245813722753e+00  -3.318531000000000e-01  2.90685430e+00   7.30903600e+00  -1.37289170e+00
C     1.237520583820000e+01   7.144825574525038e+00  -4.742387999999984e-01 -1.25973952e+00  -4.85462216e+00   1.44410906e+00
