32
Lattice="9.86 0 0 4.93 8.53901048131456 0 0 0 30 " PBC="1 1 1" Properties=species:S:1:pos:R:3:force:R:3 Energy="-249.2558528"
C     5.122083202300000e+00   8.048750963790336e+00  -3.742385999999982e-01 -3.29802321e+00  -8.26973700e-02   4.87928250e-01
C     1.327278855600000e+00   2.578733346501312e-01  -5.109929999999991e-01  4.44295751e+00   4.12445000e-03   2.55690928e+00
C     7.556223226399999e+00   8.148083479511977e+00  -2.831846999999996e-01 -2.53206828e+00  -4.94543340e+00  -2.71450816e+00
C     3.774007634700000e+00   2.786896490081704e-01  -3.524874000000011e-01  3.06353685e+00   1.64265278e+00   3.31920500e-01
C     9.917675577000001e+00   8.046077143438735e+00  -4.684235999999977e-01  2.61498886e+00   1.91253951e+00   3.30874118e+00
C     6.179770578799999e+00   3.525677160493488e-01  -2.981471999999989e-01  2.01405170e+00  -4.81449365e+00  -6.94050630e-01
C     1.238206297520000e+01   8.111919916228128e+00  -2.000510999999996e-01  2.89897184e+00  -5.84602220e-01  -7.79754600e-01
C     8.793942370900000e+00   1.819899663878296e-01  -5.045766000000000e-01 -3.27067788e+00   2.74953167e+00   1.17686837e+00
C     1.387323741300000e+00   1.639559263534993e+00  -1.349441999999996e-01 -8.07228880e-01  -4.75951680e-01  -7.63888120e-01
C     2.546352099200000e+00   2.409507066028462e+00   5.455680000000000e-02  2.80526616e+00  -1.73989957e+00   1.62517966e+00
C     3.782328587300000e+00   1.697533850507695e+00  -8.912219999999849e-02  8.54281500e-02  -4.66670050e-01  -4.99587360e-01
C     5.001797414099999e+00   2.388170725932191e+00  -1.004189999999738e-02  5.44477160e-01   1.42888103e+00  -2.04743600e-01
C     6.222040743899999e+00   1.720871990830793e+00  -2.702489999999997e-01  9.81479430e-01   2.47042245e+00  -7.14161010e-01
C     7.459278227399999e+00   2.523943810437649e+00  -4.635074999999986e-01  1.53725369e+00  -5.69880292e+00   2.85676450e-01
C     8.768876032400000e+00   1.703920774176421e+00  -5.483435999999990e-01 -8.50344370e-01  -1.86545086e+00   1.96933079e+00
C     1.001315459120000e+01   2.253460406671074e+00  -2.181629999999757e-02 -3.49878914e+00   6.69673960e-01  -2.56220595e+00
C     2.654098826800000e+00   3.731682154565164e+00   5.991230999999999e-01 -2.86210470e+00   9.51797530e-01  -1.98601957e+00
C     3.864747982199999e+00   4.534964973120982e+00   5.532261000000001e-01  2.28652710e-01  -9.82705220e-01  -2.37356365e+00
C     5.041575267000000e+00   3.819970570302286e+00   1.792335000000000e-01  3.17490270e-01  -2.99616030e-01   4.30540210e-01
C     6.261202396100000e+00   4.549415625946391e+00  -9.287909999999755e-02 -1.14243588e+00  -2.12596004e+00  -8.75890810e-01
C     7.465287798799999e+00   3.876985372497037e+00  -3.895061999999996e-01  1.73490099e+00   1.03287322e+00   1.78834087e+00
C     8.738663759900000e+00   4.539552044160734e+00  -1.111623000000002e-01  1.43125220e+00  -6.48480758e+00  -4.27636960e-01
C     9.939232544300001e+00   3.607665750468780e+00   1.335360000000000e-01  1.46793125e+00   6.23545387e+00   1.10122899e+00
C     1.122128653790000e+01   4.345886603353495e+00   4.707699000000000e-01 -1.18000319e+00   3.61971481e+00  -9.20187210e-01
C     3.871481869200000e+00   5.908842233092199e+00   1.445904000000000e-01  2.14952800e-01   2.75593196e+00   2.62066181e+00
C     5.123003584000000e+00   6.699414563768327e+00   7.451669999999999e-02 -2.99834370e-01  -2.78500338e+00  -3.38976573e+00
C     6.252782399799999e+00   5.876385625037928e+00  -2.893283999999987e-01  3.65831233e+00   5.29766892e+00   1.77330945e+00
C     7.777869716000000e+00   6.664790413293813e+00  -4.269198000000003e-01 -6.86050464e+00  -1.21295720e-01   1.37953577e+00
C     8.906451872900000e+00   5.855110424256694e+00  -1.826876999999989e-01 -9.01666310e-01   5.05483049e+00  -2.69214070e-01
C     1.009866608210000e+01   6.647114746990317e+00  -5.183339999999959e-02 -1.94729187e+00   3.10492870e-01  -1.49683481e+00
C     1.125286496270000e+01   5.969429159541047e+00   2.480481000000000e-01  1.83845953e+00  -2.95801366e+00   7.83456440e-01
C     1.251950772700000e+01   6.676750492932520e+00   1.546398000000000e-01 -2.42939071e+00   2.94813840e-01  -9.47615790e-01
