32
Lattice="9.86 0 0 4.93 8.53901048131456 0 0 0 30 " PBC="1 1 1" Properties=species:S:1:pos:R:3:force:R:3 Energy="-249.89914774"
C     5.202632993300000e+00   8.011101271122550e+00  -4.119293999999982e-01  1.40659344e+00  -2.25750360e-01   1.74388010e-01
C     1.424940676600000e+00   3.252536416665536e-01  -5.775050999999998e-01  3.58698476e+00  -5.53576218e+00   1.13478377e+00
C     7.664678197799999e+00   7.956861732723904e+00  -5.904797999999971e-01 -8.07322140e-01   5.13192980e+00  -2.22039890e-01
C     3.970304754500000e+00   1.070582708435240e-01  -4.101657000000003e-01  9.51756240e-01   2.47790445e+00  -1.03816579e+00
C     1.022683592630000e+01   7.944606801053322e+00  -6.148905000000013e-01 -3.79421079e+00   3.82964984e+00   2.44524043e+00
C     6.435919476200000e+00   2.142586308214352e-01  -4.846779000000012e-01  2.84536928e+00  -1.97609350e+00  -8.05373810e-01
C     1.263199617790000e+01   8.100260495148422e+00  -3.539543999999992e-01  8.00557800e-02  -2.14169217e+00   1.04567258e+00
C     8.980092959100000e+00   1.770858418889560e-01  -3.910599000000019e-01 -3.39593157e+00   2.28497641e+00   2.82854770e-01
C     1.480616547000000e+00   1.647996915960595e+00  -1.935731999999994e-01  5.45513212e+00   1.22849184e+00   1.68079097e+00
C     2.851749083700000e+00   2.388983127389258e+00   1.514088000000000e-01 -3.02074106e+00  -1.36274667e+00  -6.29790950e-01
C     3.992672411000000e+00   1.616439807270288e+00  -9.205110000000261e-02  2.83298922e+00  -1.31875013e+00  -1.66179308e+00
C     5.310000801100000e+00   2.336895163461258e+00  -2.696025000000013e-01 -1.39219536e+00  -1.53731440e-01   1.31121914e+00
C     6.584048376100000e+00   1.556521997682652e+00  -5.313354000000032e-01 -2.46515290e+00   6.04480921e+00   7.44313930e-01
C     7.856932224600000e+00   2.357176081862201e+00  -4.713806999999974e-01 -4.53219682e+00   4.31856580e-01   1.39973053e+00
C     8.979277832899999e+00   1.601965074435326e+00  -2.931440999999992e-01  3.03912992e+00   1.61133098e+00   4.63628750e-01
C     1.023730073870000e+01   2.346045737871836e+00   8.193839999999999e-02 -5.04545273e+00   2.35599687e+00  -1.58564823e+00
C     2.846354283300000e+00   3.783173497830927e+00   5.185623000000000e-01 -3.68558390e+00   7.04197070e-01  -1.68170057e+00
C     3.979402872300000e+00   4.553187306875407e+00   3.195669000000000e-01  2.42534958e+00  -6.26803108e+00   1.97832670e-01
C     5.247748458600000e+00   3.785150534927361e+00   9.893100000000000e-03 -8.89280810e-01  -1.62307913e+00  -1.83577710e-01
C     6.452142282100001e+00   4.462549809355238e+00  -1.644405000000013e-01  7.32527500e-01   9.98544290e-01  -1.56893084e+00
C     7.711095478899999e+00   3.836832127346618e+00  -2.561028000000007e-01  1.78636822e+00  -3.05424041e+00  -8.67017900e-01
C     8.944001858800000e+00   4.571929837148273e+00  -1.962441000000013e-01 -1.05266270e-01  -1.83394092e+00   7.85785540e-01
C     1.015795248730000e+01   3.831846711467975e+00   1.689744000000000e-01  9.46566880e-01   9.79259480e-01  -8.53276100e-02
C     1.138117176230000e+01   4.674799211010729e+00   4.253973000000000e-01  1.64527090e-01  -7.39705479e+00  -5.74024000e-02
C     3.891753634800000e+00   5.854148504726122e+00   2.456406000000000e-01  2.80327018e+00   9.18612391e+00  -2.26169436e+00
C     5.172845588200000e+00   6.602139864182262e+00  -1.554780000000022e-01  1.40992166e+00  -2.06262259e+00  -1.49318249e+00
C     6.423622330699999e+00   5.828349848533212e+00  -5.088195000000013e-01 -4.34067340e-01   2.96314565e+00   1.90242995e+00
C     7.723470863499999e+00   6.598306104647056e+00  -7.407497999999997e-01 -3.79174514e+00  -1.78986474e+00   1.41338830e+00
C     8.923680941100001e+00   5.976944684224915e+00  -4.187925000000021e-01  7.69720080e-01  -2.39258338e+00   5.97342210e-01
C     1.013320965540000e+01   6.631571442383888e+00  -2.223042000000000e-01  1.64359641e+00  -5.51628260e-01  -5.70565850e-01
C     1.135144800350000e+01   6.005616973614658e+00   2.320281000000000e-01 -2.27875600e-02   2.43146897e+00  -1.34293210e+00
C     1.257980152840000e+01   6.754898662944432e+00   8.976210000000000e-02  5.02076060e-01  -2.97211359e+00   4.75742020e-01
