32
Lattice="9.86 0 0 4.93 8.53901048131456 0 0 0 30 " PBC="1 1 1" Properties=species:S:1:pos:R:3:force:R:3 Energy="-253.54410559"
C     1.050997070700000e+00   1.203676763792703e+00   3.255315000000000e+00 -1.40125410e+00   3.46531247e+00  -6.04783680e-01
C     2.292438611700000e+00   1.895602346678841e+00   3.121137600000000e+00  1.42047642e+00   1.69520590e-01   5.49207320e-01
C     3.559297211400000e+00   1.121569140011320e+00   3.461946600000000e+00 -9.17944560e-01   5.84693720e+00  -1.77396290e+00
C     4.780531372600000e+00   1.941196478526906e+00   3.340570800000000e+00 -1.66038089e+00   6.40892460e-01   5.16522350e-01
C     5.992510346200000e+00   1.278247686144229e+00   3.558243600000000e+00  8.17733690e-01  -1.85911617e+00  -3.28613000e-03
C     7.269424124600000e+00   1.871533523228970e+00   3.519432300000000e+00 -1.28398134e+00   2.95998567e+00  -5.03643240e-01
C     8.455197535299998e+00   1.180950187400183e+00   3.343806900000000e+00  4.67881300e-01  -1.19677880e+00   9.65005840e-01
C     9.600365839100000e+00   1.933801439280911e+00   3.180533700000000e+00  4.03830453e+00   1.86945705e+00  -1.30908237e+00
C     2.327624909100000e+00   3.335349191932357e+00   2.799606000000000e+00  9.10884200e-02  -1.43419400e+00   7.51741350e-01
C     3.548041084700000e+00   4.083003602034958e+00   2.919193200000000e+00  4.68874300e-01  -1.64571733e+00  -6.71052000e-03
C     4.756824481600000e+00   3.416987511697760e+00   3.175659900000000e+00  1.51966294e+00  -3.66433406e+00   7.05709120e-01
C     6.037469974200000e+00   4.033712078649053e+00   3.444417300000000e+00 -1.57368759e+00   5.02129430e-01   5.27119920e-01
C     7.268919489799999e+00   3.323052077550005e+00   3.532176900000000e+00 -5.06996180e-01  -1.38354991e+00  -1.06312066e+00
C     8.427818237999999e+00   4.079850743195427e+00   3.298768500000000e+00  1.91525675e+00   3.97402210e-01   2.15628200e-01
C     9.684158485499999e+00   3.466532814475130e+00   2.941975500000000e+00 -1.18886971e+00  -4.77069466e+00   1.35741704e+00
C     1.096756635570000e+01   4.061885433656450e+00   2.742127500000000e+00 -2.04006234e+00   9.53800290e-01   1.57229947e+00
C     3.607533070900000e+00   5.452530065386403e+00   2.982449100000000e+00 -3.42982901e+00   2.84684939e+00   1.70165549e+00
C     4.740204860000000e+00   6.142069934134534e+00   3.476109000000000e+00  1.91470805e+00  -8.34015540e-01  -1.08097528e+00
C     5.972315291400000e+00   5.423553701833468e+00   3.672439800000000e+00  1.33110156e+00   2.25933552e+00  -4.92263340e-01
C     7.212030099900000e+00   6.247410839190321e+00   3.829783800000000e+00 -1.05150763e+00  -2.49545272e+00  -8.56732060e-01
C     8.426317644599999e+00   5.464339602270349e+00   3.545656200000000e+00 -6.20835040e-01   3.14859245e+00   8.09456000e-02
C     9.623079630900000e+00   6.237523689735738e+00   3.400101900000000e+00  2.67424227e+00  -3.58627836e+00  -9.09634450e-01
C     1.090812248630000e+01   5.468107611424858e+00   3.031267200000000e+00 -2.62813370e-01   2.06997054e+00   1.76380140e-01
C     1.214102866900000e+01   6.192089066603440e+00   3.101060700000000e+00  1.64550175e+00  -1.01394902e+00  -5.40942200e-01
C     4.802865061399999e+00   7.547360164299155e+00   3.451789800000000e+00 -7.99138600e-02   2.60393433e+00   6.05479100e-01
C     5.991071525700000e+00   8.414556537006620e+00   3.531771900000000e+00 -1.69655860e-01  -4.98163954e+00   1.02566675e+00
C     7.187436696300000e+00   7.680510235565367e+00   3.825584400000000e+00  1.08367527e+00  -6.05180880e-01  -9.10432780e-01
C     8.468211502799999e+00   8.332009154185517e+00   3.739081200000000e+00 -5.65159860e-01  -1.62041266e+00  -2.68243770e-01
C     9.688356035399998e+00   7.606648904984730e+00   3.577314600000000e+00  1.52863846e+00   2.20914990e+00   9.85803300e-01
C     1.095250895250000e+01   8.403981655647978e+00   3.607546200000000e+00 -2.23756600e-02  -3.93104111e+00  -1.65742307e+00
C     1.224709081560000e+01   7.572843304054829e+00   3.348588600000000e+00 -4.05337465e+00   1.86406594e+00   1.28055876e+00
C     1.345208304250000e+01   8.257279064678643e+00   3.436434000000000e+00 -8.85040300e-02   1.21501933e+00  -1.03590331e+00
