32
Lattice="9.86 0 0 4.93 8.53901048131456 0 0 0 30 " PBC="1 1 1" Properties=species:S:1:pos:R:3:force:R:3 Energy="-253.41621007"
C     5.129453108600000e+00   8.038183511370812e+00  -8.247989999999916e-02 -1.17016383e+00   8.11281600e-01   5.47588470e-01
C     1.408416647700000e+00   3.241766162747112e-01  -1.063775999999983e-01 -2.23251888e+00  -3.26117131e+00   1.06109464e+00
C     7.459664640800000e+00   8.063319284180160e+00  -2.887499999999932e-03  1.98802110e+00   5.59215790e-01  -1.36240240e+00
C     3.769691518300000e+00   2.074965030322184e-01  -1.153133999999980e-01 -2.20558540e-01   1.59458169e+00   1.78855804e+00
C     9.867247149299999e+00   8.050609735591623e+00  -4.607910000000004e-02  5.24562207e+00  -1.51197068e+00  -3.37226060e-01
C     6.305438645200001e+00   1.822166771160736e-01  -1.459589999999977e-01 -2.63143612e+00   2.86180924e+00   3.52512030e-01
C     1.245389820240000e+01   8.127794619831286e+00  -5.014379999999719e-02  1.43880172e+00  -3.67314462e+00   8.53300170e-01
C     8.822910755100001e+00   2.863165223886968e-01  -2.587590000000262e-02 -4.33154960e-01  -4.95582188e+00  -3.49501270e-01
C     1.466618945900000e+00   1.706476756183399e+00  -7.049999999999557e-04 -5.94634070e-01   1.00005550e-01  -2.55199480e-01
C     2.706974407900000e+00   2.392394632856228e+00   8.815530000000001e-02 -3.08642884e+00   1.49867250e-01   2.15961800e-01
C     3.829778013200000e+00   1.647302352848152e+00   8.020740000000000e-02  3.25234384e+00  -1.78508268e+00  -2.05825260e+00
C     5.116284289799999e+00   2.319224620564051e+00  -7.210620000000034e-02 -5.64561610e-01  -4.18023366e+00   2.92977370e-01
C     6.361635715200000e+00   1.648977535924118e+00  -1.909161000000026e-01  7.15551830e-01  -1.22980236e+00   1.48182674e+00
C     7.636989247199999e+00   2.371979822770958e+00   2.008530000000000e-02 -2.26548840e+00  -1.32544597e+00  -9.41113910e-01
C     8.893302379700000e+00   1.628519518445820e+00   3.662850000000000e-02 -1.70695043e+00   3.42684582e+00  -7.01550880e-01
C     1.009723204370000e+01   2.361995243206799e+00  -1.868969999999948e-02 -9.73191370e-01   1.61675485e+00   7.95676930e-01
C     2.665948574800000e+00   3.794108981602139e+00   1.119972000000000e-01 -3.17390100e+00  -6.23985770e-01  -5.90131180e-01
C     3.877939676200000e+00   4.392620009979801e+00   4.188180000000000e-02 -1.12670656e+00   3.80008702e+00  -3.16755720e-01
C     5.069303559000000e+00   3.630015329548608e+00   4.593000000000000e-03  5.26216000e-03   6.88861192e+00   9.31384480e-01
C     6.196863924100000e+00   4.474233225054393e+00   1.439724000000000e-01  4.32028022e+00  -2.73398126e+00  -2.02931254e+00
C     7.490302816000000e+00   3.779538014119067e+00   4.647810000000000e-02  1.11141410e+00   9.80600520e-01   5.91088520e-01
C     8.719826180599998e+00   4.531906811907675e+00   1.741800000000000e-02  1.04143355e+00  -5.60419620e-01  -4.14713940e-01
C     9.997473838800000e+00   3.803439216793216e+00   3.406980000000000e-02 -1.02241171e+00  -1.70356250e-01  -3.52675310e-01
C     1.120750575820000e+01   4.506719292694819e+00   3.538920000000000e-02  2.67831769e+00  -8.86481410e-01   5.41477120e-01
C     3.774149963800000e+00   5.879268565756186e+00  -5.277630000000144e-02  3.00665932e+00  -2.51370220e-01   1.95811004e+00
C     5.116876629300000e+00   6.549688736138548e+00   2.829480000000000e-02 -3.30149894e+00   3.08047402e+00  -1.67520893e+00
C     6.320171555799999e+00   5.851858683675805e+00  -3.552269999999780e-02 -1.11191621e+00   1.49744715e+00   1.05344432e+00
C     7.494969159600000e+00   6.680566747496242e+00  -6.070620000000204e-02  9.58515330e-01  -2.62829844e+00  -9.51991400e-02
C     8.787399965100001e+00   5.987193204603011e+00  -1.034223000000019e-01 -5.56730508e+00  -3.93067684e+00   1.27648277e+00
C     9.931262558400000e+00   6.590719279225682e+00   6.526200000000000e-02  4.82734352e+00   3.93354793e+00  -9.66316050e-01
C     1.125187141980000e+01   5.901756562195894e+00   6.327690000000000e-02 -4.83294154e+00   1.40998000e-01   3.12074870e-01
C     1.238124129210000e+01   6.616017207844044e+00   1.059984000000000e-01  5.42620167e+00   2.26611463e+00  -1.60799888e+00
