32
Lattice="9.86 0 0 4.93 8.53901048131456 0 0 0 30 " PBC="1 1 1" Properties=species:S:1:pos:R:3:force:R:3 Energy="-252.19392096"
C     1.041220930000000e+00   1.134120119175243e+00   3.739575300000000e+00  4.31457642e+00  -3.32396467e+00   1.05294495e+00
C     2.428854719000000e+00   1.730548312116624e+00   3.608938200000000e+00 -2.10608921e+00   1.52844613e+00  -1.23471440e-01
C     3.649714249500000e+00   1.028816273424940e+00   4.002371399999999e+00 -2.79315278e+00  -2.97190910e-01  -1.39042210e-01
C     4.819396682500000e+00   1.777019912681614e+00   4.044550200000001e+00  1.42059022e+00  -3.15510490e-01  -4.83289470e-01
C     6.044074843100000e+00   1.070879780609839e+00   4.187251500000000e+00  2.55322900e+00  -2.90487339e+00   4.56019350e-01
C     7.382751710799999e+00   1.679647953766182e+00   4.156254900000000e+00 -4.07803198e+00   1.96271373e+00  -1.31030122e+00
C     8.555232461099999e+00   9.960886371780344e-01   3.976166400000000e+00  5.41352930e-01  -1.43557660e-01  -4.35353120e-01
C     9.667303456399999e+00   1.793317211913427e+00   3.541124400000000e+00  2.00030422e+00  -2.04135666e+00   2.18867912e+00
C     2.486421983900000e+00   3.206754938927540e+00   3.247679400000000e+00 -3.08390211e+00  -2.42806043e+00   1.83093147e+00
C     3.714344922600000e+00   3.905620261020879e+00   3.390864000000000e+00 -1.82130598e+00  -1.75849010e-01   1.08064154e+00
C     4.858639137400000e+00   3.176148136713552e+00   3.813168000000001e+00  3.25874410e-01  -1.50848260e-01   1.52911340e-01
C     6.091285262600000e+00   3.817346873942201e+00   4.087784099999999e+00 -1.31619430e-01   1.48141834e+00  -2.96151650e-01
C     7.333111688699999e+00   3.124202518090254e+00   3.998222700000000e+00 -7.90985030e-01  -4.12367450e-01   9.02635660e-01
C     8.452363081100000e+00   3.936646499429644e+00   3.834443700000000e+00  2.64929610e+00  -6.77055270e-01   1.30109997e+00
C     9.740764844099999e+00   3.173511546447642e+00   3.573850800000000e+00 -1.74886870e+00   3.35056228e+00  -4.94186710e-01
C     1.095701216240000e+01   3.907892491709606e+00   3.391294800000000e+00  2.81999451e+00  -1.86647726e+00  -4.13369410e-01
C     3.584410483500000e+00   5.306676422838991e+00   3.566917200000000e+00  3.57339965e+00   4.79369840e-01   3.46345310e-01
C     4.861684398400000e+00   5.998781751895732e+00   3.913934700000000e+00 -1.02423789e+00  -2.65371520e+00   3.89511310e-01
C     6.050313462300000e+00   5.253070564408066e+00   4.238703600000000e+00  1.37945910e-01   1.61701167e+00  -1.80353647e+00
C     7.238694941599999e+00   6.119347114906626e+00   4.320527700000000e+00  1.44780914e+00  -5.80652176e+00   6.66825970e-01
C     8.462490336400000e+00   5.327410250355793e+00   4.248868500000000e+00  2.03218494e+00  -5.16353280e-01  -2.81365526e+00
C     9.801178198000001e+00   5.961032835926169e+00   4.043891700000000e+00 -2.30476014e+00  -7.41461600e-02   7.60536470e-01
C     1.101595603120000e+01   5.293598330558138e+00   3.581073900000000e+00 -2.73383179e+00   2.26221250e-01   1.19160366e+00
C     1.222469663570000e+01   5.986404883155497e+00   3.623094600000000e+00  8.24560820e-01   3.27448620e-01  -2.92839150e-01
C     4.934108760600000e+00   7.371956763645074e+00   4.022389800000000e+00 -2.89522009e+00   2.37597463e+00   8.44919950e-01
C     6.058926024400000e+00   8.139465910135561e+00   4.249593000000000e+00  1.00989655e+00   3.62685022e+00  -2.69478864e+00
C     7.321159100899999e+00   7.474061896069569e+00   4.332906600000000e+00 -2.71988482e+00   2.26813107e+00   2.20549820e-01
C     8.508978165800000e+00   8.167759409020412e+00   4.328213400000000e+00  3.02434201e+00  -5.06276170e-01  -4.58571140e-01
C     9.737879610899999e+00   7.337947848875644e+00   4.327950000000000e+00  2.34026871e+00   3.37498313e+00  -1.53583314e+00
C     1.101594469220000e+01   8.112176257322737e+00   4.166909400000000e+00 -7.82813590e-01  -2.17558100e-02  -4.29081150e-01
C     1.227007348960000e+01   7.361692873048113e+00   3.851910900000000e+00 -3.49008060e-01   3.94350914e+00   2.52077244e+00
C     1.355000137140000e+01   8.126987171000298e+00   4.072686000000000e+00 -1.65191392e+00  -2.24676019e+00  -2.18345816e+00
