32
Lattice="9.86 0 0 4.93 8.53901048131456 0 0 0 30 " PBC="1 1 1" Properties=species:S:1:pos:R:3:force:R:3 Energy="-251.31035057"
C     5.328370671300000e+00   8.089632671924804e+00  -1.446740999999996e-01 -5.90763100e-01  -3.62747470e-01  -1.93248437e+00
C     1.617103498400000e+00   2.919718236394960e-01  -3.806829000000000e-01 -1.85640677e+00   1.17645133e+00   2.04917564e+00
C     7.696472014299999e+00   8.185134331374801e+00  -2.414346000000016e-01  4.00675867e+00  -5.06527543e+00  -2.84367480e-01
C     4.073452383700000e+00   2.644933733049608e-01  -2.826143999999999e-01 -6.87187760e-01  -1.64373660e-01  -1.29854060e-01
C     1.019309840800000e+01   8.076352717436203e+00  -3.242331000000007e-01  2.06358163e+00   3.27904928e+00   1.48444055e+00
C     6.549470391400000e+00   1.891445470987072e-01  -1.505139000000000e-01 -2.93384790e-01   2.54740751e+00  -7.30944870e-01
C     1.270040954140000e+01   8.027962998947091e+00  -3.331005000000005e-01  1.54558195e+00   1.42559288e+00  -1.99000970e-01
C     9.044193755800000e+00   2.734527592708912e-01  -2.324193000000001e-01 -3.30590610e-01  -1.21814431e+00   6.82433440e-01
C     1.774304929400000e+00   1.717570040868282e+00  -3.631586999999996e-01 -1.07975276e+01  -2.69211774e+00   5.07345290e-01
C     2.837577848000000e+00   2.374746974507107e+00  -4.761473999999986e-01  9.95488598e+00   4.38937430e-01  -1.34003200e-02
C     4.213974835900000e+00   1.622880868265457e+00  -3.778112999999976e-01 -4.44696576e+00   1.92144346e+00  -7.26244990e-01
C     5.392944895899999e+00   2.347176815200017e+00  -3.865550999999989e-01  3.20819830e-01   9.90072400e-02   4.42323560e-01
C     6.595561158600001e+00   1.702625406286605e+00  -6.188759999999860e-02  1.61772662e+00  -2.79433404e+00  -1.06987491e+00
C     7.893548813600000e+00   2.411264565165456e+00  -7.796010000000209e-02 -1.95143182e+00  -2.81304434e+00  -4.47330150e-01
C     9.144016543699999e+00   1.707319727297985e+00  -1.398248999999971e-01 -2.65104683e+00  -1.17079755e+00   5.21395400e-02
C     1.029905460890000e+01   2.451552555901249e+00  -2.373117000000029e-01  1.10652809e+00   1.57480320e-01  -1.28954333e+00
C     2.889729507900000e+00   3.738710528701148e+00  -5.427524999999989e-01  6.18113500e-01   2.01800115e+00  -1.03787182e+00
C     4.154505034700000e+00   4.396332174005773e+00  -7.066467000000003e-01 -2.25721775e+00   4.00010958e+00  -4.58655990e-01
C     5.328239779800000e+00   3.749752579323150e+00  -6.029423999999999e-01  2.63611720e+00  -1.08996115e+00   2.16009916e+00
C     6.531229095600000e+00   4.449458396218035e+00  -2.525162999999999e-01 -6.34367920e-01  -7.25595070e-01  -1.46796192e+00
C     7.757316447399999e+00   3.746222893951138e+00  -2.218733999999998e-01  2.19399492e+00   5.03784636e+00  -4.46349600e-02
C     8.961491773299999e+00   4.667540881322519e+00  -3.440790000000007e-01 -5.52671100e-02  -5.48293240e+00   9.52331770e-01
C     1.016375233650000e+01   3.881607965820385e+00  -4.397631000000004e-01  4.19210938e+00  -1.20942089e+00   9.98761570e-01
C     1.155933037680000e+01   4.416245402615446e+00  -5.285303999999975e-01 -5.73871049e+00   5.89256680e+00   2.51634570e-01
C     4.191292201700000e+00   5.890866164400016e+00  -7.880508000000006e-01 -3.44920847e+00   4.35743480e-01   2.70239783e+00
C     5.299419837899999e+00   6.618232739503185e+00  -2.356566000000022e-01  1.55099930e-01  -5.50418130e-01  -2.16987665e+00
C     6.502467771399999e+00   5.829587578102288e+00  -1.859631000000022e-01  1.50320307e+00   4.35456989e+00   1.95278260e-01
C     7.717688417200000e+00   6.690665664410728e+00  -1.777967999999994e-01 -7.61574490e-01  -3.46917900e-02   8.00698520e-01
C     8.957809605599998e+00   6.015150181084844e+00  -1.560920999999986e-01 -2.59334950e-01   1.85758539e+00  -1.11574544e+00
C     1.019231522820000e+01   6.753095565491475e+00  -2.649192000000014e-01  1.74663490e-01  -5.18415145e+00  -7.82891660e-01
C     1.137654505590000e+01   6.028441236287069e+00  -5.081910000000001e-01  4.78731033e+00  -3.64317985e+00  -9.64218430e-01
C     1.270482272950000e+01   6.647550236524797e+00  -7.098389999999988e-01 -1.15508390e-01  -4.40606840e-01   1.58584261e+00
