32
Lattice="9.86 0 0 4.93 8.53901048131456 0 0 0 30 " PBC="1 1 1" Properties=species:S:1:pos:R:3:force:R:3 Energy="-253.83629075"
C     5.080441365700000e+00   8.097945057066665e+00  -2.431310999999994e-01 -3.25178476e+00   1.07526072e+00  -3.86726950e-01
C     1.316396521500000e+00   2.817983611635192e-01  -2.770994999999985e-01  2.60515720e+00   6.30315390e-01   5.40268480e-01
C     7.524861524399999e+00   8.103933892066813e+00  -1.952819999999988e-01  1.63454500e-02   4.00074034e+00  -9.32413570e-01
C     3.820561378200000e+00   2.819506117203776e-01  -2.987697000000011e-01 -1.03376199e+00   2.92035088e+00   1.20930321e+00
C     9.977630933899999e+00   8.136094623407951e+00  -2.077328999999999e-01 -7.64537580e-01  -8.93680470e-01  -1.31709102e+00
C     6.256004697099999e+00   3.477540196714584e-01  -2.046674999999993e-01 -1.79961468e+00   4.41225740e-01  -7.70369660e-01
C     1.236089128740000e+01   8.244920127860416e+00  -3.545163000000002e-01  4.07118901e+00  -4.45628968e+00   1.17450862e+00
C     8.737990371199999e+00   3.184956979924720e-01  -2.017406999999984e-01 -1.26587115e+00  -4.46863300e-02  -6.71853080e-01
C     1.311206957000000e+00   1.718938161127387e+00  -3.688035000000021e-01  2.29190432e+00   1.75989350e-01  -1.39550605e+00
C     2.563784431299999e+00   2.546101261781677e+00  -5.954414999999997e-01 -1.98275330e-01  -5.24073366e+00   1.46417336e+00
C     3.732912535100000e+00   1.806645838761764e+00  -3.590742000000020e-01  2.59486355e+00  -2.61660924e+00  -5.41295060e-01
C     5.021954853000000e+00   2.458566584499625e+00  -3.433428000000021e-01 -1.48437122e+00   1.06875568e+00  -1.00981955e+00
C     6.243334399899999e+00   1.759222736258988e+00  -2.898333000000015e-01 -1.87220685e+00  -8.68213840e-01   1.15604950e+00
C     7.425876146299999e+00   2.418682488959537e+00  -2.107884000000020e-01  2.53446728e+00   3.75296897e+00  -1.32099993e+00
C     8.644505147600000e+00   1.743063427436531e+00  -1.918001999999994e-01  4.16438101e+00  -1.18175960e+00  -8.33491380e-01
C     9.989454405000000e+00   2.387117780549902e+00  -4.363998000000002e-01 -4.15920216e+00   2.58187048e+00   2.04348336e+00
C     2.634028353100000e+00   3.906175040531764e+00  -7.294733999999998e-01 -2.83793624e+00  -1.30820550e+00   9.84061000e-01
C     3.750815386400000e+00   4.644727292413208e+00  -5.722254000000007e-01  5.08922398e+00  -1.29489418e+00  -6.82882390e-01
C     5.037190722200000e+00   3.870856241554702e+00  -5.358309000000006e-01 -4.64300380e-01   1.88546804e+00   1.04758673e+00
C     6.272910012200000e+00   4.626680093763728e+00  -4.324475999999997e-01  2.37066150e-01  -8.89636370e-01  -1.09415272e+00
C     7.517815075400000e+00   3.903970182635723e+00  -4.157679000000023e-01 -2.16324911e+00  -1.79984975e+00   1.58844875e+00
C     8.719161468700001e+00   4.582980426780757e+00  -3.330858000000028e-01  3.00412194e+00  -1.27841774e+00  -1.07660726e+00
C     9.994496266699999e+00   3.852890078114678e+00  -3.824567999999999e-01 -1.43068500e-01  -1.38853004e+00  -1.09611214e+00
C     1.125968689950000e+01   4.476201808530452e+00  -5.671518000000013e-01 -2.60840057e+00   5.23334045e+00  -4.25233850e-01
C     3.795829934600000e+00   6.023580233791120e+00  -4.910478000000005e-01 -5.48850530e-01   1.33047534e+00   3.37084880e-01
C     5.047063343000000e+00   6.683347903209578e+00  -4.019712000000020e-01  8.06531400e-02   1.50467535e+00   2.79412440e-01
C     6.290464411099999e+00   6.054281648241226e+00  -4.575609000000007e-01  1.66089475e+00  -9.64452520e-01   1.42245379e+00
C     7.600052799799999e+00   6.783118555558945e+00  -2.357309999999977e-01 -2.33012348e+00  -5.92601134e+00  -1.79147710e+00
C     8.831072715199999e+00   5.972205618798619e+00  -4.196066999999992e-01 -4.87502015e+00   1.22854959e+00   1.41500700e+00
C     9.960410443899999e+00   6.673519758317412e+00  -4.144703999999990e-01  5.22653218e+00   1.98236609e+00   8.27481800e-02
C     1.127744436510000e+01   5.983709800667800e+00  -5.878286999999993e-01 -3.96321304e+00  -1.22498153e+00   1.49757746e+00
C     1.239495827760000e+01   6.743094847197509e+00  -4.256495999999999e-01  2.18698777e+00   1.56459938e+00  -8.96135030e-01
