32
Lattice="9.86 0 0 4.93 8.53901048131456 0 0 0 30 " PBC="1 1 1" Properties=species:S:1:pos:R:3:force:R:3 Energy="-252.80384806"
C     1.106328728500000e+00   8.836435315732024e-01   3.979495500000001e+00  1.67148788e+00   3.60412854e+00  -1.73644852e+00
C     2.388703714400000e+00   1.648416864496002e+00   3.747262200000000e+00  2.20476420e-01  -3.89225579e+00   1.06129946e+00
C     3.690516852200000e+00   8.083384251006064e-01   3.955674900000000e+00 -2.23295818e+00   3.79381347e+00  -7.50741720e-01
C     4.870228778600000e+00   1.636580942069674e+00   3.927690000000000e+00  5.34121490e-01  -4.42675756e+00   8.41461390e-01
C     6.142120661799999e+00   9.434696321882833e-01   4.174944000000000e+00 -1.24641069e+00  -1.04155966e+00  -5.24666240e-01
C     7.422103661000000e+00   1.582014444959749e+00   4.060253400000000e+00 -3.20837148e+00   3.42767020e-01  -4.02593440e-01
C     8.595417778500000e+00   9.371006404415656e-01   3.865497600000000e+00 -1.65370216e+00  -4.90948598e+00   1.12682571e+00
C     9.688934028600000e+00   1.651240715261738e+00   3.743858700000000e+00  7.43076868e+00   9.63369640e-01   3.35498410e-01
C     2.423676493500000e+00   3.018849573029690e+00   3.426876600000000e+00  6.61709130e-01   5.44599100e-02   5.11063160e-01
C     3.720908182300000e+00   3.707648341058262e+00   3.418480800000000e+00 -4.13014744e+00   2.14260004e+00   6.84251570e-01
C     4.809690942200000e+00   2.974270046406859e+00   3.722445300000000e+00  5.09321696e+00   2.38649215e+00   9.18620400e-01
C     6.147128013500000e+00   3.672555911249025e+00   4.036295099999999e+00 -1.09833137e+00  -1.82454290e-01  -2.08600060e-01
C     7.441744435899999e+00   2.975387717488586e+00   4.021731000000000e+00 -4.36534473e+00   3.95179860e-01   1.21876710e-01
C     8.547095249599998e+00   3.728875381820389e+00   3.853889400000000e+00  3.08436462e+00   2.85327336e+00   1.12854862e+00
C     9.812365403299999e+00   3.099577890448239e+00   3.652227600000000e+00 -8.00948120e-01  -2.09308488e+00  -1.08299400e-01
C     1.105967231320000e+01   3.742219635057904e+00   3.471305100000000e+00 -8.03004800e-01   1.15655279e+00   5.78386010e-01
C     3.643817427200000e+00   5.195253351398510e+00   3.576237000000000e+00 -1.16209622e+00  -3.66899556e+00   1.07597000e-03
C     4.828837336699999e+00   5.787370966459482e+00   3.879520800000000e+00  3.95169091e+00   2.70484407e+00   1.12322012e+00
C     6.103626433000000e+00   5.055025550515740e+00   4.229116500000000e+00 -6.32283000e-03   2.02129193e+00  -2.22452235e+00
C     7.385971592399999e+00   5.886762401353433e+00   4.256212200000000e+00 -3.51910998e+00  -1.49417744e+00   3.45512600e-01
C     8.570659466399999e+00   5.162194230764771e+00   4.157739300000000e+00  1.29054907e+00  -8.53331570e-01  -2.52517199e+00
C     9.835266485800000e+00   5.835379759691081e+00   3.912641100000000e+00 -2.00182759e+00   1.03465826e+00   1.56390628e+00
C     1.103907354070000e+01   5.201345849985886e+00   3.635501100000000e+00 -1.69235021e+00  -3.67403044e+00  -9.51610700e-02
C     1.221435561560000e+01   5.827747762904267e+00   3.745037700000000e+00  4.79311433e+00   4.39136596e+00  -8.42341890e-01
C     4.919386942500000e+00   7.265968260034485e+00   3.898099200000000e+00  5.31746010e-01  -8.45293230e-01   1.82091880e+00
C     6.134701948500000e+00   8.045872804917948e+00   4.187182500000000e+00 -2.89881239e+00  -1.54906789e+00  -1.78814361e+00
C     7.291439088900000e+00   7.301142664344328e+00   4.198808400000000e+00  3.34637006e+00  -3.38795830e-01   4.59844560e-01
C     8.573662871700000e+00   7.959190064711485e+00   4.127600100000000e+00 -7.74930520e-01   9.69622900e-02   4.34876920e-01
C     9.790403239299998e+00   7.237942032177656e+00   4.162983300000000e+00  1.52850425e+00   1.36377888e+00  -4.67895370e-01
C     1.099467504530000e+01   8.045174826201313e+00   4.226251500000000e+00  3.00506469e+00  -1.48295904e+00  -1.97223572e+00
C     1.233313282380000e+01   7.294458412330689e+00   3.906396300000000e+00 -2.74109850e+00   4.90697900e-02   1.70277893e+00
C     1.359911541180000e+01   7.981676780299622e+00   3.944507100000000e+00 -2.80741728e+00   1.09764118e+00  -1.11314422e+00
