64
Lattice="7.10842262195238 0 0 0 7.10842262195238 0 0 0 7.10842262195238 " PBC="1 1 1" Properties=species:S:1:pos:R:3:force:R:3 Energy="-511.62107679"
C     7.079606567467271e+00   7.094863374936576e+00   7.057896378522397e+00  7.77687420e-01   3.93780950e-01   2.44054488e+00
C     1.794834842940768e+00   1.753862037127540e+00   2.790766720612000e-02 -1.74908510e-01   1.60133709e+00  -3.43317840e-01
C     7.087747986062408e+00   1.798142249817402e+00   1.764683970808455e+00  1.62571951e+00  -3.16583040e-01   6.28873900e-02
C     1.762976456610905e+00   7.097228133889572e+00   1.824716590192689e+00 -5.99685260e-01   3.26294170e-01  -1.07316560e+00
C     8.495403824769160e-01   8.881293076803003e-01   8.835150883892059e-01  1.41505558e+00  -5.89899470e-01   3.75258760e-01
C     2.689602208916303e+00   2.736389917685369e+00   9.077101686293523e-01 -6.10285400e-01  -3.28701236e+00  -1.67825470e-01
C     9.253404073272503e-01   2.682780255727889e+00   2.666890798645403e+00 -2.59813302e+00   3.96467970e-01  -1.31566310e+00
C     2.593738163631436e+00   8.994015599341915e-01   2.730156612974118e+00  2.62096211e+00   3.64033340e-01  -1.62099172e+00
C     3.545588011435452e+00   7.076571057755851e+00   3.694943861030760e-02  3.83436710e-01   1.23555421e+00  -1.30226100e+00
C     5.355675610044632e+00   1.788715272991436e+00   7.098982990181771e+00 -8.19189000e-01   4.54110700e-02  -1.18894181e+00
C     3.556539247323824e+00   1.818011854893278e+00   1.832222942310956e+00  3.92042600e-01  -1.11635567e+00  -1.51348025e+00
C     5.355107931414199e+00   6.630288789310940e-02   1.733031444397666e+00 -1.01209746e+00  -1.78201123e+00   1.59786000e+00
C     4.480280899319609e+00   9.296990788251557e-01   8.592602263148253e-01 -1.97171199e+00  -8.30770660e-01   1.30902396e+00
C     6.248122644708547e+00   2.640660008335341e+00   8.299099047379764e-01 -1.47748350e-01   2.45640037e+00   1.99181335e+00
C     4.507879136889081e+00   2.628669805396830e+00   2.709200912006132e+00 -1.09437242e+00   1.07185296e+00  -7.92621260e-01
C     6.224451952805079e+00   9.597741751723396e-01   2.675748888409090e+00  7.96499780e-01  -3.06109292e+00  -4.34132870e-01
C     5.042622597133940e-02   3.558327513202337e+00   7.062729750482865e+00 -1.43204652e+00   1.86598110e-01   2.29553760e-01
C     1.779527778923539e+00   5.362434724777086e+00   7.031601754577207e+00 -3.90151390e-01  -1.04980749e+00   2.17218760e+00
C     7.070020575227296e+00   5.346723475849683e+00   1.739411040446438e+00  1.31811571e+00   2.82715880e-01   1.08694785e+00
C     1.764796354970077e+00   3.560773947931236e+00   1.765829777450572e+00  5.90673140e-01   1.24155132e+00  -3.77919240e-01
C     8.553111421282844e-01   4.475025073802834e+00   8.275694565903413e-01  1.41079520e+00  -3.14094890e-01   1.64891455e+00
C     2.677035868324441e+00   6.176781662283513e+00   8.955676321940945e-01 -9.52941220e-01   1.18555061e+00   1.53274570e-01
C     8.396224269005872e-01   6.246220644068114e+00   2.693228570715896e+00  8.43426460e-01  -1.21228110e+00  -6.36413380e-01
C     2.702558019983515e+00   4.395611908818980e+00   2.651962613553820e+00 -1.34436542e+00   1.13445475e+00  -2.72097030e-01
C     3.550283053491735e+00   3.539173868452747e+00   7.073583103391761e+00  8.56953390e-01   4.72107200e-02   1.46343056e+00
C     5.372472386190335e+00   5.313249487226746e+00   7.100076905338763e+00 -1.98458325e+00  -4.24660170e-01   4.93651550e-01
C     3.583410293259269e+00   5.277198908656737e+00   1.739802359111669e+00 -1.34092186e+00   1.19403424e+00   1.54824328e+00
C     5.350870813943096e+00   3.583456213669394e+00   1.822402656461426e+00 -3.20245600e-01  -1.38379194e+00  -1.94802819e+00
C     4.439743342223404e+00   4.411748383587511e+00   8.832535695210162e-01  1.61492977e+00   2.02063930e-01  -4.52526880e-01
C     6.209612409743566e+00   6.195255173156821e+00   8.646703756866811e-01 -5.80651200e-02   2.00087400e+00   1.76593410e-01
C     4.385629266596809e+00   6.223284038968612e+00   2.679406598352437e+00  2.60758823e+00   9.96898920e-01  -1.44460406e+00
C     6.211716289586407e+00   4.507133676608921e+00   2.671635528575801e+00  7.40562900e-01  -2.15680496e+00  -2.45123290e-01
C     7.083395143471051e+00   7.108406483880652e+00   3.650063839640223e+00  4.82041200e-01   1.02293936e+00  -3.83195332e+00
C     1.723870749083046e+00   1.837166423737809e+00   3.552717759323312e+00  1.45500206e+00  -3.11224157e+00   6.97300640e-01
C     7.088190129949372e+00   1.732736231606258e+00   5.343272194499221e+00  1.76958104e+00   1.97443383e+00   5.39691200e-02
C     1.704729472988815e+00   4.322034687721920e-02   5.352731870069237e+00  2.85126264e+00  -1.65327664e+00  -7.51402340e-01
C     8.737884204655815e-01   8.677612600103096e-01   4.461596694799844e+00 -6.54326720e-01   2.16331377e+00  -1.94484100e-01
C     2.684419386899835e+00   2.640097305600742e+00   4.389941093589649e+00 -1.13874505e+00   3.90390770e-01   1.98189753e+00
C     9.600803349345831e-01   2.703697571213727e+00   6.211607388551869e+00 -2.23800828e+00  -3.04424241e+00   7.64371150e-01
C     2.632891924096205e+00   8.884233831240897e-01   6.207487417885543e+00  7.09486420e-01  -2.45458410e-01   1.41778302e+00
C     3.578707716275008e+00   2.867068529015080e-02   3.590923469463251e+00 -2.11324151e+00  -1.20788671e+00   1.62838380e-01
C     5.407971066828127e+00   1.771521917947764e+00   3.558007705268664e+00 -2.96078888e+00  -2.07760510e-01   1.80631058e+00
C     3.533587359115689e+00   1.761927040179514e+00   5.297667398338349e+00  6.97911040e-01  -3.12713960e-01   1.34878211e+00
C     5.328633180039819e+00   7.066908365635807e+00   5.369979462377501e+00 -8.52069980e-01   1.43709523e+00   7.06863770e-01
C     4.446745067419879e+00   8.386687609218880e-01   4.534763404490600e+00  5.83021920e-01   1.26402059e+00  -3.26078842e+00
C     6.227581933453116e+00   2.616776348090177e+00   4.475400256348718e+00  4.44761180e-01   1.70623052e+00  -1.13350175e+00
C     4.448073347270651e+00   2.662059061622137e+00   6.178125580664050e+00 -2.95137280e-01   8.34033200e-02   8.78130550e-01
C     6.245708268965664e+00   8.965370077867839e-01   6.219901780401790e+00 -1.78893385e+00  -1.01759245e+00   3.50736910e-01
C     1.525460385829380e-02   3.523602228945601e+00   3.559797819337058e+00 -7.49338080e-01   1.32379056e+00   1.88489950e-01
C     1.773825117960870e+00   5.345945316825472e+00   3.518962063911944e+00  3.04275650e-01  -1.22893572e+00   1.73125607e+00
C     7.089929418796034e+00   5.364556233508025e+00   5.319284964536483e+00  3.50751510e-01  -1.37653354e+00  -4.07235500e-01
C     1.785464804579989e+00   3.529775538569941e+00   5.344491431147003e+00  9.51796570e-01   7.50122960e-01  -1.73870466e+00
C     8.578403899807066e-01   4.397237818324853e+00   4.455948626522897e+00  1.51400387e+00   2.01483298e+00  -6.46331270e-01
C     2.666341601913782e+00   6.231259120474443e+00   4.476660011005434e+00 -6.85284890e-01  -6.48598960e-01  -6.25547460e-01
C     8.426813944066518e-01   6.248764250934228e+00   6.191038741195542e+00  1.43830946e+00  -6.26222870e-01   8.73340200e-02
C     2.675139696590556e+00   4.391668724623213e+00   6.222222538218768e+00 -3.96947470e-01   1.79316342e+00  -1.23589433e+00
C     3.571261288159428e+00   3.475197496198938e+00   3.541107146152708e+00  2.78047740e-01   2.72897542e+00   5.72418100e-02
C     5.354573093696271e+00   5.380501776044983e+00   3.536898817793216e+00 -2.03997010e+00  -4.49882550e-01   7.92020480e-01
C     3.572796991782252e+00   5.262065361235662e+00   5.335370898420186e+00 -1.39099331e+00   2.33749169e+00   1.55851320e-01
C     5.337004129601357e+00   3.560280125811825e+00   5.316278741526259e+00 -1.07083210e-01  -7.71829400e-02  -4.26125020e-01
C     4.409458973914287e+00   4.454116501676818e+00   4.409623747150619e+00  2.15850093e+00  -1.30767476e+00   3.64412360e-01
C     6.196564686771878e+00   6.263853868303512e+00   4.475592823517493e+00 -3.41026100e-02  -1.86759554e+00  -6.71280080e-01
C     4.427220434093750e+00   6.186604293912508e+00   6.262213599783947e+00  9.06522400e-01  -3.80370160e-01  -8.05062350e-01
C     6.242570113631612e+00   4.466339789793039e+00   6.185174221449816e+00 -5.75874960e-01  -1.09152541e+00   5.66664500e-01
