32
Lattice="9.86 0 0 4.93 8.53901048131456 0 0 0 30 " PBC="1 1 1" Properties=species:S:1:pos:R:3:force:R:3 Energy="-254.63867639"
C     1.161236800700000e+00   9.664833755032456e-01   3.250704900000000e+00  9.59442000e-02   3.72331925e+00   1.16681642e+00
C     2.369574032600000e+00   1.687518701286018e+00   3.499800000000000e+00  1.73308143e+00   1.77002100e-02   4.47154720e-01
C     3.614069560700000e+00   9.318860375216391e-01   3.390014100000000e+00  2.36863350e-01   3.23048591e+00   5.94975180e-01
C     4.834843358500000e+00   1.712504443681231e+00   3.394416900000000e+00 -7.38979590e-01   5.27585250e-01  -2.54084470e-01
C     6.002993991199999e+00   9.645987305002047e-01   3.118502100000000e+00  2.50383037e+00   2.18114552e+00   1.58868541e+00
C     7.296071415499999e+00   1.689669080295196e+00   3.158594100000000e+00  6.71342180e-01  -2.19608461e+00  -1.37697330e-01
C     8.592229202399999e+00   9.464719482730511e-01   3.224280300000000e+00 -2.25093065e+00   2.00775793e+00   2.03764960e-01
C     9.785502671400000e+00   1.717801448052290e+00   3.351503100000000e+00 -8.22236630e-01  -1.69157244e+00  -1.02348110e-01
C     2.446426027800000e+00   3.134599531860597e+00   3.889441500000000e+00 -1.26795585e+00  -2.27212285e+00  -1.02166764e+00
C     3.648736926300000e+00   3.900743375965436e+00   3.908141100000000e+00  6.31895810e-01  -1.84724638e+00  -1.54650060e+00
C     4.861208554799999e+00   3.193256044210232e+00   3.556038300000000e+00 -2.67420030e-01  -2.09115011e+00  -5.44152700e-02
C     6.091153828800000e+00   3.834015534739791e+00   3.280017600000000e+00 -3.36049120e-01   7.51530390e-01  -1.27166010e-01
C     7.304721297700000e+00   3.082297494939863e+00   3.166821000000000e+00  2.99042490e-01   1.88551195e+00   3.01303750e-01
C     8.524310958800001e+00   3.870090804655275e+00   3.315377700000000e+00 -3.78916600e-02  -1.44898021e+00   4.68052590e-01
C     9.704279343800000e+00   3.102052751855657e+00   3.587022600000000e+00  3.02956731e+00   1.37828188e+00  -2.69372030e-01
C     1.105429136610000e+01   3.786485779996119e+00   3.881733600000000e+00 -2.91785528e+00  -1.32946443e+00  -7.44412440e-01
C     3.597026945100000e+00   5.303443041130635e+00   3.733637700000000e+00  1.76440827e+00  -1.15461451e+00   1.07903110e-01
C     4.849097221000000e+00   5.947388692640595e+00   3.416211600000000e+00  9.75217100e-02   2.56022730e+00  -5.19123760e-01
C     6.085111275699999e+00   5.282709640564356e+00   3.175326900000000e+00 -6.27065520e-01  -1.23724561e+00   4.62824170e-01
C     7.292010032200000e+00   5.996943815280018e+00   2.982950400000000e+00  1.38587778e+00   1.21929963e+00   1.42282876e+00
C     8.532784741400000e+00   5.309573965265169e+00   3.266777100000000e+00 -1.12280190e-01  -1.85009832e+00  -2.36261730e-01
C     9.799108140300000e+00   5.903313479976712e+00   3.465439200000000e+00 -3.18323710e-01   1.73897839e+00  -2.56349970e-01
C     1.100075181260000e+01   5.161463462247893e+00   3.825908700000000e+00 -3.49354820e-01   2.84298775e+00  -1.38537532e+00
C     1.221271096760000e+01   5.896944829790415e+00   3.687605100000000e+00  4.13131100e-02   4.56364405e+00  -1.59057130e-01
C     4.856182271900000e+00   7.415465669133923e+00   3.280657200000000e+00  2.43150910e+00  -2.76447126e+00  -3.52328030e-01
C     6.116304223799999e+00   8.144715522998455e+00   3.065424300000000e+00 -1.16988852e+00  -1.93348379e+00   7.93561820e-01
C     7.351734024199999e+00   7.452575610949268e+00   3.044412000000000e+00 -5.33077820e-01  -2.22994906e+00   2.42458690e-01
C     8.608634122500000e+00   8.084750748853178e+00   3.276230400000000e+00 -1.75646684e+00  -4.96318850e-01  -1.52784306e+00
C     9.813698721799998e+00   7.359184965670138e+00   3.245724900000000e+00  2.88899190e-01  -1.58957856e+00   1.52049055e+00
C     1.099174396310000e+01   8.111125532083173e+00   3.287098500000000e+00  1.73861770e+00  -9.51193650e-01  -5.23161840e-01
C     1.226946256400000e+01   7.437235449402158e+00   3.419391300000000e+00 -2.15674860e+00  -3.53754822e+00   6.29833600e-01
C     1.351546642560000e+01   8.066804737477886e+00   3.358065600000000e+00 -1.28718916e+00   1.99266746e+00  -7.33489000e-01
