32
Lattice="9.86 0 0 4.93 8.53901048131456 0 0 0 30 " PBC="1 1 1" Properties=species:S:1:pos:R:3:force:R:3 Energy="-254.73415184"
C     5.129168943400000e+00   8.534660195720859e+00  -1.669740000000175e-02 -1.19695671e+00  -2.45173747e+00  -1.00604443e+00
C     1.426353713200000e+00   7.031647992601232e-01  -9.604859999999960e-02 -2.50039180e-01  -6.77457010e-01   7.04180920e-01
C     7.603903819999999e+00   8.518901281099810e+00   5.028300000000000e-02 -1.09236407e+00   2.72071182e+00  -9.30202380e-01
C     3.894777795400000e+00   7.445487719910240e-01  -5.389920000000004e-02 -2.18566274e+00  -2.27677080e+00   1.06961490e-01
C     5.075516985899999e+00   1.203530832103600e-02  -1.133214000000002e-01  1.11434439e+00  -1.59551196e+00   1.26788845e+00
C     6.299611976800001e+00   6.937612993591280e-01   3.459000000000000e-02  3.46887930e-01   1.73755493e+00  -2.21577016e+00
C     7.554783124099999e+00   6.669778390875600e-02  -1.913885999999998e-01 -1.18146992e+00  -4.68229992e+00   6.51952600e-02
C     8.811585559100001e+00   6.518963241678888e-01  -1.427288999999980e-01 -2.68440300e-01   2.49734209e+00   6.92382450e-01
C     1.342048593300000e+00   2.098655234047372e+00  -3.130707000000008e-01  1.98026239e+00   4.66676510e-01  -1.06308307e+00
C     2.611996971900000e+00   2.778876736828993e+00  -6.028389000000018e-01 -2.14893043e+00   1.05656049e+00   1.29105742e+00
C     3.790877700300000e+00   2.101531172777036e+00  -2.795022000000031e-01  2.39875224e+00   2.35571320e+00  -5.58226540e-01
C     5.050053387999999e+00   2.851013870413509e+00  -2.510817000000003e-01 -9.01150450e-01   8.55678770e-01  -2.82060000e-03
C     6.227067914199999e+00   2.143157568015464e+00  -5.835480000000004e-02  3.12074868e+00   1.61805300e-02   2.49947400e-02
C     7.534931838200000e+00   2.864042692603892e+00  -1.179740999999979e-01 -1.14622836e+00  -1.26507305e+00   4.28211100e-01
C     8.757432812199999e+00   2.082479359544584e+00  -1.423541999999998e-01  2.62605260e-01   1.99800194e+00  -9.26555800e-02
C     9.986378775199999e+00   2.819721129487662e+00  -2.999373000000034e-01  4.11554210e-01  -2.24105410e-01  -5.01969320e-01
C     2.612087289500000e+00   4.228258659947723e+00  -7.752333000000000e-01 -5.41028870e-01  -2.21283750e-01   9.05492210e-01
C     3.797440565600000e+00   4.950293220736864e+00  -5.122827000000001e-01  1.35726851e+00   1.79966620e-01  -7.12148430e-01
C     5.088870975500000e+00   4.315758071116492e+00  -3.541542000000000e-01 -2.08953426e+00  -2.01404913e+00   4.35228030e-01
C     6.263706786800000e+00   5.018572685556831e+00  -1.272890999999987e-01  3.56499888e+00  -4.72051520e-01  -7.58489720e-01
C     7.545955318199999e+00   4.296495002764765e+00  -7.487370000000126e-02 -1.06670340e-01  -1.10705519e+00   5.78873800e-02
C     8.819101442699999e+00   4.966203873574143e+00  -5.533949999999876e-02 -4.65323800e-02   2.76886850e-01  -1.37536555e+00
C     1.007541097630000e+01   4.246834935686543e+00  -4.724700000000013e-01 -3.98424441e+00   1.01268170e-01   1.83254935e+00
C     1.122083697120000e+01   4.982416636602205e+00  -7.272882000000003e-01  1.10582413e+00  -1.69102070e-01   7.72986760e-01
C     3.772129058200000e+00   6.356477314518530e+00  -3.994329000000008e-01  1.81205133e+00   1.73531347e+00   6.08708390e-01
C     5.065132631100000e+00   7.066822140740763e+00  -9.100529999999907e-02  5.95093700e-01   1.25125804e+00  -1.46925987e+00
C     6.393752791800000e+00   6.432427201672472e+00  -1.838112000000010e-01 -4.94602025e+00  -5.49738780e-01   1.89422277e+00
C     7.550146311200000e+00   7.145300343507726e+00   7.338030000000001e-02  1.89441726e+00  -1.62143311e+00  -1.47819080e-01
C     8.787395281600000e+00   6.398906974472813e+00   7.250010000000000e-02 -3.84486100e-02  -9.91299470e-01  -1.17294678e+00
C     9.980592631399999e+00   7.083422233284197e+00  -1.585190999999995e-01  3.29075790e-01   1.92594512e+00  -1.69954390e-01
C     1.117013764000000e+01   6.423261086262821e+00  -5.253194999999984e-01  1.28948126e+00  -1.09126318e+00   2.52570570e-01
C     1.241869795310000e+01   7.100660531470906e+00  -4.504073999999996e-01  5.40355330e-01   2.23517328e+00   8.36238590e-01
