32
Lattice="9.86 0 0 4.93 8.53901048131456 0 0 0 30 " PBC="1 1 1" Properties=species:S:1:pos:R:3:force:R:3 Energy="-254.69439642"
C     9.903586622999999e-01   8.148448949160521e-01   3.572748000000000e+00  1.87938905e+00  -4.40479325e+00   4.31632600e-01
C     2.244742735100000e+00   1.444018485246137e+00   3.562134600000000e+00  2.11085955e+00   7.92019110e-01  -2.87088120e-01
C     3.524469472900000e+00   7.564686328903705e-01   3.726375300000000e+00 -1.13537985e+00  -2.86791957e+00  -8.00129220e-01
C     4.772792455800000e+00   1.420561567287262e+00   3.678464400000000e+00 -1.04043611e+00   1.53757340e+00   2.93904260e-01
C     6.032702812099999e+00   8.135560166742007e-01   3.721934400000000e+00 -1.24045363e+00  -3.94742430e+00  -4.69878540e-01
C     7.267520454400000e+00   1.438646166802645e+00   3.728915400000000e+00  9.44344010e-01   5.14457000e-01   6.01691260e-01
C     8.482468717700000e+00   6.839241031158536e-01   3.827092200000000e+00 -1.00237510e-01   9.05260640e-01  -1.45107941e+00
C     9.623077806799998e+00   1.479082480150475e+00   3.630497400000000e+00  2.54910644e+00   1.01933060e+00  -2.20841680e-01
C     2.358077223300000e+00   2.855387807751679e+00   3.377779200000000e+00 -1.58141400e+00   1.23135160e-01   8.03517630e-01
C     3.559518814900000e+00   3.586468340073018e+00   3.468998400000000e+00 -5.76325400e-01  -1.74041731e+00  -1.66709000e-02
C     4.754352678200000e+00   2.834927399350446e+00   3.632624100000000e+00  8.21478850e-01   2.27898490e-01  -6.70858990e-01
C     5.995113534100000e+00   3.485391731460839e+00   3.619983900000000e+00  2.36389188e+00   1.17733859e+00   1.03643904e+00
C     7.306929641899999e+00   2.855486006372199e+00   3.714986700000000e+00 -9.00190900e-01   9.68600380e-01  -1.62313920e-01
C     8.543109689700000e+00   3.680644403536100e+00   3.726795900000000e+00 -1.23279153e+00  -3.53316972e+00  -1.47834304e+00
C     9.748904767100001e+00   2.930637154485841e+00   3.497262600000000e+00 -8.45370740e-01  -2.75253890e-01   1.37741084e+00
C     1.101711285570000e+01   3.608354848614516e+00   3.409281000000000e+00 -9.94670130e-01   1.11795930e-01  -5.34025960e-01
C     3.499831403500000e+00   4.957598600372819e+00   3.476252100000000e+00  3.24492312e+00   3.38879256e+00   1.15786470e+00
C     4.829605332100000e+00   5.627911093833029e+00   3.752935200000000e+00 -3.35062992e+00  -1.19577488e+00  -1.52327122e+00
C     6.012551979400000e+00   4.912954006490129e+00   3.733537200000000e+00  2.89547760e-01  -3.15389700e-02   3.66255850e-01
C     7.161737197899999e+00   5.706724623541541e+00   3.871014300000000e+00  4.27700427e+00  -1.28007775e+00  -1.52452642e+00
C     8.509285847099999e+00   5.047455803115326e+00   3.667064700000000e+00 -1.30187828e+00   8.05751390e-01   1.65555086e+00
C     9.789132778300001e+00   5.697675492575466e+00   3.653257800000000e+00 -2.22453716e+00   1.22508257e+00  -5.14742150e-01
C     1.101997117110000e+01   5.065153243895545e+00   3.422150100000000e+00 -1.70402523e+00  -1.97710733e+00   4.58415490e-01
C     1.219342115940000e+01   5.802720777088435e+00   3.438723300000000e+00  1.01143692e+00  -3.21480831e+00   3.96842500e-02
C     4.875990321700000e+00   7.001501272271906e+00   3.729862500000000e+00 -2.22836386e+00   3.93977446e+00  -1.85537280e-01
C     6.051300103199999e+00   7.777961265717844e+00   3.657350700000000e+00 -3.41418305e+00   4.01113140e+00   5.64055960e-01
C     7.213197770399999e+00   7.119445586015963e+00   3.800114100000000e+00  1.56398953e+00  -7.47377350e-01  -9.75423700e-02
C     8.435303999300000e+00   7.821102822975843e+00   3.754653300000000e+00  1.66706546e+00   1.15295612e+00   5.57538440e-01
C     9.686321621599999e+00   7.102290713961644e+00   3.751099800000000e+00  1.59595835e+00   2.48801142e+00  -8.85689400e-01
C     1.092970232880000e+01   7.887495593430253e+00   3.633118500000000e+00  4.21973260e-01  -2.60418230e-01   1.03222643e+00
C     1.219151601020000e+01   7.161876953772341e+00   3.598989000000000e+00  7.56947390e-01   2.38573876e+00   1.94746450e-01
C     1.349805430650000e+01   7.819637699557683e+00   3.714192000000000e+00 -1.62702854e+00  -1.29856713e+00   2.51604540e-01
