32
Lattice="9.86 0 0 4.93 8.53901048131456 0 0 0 30 " PBC="1 1 1" Properties=species:S:1:pos:R:3:force:R:3 Energy="-255.57172744"
C     1.098591833000000e+00   8.966073718938335e-01   3.792727500000000e+00  7.28827780e-01  -2.02477558e+00  -3.57159600e-01
C     2.331662776300000e+00   1.555735384037234e+00   3.584575800000000e+00  2.62069670e-01   2.25704007e+00  -4.68508820e-01
C     3.560145812300000e+00   8.442088441546759e-01   3.552279600000000e+00  1.66858090e-01   1.37531797e+00   8.58896090e-01
C     4.784336149400000e+00   1.581759982447445e+00   3.665600400000000e+00 -4.04871640e-01   5.85490720e-01  -1.61560296e+00
C     6.020474292199999e+00   9.521994041624064e-01   3.674763000000000e+00  2.08316575e+00  -4.13183082e+00   4.93258840e-01
C     7.311982694700000e+00   1.535834707772966e+00   3.800795700000000e+00 -6.38284280e-01   2.55251728e+00  -4.05880710e-01
C     8.579805060099998e+00   8.974242990264552e-01   3.848655300000000e+00 -3.44352214e+00  -1.78286411e+00  -3.55331690e-01
C     9.734155094499998e+00   1.604903347941494e+00   3.817749900000000e+00  2.39433316e+00   1.78743965e+00  -3.65234550e-01
C     2.376648089600000e+00   3.029455621776584e+00   3.382482000000000e+00 -9.13702770e-01  -1.68611327e+00   7.21785990e-01
C     3.640357405300000e+00   3.746327667609727e+00   3.313936200000000e+00 -2.67913996e+00  -1.29697444e+00   2.81201310e-01
C     4.815930005100000e+00   2.971408197044487e+00   3.470510100000000e+00  1.40468234e+00   1.80165620e+00   9.63338740e-01
C     6.100922032200000e+00   3.652619968871473e+00   3.627680700000000e+00 -1.67001601e+00   1.63539259e+00  -3.25662650e-01
C     7.300898526399999e+00   2.958287922051862e+00   3.749028900000000e+00  1.60947438e+00   1.57318516e+00   1.20264330e-01
C     8.547644648799999e+00   3.784092893089309e+00   3.712207200000000e+00 -1.37890671e+00  -1.15228983e+00  -3.36035620e-01
C     9.747088456500000e+00   3.050918851568588e+00   3.653943900000000e+00 -2.33613140e-01  -1.29330894e+00   4.87365630e-01
C     1.095555140340000e+01   3.709120551855118e+00   3.466096800000000e+00  2.83884424e+00   1.45088605e+00  -2.61232580e-01
C     3.525661053900000e+00   5.143792407010056e+00   3.338386800000000e+00  3.71645238e+00   1.35879609e+00   7.97426180e-01
C     4.830336352500000e+00   5.854879017072686e+00   3.612891300000000e+00 -1.47611063e+00  -1.58238010e+00  -5.34831080e-01
C     6.091423943499999e+00   5.127767587602659e+00   3.665573700000000e+00 -2.02604295e+00  -2.54569000e-02   1.49253150e-01
C     7.233096433600000e+00   5.944082900123369e+00   3.774073500000000e+00  3.75751515e+00  -5.97260149e+00  -1.25377224e+00
C     8.561964967699998e+00   5.201661451813226e+00   3.605550000000000e+00 -2.52529656e+00  -9.23863300e-02   1.16301414e+00
C     9.780633655500001e+00   5.901365560906015e+00   3.528219900000000e+00 -1.37372690e-01  -1.66160624e+00  -2.24049020e-01
C     1.101377154820000e+01   5.160523487974254e+00   3.427004700000000e+00 -3.08336463e+00  -7.90698070e-01  -1.38758330e-01
C     1.216967970910000e+01   5.874519253517314e+00   3.341691000000000e+00  2.98043642e+00   8.66698700e-01   4.62061330e-01
C     4.815640959200000e+00   7.254943458213651e+00   3.802355100000000e+00  4.44458000e-01   3.95935000e-01  -6.93402210e-01
C     6.065124119000000e+00   7.931327529685560e+00   3.834148200000000e+00 -1.42107127e+00   3.57777756e+00   8.39190700e-02
C     7.288825843799999e+00   7.272481731838523e+00   3.744859800000000e+00 -3.01995690e-01   3.17953172e+00   1.30566720e-01
C     8.505109644099999e+00   8.013091031344599e+00   3.623519100000000e+00  8.79054270e-01  -2.25050562e+00  -1.01279340e-01
C     9.751417489500000e+00   7.282312779994252e+00   3.531938700000000e+00  7.98881510e-01   2.50867250e+00   3.75906020e-01
C     1.100536269370000e+01   8.022119839465732e+00   3.567375600000000e+00 -1.10574249e+00   4.51269610e-01  -1.61196570e-01
C     1.224990249320000e+01   7.316423479768604e+00   3.497987400000000e+00 -1.25008792e+00   3.66761520e-01   4.23483590e-01
C     1.346539207050000e+01   8.033223114792875e+00   3.720136200000000e+00  6.24088340e-01  -1.98057666e+00   8.61968400e-02
