32
Lattice="9.86 0 0 4.93 8.53901048131456 0 0 0 30 " PBC="1 1 1" Properties=species:S:1:pos:R:3:force:R:3 Energy="-256.00138549"
C     1.170801148600000e+00   8.171322396533296e-01   3.456812700000000e+00  1.38218248e+00  -2.74749783e+00  -4.12215020e-01
C     2.431149584700000e+00   1.443260904236351e+00   3.443665500000000e+00  3.52312780e-01  -7.30018780e-01  -1.87778280e-01
C     3.673112325300000e+00   7.067422177007192e-01   3.409643400000000e+00 -3.80737350e-01  -9.31595560e-01   2.36840180e-01
C     4.907876674300000e+00   1.366021968060350e+00   3.440240400000000e+00  1.27629445e+00   1.18488704e+00  -4.04595680e-01
C     6.166568088100000e+00   6.960971456759319e-01   3.445226100000000e+00  7.88851530e-01   9.82151810e-01  -3.62373530e-01
C     7.456416362400001e+00   1.437433627314485e+00   3.389214000000000e+00 -2.15453535e+00  -1.09791885e+00   3.66208460e-01
C     8.675357087600000e+00   6.798498850455311e-01   3.384833100000000e+00 -1.55967350e+00   9.61297060e-01   8.66616050e-01
C     9.816562016499999e+00   1.508735304113638e+00   3.492432300000000e+00  1.20947112e+00  -1.51218571e+00  -8.71184200e-01
C     2.431263517000000e+00   2.832052485302040e+00   3.428101500000000e+00  2.35906842e+00   1.29069645e+00   3.87686860e-01
C     3.720665577000000e+00   3.492595667652291e+00   3.492705900000000e+00 -1.79407327e+00   2.91234601e+00  -3.70323760e-01
C     4.942233942900000e+00   2.785468682139343e+00   3.390768900000000e+00 -4.51350630e-01   1.50279549e+00   4.26666990e-01
C     6.152258122199999e+00   3.564788390195032e+00   3.326230800000000e+00  1.35692855e+00  -2.67155305e+00   1.09205421e+00
C     7.420060373199998e+00   2.880118404513750e+00   3.419679900000000e+00 -4.68514430e-01  -1.76193303e+00  -9.54335880e-01
C     8.643223791299999e+00   3.580212831775580e+00   3.398365800000000e+00 -9.97271320e-01   2.44492750e-01   9.99462930e-01
C     9.873264312900000e+00   2.910246680580439e+00   3.436762800000000e+00 -6.06785430e-01  -2.39554160e-01  -1.57495590e-01
C     1.111081450630000e+01   3.592892237657122e+00   3.388889100000000e+00 -3.22273440e-01  -7.77775400e-02   1.03814213e+00
C     3.674915916500000e+00   5.030373341869876e+00   3.540785700000000e+00  7.36765000e-01  -3.01671641e+00  -1.13859800e+00
C     4.962798846300000e+00   5.622691709067233e+00   3.442712100000000e+00 -1.10938905e+00   2.05864999e+00  -1.02759190e-01
C     6.199344453600000e+00   4.939425109758339e+00   3.391905600000000e+00 -1.96634196e+00   7.22993940e-01  -3.51458960e-01
C     7.381613669600000e+00   5.675043784589379e+00   3.366144000000000e+00  2.49942800e-02   1.87261749e+00   1.05873651e+00
C     8.578024146899999e+00   4.970086220078980e+00   3.508102200000000e+00  2.60392238e+00   1.44530028e+00  -1.98593039e+00
C     9.855550527100000e+00   5.671286534588074e+00   3.378153900000000e+00 -6.52250810e-01   7.01029310e-01   8.95185290e-01
C     1.110644406130000e+01   5.010860678241818e+00   3.468618300000000e+00 -1.02193415e+00  -3.60403710e-01  -1.09344452e+00
C     1.228306472980000e+01   5.774304145672462e+00   3.422697600000000e+00  2.08788620e+00  -2.81274658e+00   4.37798370e-01
C     4.954948265000001e+00   7.053709209297151e+00   3.372004200000000e+00  2.61794670e-01   1.70550875e+00   5.15802960e-01
C     6.145000964999999e+00   7.912882583927922e+00   3.350802900000000e+00 -2.62725790e-01  -2.19625030e+00   8.92242120e-01
C     7.370755886900000e+00   7.145130502589280e+00   3.419004900000000e+00  3.09523870e-01  -4.64559630e-01  -9.86387710e-01
C     8.636200907699999e+00   7.805984163360583e+00   3.375082800000000e+00 -7.52972590e-01   6.65508000e-01   2.09095640e-01
C     9.879556521200000e+00   7.098108135848330e+00   3.326288700000000e+00 -9.88005360e-01   5.66915600e-02   9.04916180e-01
C     1.109489524050000e+01   7.832266725277394e+00   3.429110100000000e+00 -4.81256210e-01   3.85542720e-01  -1.07560390e+00
C     1.230423217780000e+01   7.151316588731516e+00   3.334302300000000e+00  1.37550871e+00  -1.74649850e-01   1.24770809e+00
C     1.358636164970000e+01   7.759798021915940e+00   3.434155800000000e+00 -1.55413840e-01   2.10285235e+00  -1.12067834e+00
