32
Lattice="9.86 0 0 4.93 8.53901048131456 0 0 0 30 " PBC="1 1 1" Properties=species:S:1:pos:R:3:force:R:3 Energy="-254.6945876"
C     4.988706686500000e+00   8.248826810545120e+00  -1.574850000000012e-01  2.56693220e+00   2.35620666e+00   5.98187840e-01
C     1.329967776200000e+00   4.615482035420256e-01  -6.562290000000104e-02 -1.10235072e+00   1.32345970e-01  -1.97544928e+00
C     7.490034574699999e+00   8.354233551371708e+00  -3.534714000000001e-01 -1.29433336e+00  -3.15285413e+00   2.02368727e+00
C     3.770186539600000e+00   4.443040134380848e-01  -1.489010999999998e-01  2.86668173e+00   1.30769549e+00   5.15095640e-01
C     1.000482496180000e+01   8.288360294314900e+00  -7.754040000000018e-02 -3.68684661e+00  -9.06088910e-01  -1.39935906e+00
C     6.254233249499999e+00   4.490160955912632e-01  -1.929906000000017e-01  2.07126128e+00  -1.86675596e+00   6.35047040e-01
C     1.246630252610000e+01   8.175432649227844e+00  -1.489910999999999e-01 -1.37810015e+00   4.37853555e+00   7.36803460e-01
C     8.739808062200000e+00   3.979844926497440e-01  -1.009145999999994e-01 -1.60566040e+00   2.71212804e+00  -4.86835250e-01
C     1.310879506400000e+00   1.895880803810594e+00   4.878270000000000e-02 -1.02534250e+00  -1.19396504e+00   1.34336792e+00
C     2.527761611500000e+00   2.527454283036082e+00   3.363198000000000e-01  1.98877626e+00   1.55248216e+00  -1.83796950e+00
C     3.819423731400000e+00   1.849534470529346e+00   1.172082000000000e-01 -2.15123543e+00   4.69846500e-02   1.83149400e-02
C     5.036191214000000e+00   2.563026690624400e+00   3.681930000000000e-02 -8.19552710e-01   1.34217815e+00  -1.07112480e-01
C     6.224468423800000e+00   1.853557539926893e+00  -1.777049999999996e-01  9.35488680e-01  -2.05557300e-01   1.81172110e-01
C     7.448656887499999e+00   2.549371873575727e+00  -1.656779999999998e-01  1.48848779e+00  -1.35932940e-01   2.69644700e-01
C     8.707923829500000e+00   1.894853646239954e+00  -6.014520000000090e-02 -2.96234750e-01  -2.32249111e+00  -4.93053100e-01
C     9.912456038100000e+00   2.620892234433273e+00   8.305590000000000e-02  6.65730490e-01  -9.21352630e-01   3.62021270e-01
C     2.552082928400000e+00   3.973224802452505e+00   3.616620000000000e-01 -7.54894320e-01   9.94285570e-01   8.30713980e-01
C     3.767674211600000e+00   4.715686298721798e+00   3.016416000000000e-01  2.21674141e+00  -6.38475520e-01  -1.15810330e-01
C     5.055311775300000e+00   4.025026453359111e+00   6.917609999999999e-02 -1.73995050e+00  -1.81747825e+00   2.49772080e-01
C     6.294213084499999e+00   4.667198467002271e+00  -1.544664000000004e-01 -2.45829128e+00   2.24376292e+00   8.95986030e-01
C     7.499221580400000e+00   3.943137940586645e+00  -1.636181999999984e-01  1.48449800e-02   1.35706581e+00   2.09921820e-01
C     8.701522471000001e+00   4.698077492870362e+00  -2.129670000000061e-02 -9.15307740e-01   7.08354170e-01  -4.03131750e-01
C     9.907410478899999e+00   4.028905042699336e+00   2.518815000000000e-01  1.19813397e+00   2.02735000e-01  -6.86903860e-01
C     1.116319230530000e+01   4.743912766374382e+00   3.906888000000000e-01 -4.86403730e-01  -4.02395600e-01  -1.23290171e+00
C     3.801736173200000e+00   6.150446020294576e+00   3.232416000000000e-01 -3.87088600e-02  -9.45087920e-01  -1.98771991e+00
C     4.934031310300000e+00   6.886925512772105e+00  -1.135547999999993e-01  2.64995680e+00  -4.22698911e+00   1.73594457e+00
C     6.165697006399999e+00   6.115701811332714e+00  -1.329846000000003e-01  2.90571378e+00   1.30293308e+00  -1.55746369e+00
C     7.458116670099999e+00   6.858766759472628e+00  -3.070067999999999e-01 -2.89389910e+00   6.45975960e-01  -4.66991500e-02
C     8.620237715600000e+00   6.129721500299197e+00  -2.128484999999998e-01  3.31927723e+00  -4.40837600e-02   1.17502659e+00
C     9.905592639999998e+00   6.858803562607797e+00  -7.257539999999807e-02  1.18979730e-01  -2.53418640e-01   1.12008390e-01
C     1.111218332080000e+01   6.171574606265869e+00   1.658109000000000e-01  2.87298095e+00  -1.19598833e+00   8.29327350e-01
C     1.248882789330000e+01   6.850431489782681e+00   1.883589000000000e-01 -5.23287510e+00  -1.05475406e+00  -3.91633930e-01
