32
Lattice="9.86 0 0 4.93 8.53901048131456 0 0 0 30 " PBC="1 1 1" Properties=species:S:1:pos:R:3:force:R:3 Energy="-251.95923829"
C     4.989640625700000e+00   8.476449505108386e+00  -2.273489999999967e-02 -1.28392203e+00  -2.67571251e+00   8.10663700e-02
C     1.280462441700000e+00   6.377323259242936e-01   7.244520000000000e-02 -1.56682020e-01   1.38919008e+00  -2.05981777e+00
C     7.428858648399999e+00   8.480728317869808e+00  -1.348640999999979e-01  6.23178780e-01   2.31995042e+00   2.02649998e+00
C     3.780070055700000e+00   7.228633571463303e-01  -1.186916999999994e-01 -2.99248675e+00  -4.13290355e+00  -2.08585715e+00
C     9.858988068199999e+00   8.449995736031450e+00  -3.140943000000007e-01  1.19876441e+00  -6.76435090e-01   3.05788460e-01
C     6.163818774999999e+00   4.850002542649264e-01  -2.896397999999998e-01  3.10349452e+00   5.33462356e+00   1.30727449e+00
C     1.238488456210000e+01   8.366666350630588e+00  -3.519894000000008e-01 -1.08843056e+00   6.00287637e+00   6.60822180e-01
C     8.701613182999999e+00   6.373780423794784e-01  -1.351199999999970e-01 -1.09108244e+00  -1.04842344e+00  -6.45730770e-01
C     1.268607073500000e+00   2.072205478305362e+00  -2.108195999999971e-01 -1.02379878e+00  -3.02608220e-01  -8.91024000e-03
C     2.478539259000000e+00   2.690331723826947e+00  -5.523087000000011e-01 -6.69219580e-01   4.23626291e+00  -4.40565770e-01
C     3.719214234300000e+00   2.065959704479871e+00  -4.709786999999999e-01  4.34484450e-01  -8.31475360e-01   1.86785683e+00
C     4.957097054800000e+00   2.702022312294905e+00  -3.000761999999995e-01  1.92527348e+00   9.35693490e-01  -1.14246320e-01
C     6.188138070600000e+00   2.002100970775506e+00  -2.184300000000050e-02 -4.41305560e-01  -1.35945533e+00  -1.81936365e+00
C     7.388817089800000e+00   2.796200937461131e+00   3.806789999999999e-02  1.17399951e+00  -4.45177835e+00  -1.49546705e+00
C     8.688594039000000e+00   2.055407109938582e+00  -2.034519000000010e-01 -2.74852102e+00   8.28953540e-01   2.61302457e+00
C     9.849694771699999e+00   2.838615312586653e+00  -2.077190999999985e-01  2.39594902e+00  -4.30826950e+00  -1.19631779e+00
C     2.471724865100000e+00   4.241978288085939e+00  -8.039417999999969e-01  2.66177461e+00  -4.51454634e+00   1.31262320e+00
C     3.748309073000000e+00   4.892834219216944e+00  -5.879399999999997e-01 -6.85241420e-01  -6.49066710e-01  -8.86710210e-01
C     5.047975245100000e+00   4.089521087173923e+00  -4.102332000000004e-01 -2.09703953e+00   4.17735571e+00  -5.59696970e-01
C     6.269553569599999e+00   4.898744239150362e+00  -3.434933999999998e-01 -2.85940653e+00  -1.14300534e+00   2.75979861e+00
C     7.409238135800001e+00   4.156961764994438e+00  -2.148180000000011e-02  2.06332013e+00   2.47816654e+00  -1.02300089e+00
C     8.677307444899999e+00   4.877304235466863e+00  -1.449917999999997e-01 -9.95059450e-01   2.60890789e+00  -1.19472541e+00
C     9.835229165699999e+00   4.160400339124630e+00  -5.290788000000006e-01  1.16182816e+00   2.92617271e+00   1.25279785e+00
C     1.111151392540000e+01   4.869939424317968e+00  -8.079306000000024e-01 -2.63323325e+00  -8.81509060e-01   8.67392260e-01
C     1.350089117640000e+01   6.337186835943163e+00  -5.281412999999979e-01  3.52092833e+00  -1.48145517e+00   6.00475470e-01
C     4.898129127599999e+00   6.936553643951131e+00  -1.207332000000001e-01  2.00831400e-01   3.78557556e+00  -5.20211710e-01
C     6.155430971600000e+00   6.303373379123620e+00  -4.602210000000184e-02  3.62156770e-01  -3.48055200e-02  -1.63930046e+00
C     7.366327662299999e+00   7.106145137902210e+00  -5.689050000000151e-02  2.00634699e+00  -2.49170474e+00  -1.25208990e-01
C     8.647394965700000e+00   6.417771783375753e+00  -1.822334999999988e-01 -5.68026790e-01  -4.00321314e+00  -2.64762380e-01
C     9.917934894999998e+00   7.022095060016837e+00  -4.139412000000000e-01 -3.72309598e+00  -3.66589490e-01   2.16590110e-01
C     1.102924948040000e+01   6.222817720496978e+00  -7.070840999999994e-01  2.93999250e+00   5.62361952e+00  -1.55364100e-02
C     1.232482671050000e+01   7.103976058460081e+00  -6.911406000000007e-01 -7.15771350e-01  -7.29439148e+00   2.23419540e-01
