32
Lattice="9.86 0 0 4.93 8.53901048131456 0 0 0 30 " PBC="1 1 1" Properties=species:S:1:pos:R:3:force:R:3 Energy="-254.67345486"
C     1.500603753000000e-01   7.881037027463600e-02  -7.558530000000019e-02  1.02601229e+00   2.62214818e+00  -5.06291970e-01
C     1.388071178600000e+00   8.649769984936080e-01  -2.676917999999979e-01 -1.00948049e+00  -7.58227690e-01   1.90309922e+00
C     2.602260419100000e+00   1.805967414379128e-01  -3.003222000000001e-01  1.60016286e+00  -4.16515558e+00   1.34906600e-01
C     3.875097531200000e+00   7.601191452606751e-01  -5.524500000000288e-02 -1.75579960e-01   2.28002731e+00  -9.30929580e-01
C     5.131630985400000e+00   4.038115134012960e-02  -2.543240999999981e-01 -1.58448717e+00   6.32265520e-01   1.15156097e+00
C     6.352732874699999e+00   7.627186762211017e-01  -2.349426000000001e-01 -9.20687060e-01   1.12264274e+00   3.21948960e-01
C     7.576676317400000e+00   1.133353828374768e-01  -5.928000000000111e-02  1.09283921e+00   2.86844620e-01  -1.25599100e-01
C     8.828391830499999e+00   8.148296954773976e-01  -7.433999999999941e-03 -2.01202108e+00   1.49770459e+00  -9.43358000e-03
C     1.366365029500000e+00   2.243666759381247e+00   6.675840000000000e-02 -4.35250500e-01   1.09675353e+00   6.54364840e-01
C     2.598437992900000e+00   2.972024542820934e+00   2.802009000000000e-01  9.69120120e-01  -2.49991470e+00   2.00393140e-01
C     3.859598646499999e+00   2.208880538487823e+00   2.288907000000000e-01  3.73771120e-01   1.73631890e-01  -2.21907396e+00
C     5.110170399599999e+00   2.954762847745509e+00  -3.461670000000083e-02 -1.25473800e+00  -3.26074517e+00   9.79244870e-01
C     6.325899722799999e+00   2.200636892380326e+00  -2.549880000000009e-01 -2.37609161e+00  -7.11474100e-01   5.37729080e-01
C     7.488649688400000e+00   2.893662812156917e+00  -1.860534000000023e-01  3.48702351e+00   2.82355759e+00   9.06829740e-01
C     8.736787451200000e+00   2.283428405511053e+00   5.591610000000000e-02  7.09185330e-01  -2.95084572e+00  -1.00740440e+00
C     9.950459583999999e+00   2.966026485689467e+00   2.096670000000000e-01  1.91338753e+00  -5.81322900e-02  -1.07912522e+00
C     2.649964824600000e+00   4.368438727761909e+00   4.914006000000000e-01  1.50630050e-01   7.15951910e-01  -1.18638202e+00
C     3.886472470900000e+00   5.060893473127492e+00   2.999370000000000e-01  5.92811830e-01   9.23744250e-01  -1.66103610e-01
C     5.117405273199999e+00   4.314976666267467e+00   7.911899999999999e-02  3.37829680e-01   3.29638495e+00  -4.60533130e-01
C     6.370474416400000e+00   5.079120759507995e+00  -1.694981999999996e-01 -2.50494505e+00  -8.61353000e-01   5.20261710e-01
C     7.601402091499999e+00   4.352620467018022e+00  -1.665543000000014e-01 -2.69979458e+00  -4.16298150e-01  -5.34515620e-01
C     8.783218536300000e+00   5.078554537723066e+00  -1.026038999999983e-01  1.80270262e+00  -1.30092419e+00   9.61295950e-01
C     1.001724215280000e+01   4.373775950872329e+00   1.563417000000000e-01  1.06439715e+00   1.51351267e+00   9.15180540e-01
C     1.130764288290000e+01   5.110503586994406e+00   4.015842000000000e-01 -2.40290444e+00   2.57358440e-01  -9.73541540e-01
C     3.868460370800000e+00   6.541320420478043e+00   1.467609000000000e-01 -1.98192607e+00  -2.74788643e+00   1.15654849e+00
C     5.019282595800000e+00   7.240616877210517e+00   1.751670000000000e-02  3.57497823e+00  -1.08681556e+00  -1.63342978e+00
C     6.224337581599999e+00   6.485315441662657e+00  -2.391500999999998e-01  3.70406931e+00   7.62446920e-01   1.89279390e-01
C     7.543180664899999e+00   7.171470446656516e+00  -3.888305999999986e-01 -1.66701004e+00   2.29455618e+00   1.34622200e+00
C     8.780369735799999e+00   6.469758560029565e+00  -1.546956000000002e-01 -1.07237551e+00   1.31182000e+00  -1.08701318e+00
C     1.001130505240000e+01   7.166864419013499e+00  -1.205745000000000e-01  1.86664227e+00   7.35567140e-01   8.51520610e-01
C     1.129017096290000e+01   6.565764106487986e+00   2.436399000000000e-01 -1.36272047e+00  -2.24108504e+00  -1.32461215e+00
C     1.251580021910000e+01   7.268290016983996e+00   1.151409000000000e-01 -8.05551070e-01  -1.28806080e+00   5.13602760e-01
