32
Lattice="9.86 0 0 4.93 8.53901048131456 0 0 0 30 " PBC="1 1 1" Properties=species:S:1:pos:R:3:force:R:3 Energy="-255.01638417"
C     4.936152837200000e+00   8.480873993388597e+00  -4.810704000000001e-01 -1.96118850e-01  -5.43917690e-01   1.30666237e+00
C     1.265418793200000e+00   6.604921190675808e-01  -4.252013999999988e-01 -1.30715273e+00   1.64419732e+00  -6.33623680e-01
C     7.394586274400000e+00   8.514107822176758e+00  -5.366411999999983e-01  1.80647716e+00  -6.36487230e-01   1.54664042e+00
C     3.712873366900000e+00   6.836918420307976e-01  -2.846519999999977e-01 -1.88651840e+00   6.76140540e-01  -3.20352630e-01
C     9.829254843799999e+00   8.472514814469307e+00  -1.564022999999999e-01  9.62332030e-01   2.51416910e-01   2.57259880e-01
C     6.137193964899999e+00   5.914210025860136e-01  -1.956042000000018e-01  1.16812252e+00   3.17662734e+00  -1.50108480e-01
C     1.232672688040000e+01   8.478220922832461e+00  -1.390227000000017e-01 -1.95319700e-02  -1.03796727e+00   2.36588100e-02
C     8.629451786999999e+00   6.327714170057280e-01  -4.171844999999976e-01  1.21923600e-01   1.34721126e+00   1.85239100e-01
C     1.298185594500000e+00   2.116504498433926e+00  -1.921998000000009e-01 -1.76042095e+00  -5.21162560e-01   8.98142110e-01
C     2.480839843500000e+00   2.838927498809802e+00   1.781490000000000e-01  1.66676330e-01  -1.23525053e+00  -1.63770961e+00
C     3.673912217800000e+00   2.132771057228011e+00  -9.393509999999949e-02  2.64100765e+00  -1.52147330e+00   4.79089970e-01
C     4.976177880300000e+00   2.800492729518484e+00  -1.112555999999998e-01 -2.46744960e+00   4.35401450e-01   3.95038660e-01
C     6.165053000500000e+00   2.077497273880028e+00  -3.018794999999983e-01  1.48916007e+00  -6.42713490e-01  -3.76160760e-01
C     7.438427729099999e+00   2.812020564446693e+00  -4.683723000000022e-01 -1.13012941e+00   2.29375390e-01   5.59939550e-01
C     8.673143813399999e+00   2.108372371803298e+00  -5.008479000000001e-01 -1.23526730e-01  -7.40071400e-01   1.34953163e+00
C     9.903216626499999e+00   2.814606176820038e+00  -1.755099000000016e-01 -4.47466800e-01   3.50180270e-01  -7.98439890e-01
C     2.491321713700000e+00   4.227617038700255e+00   4.147299000000000e-01 -1.62035086e+00   7.94245870e-01  -3.79509200e-02
C     3.719136291000000e+00   4.967383025531326e+00   3.327459000000000e-01  2.25542530e-01  -1.05935564e+00  -6.83098510e-01
C     4.896364532700000e+00   4.232856404750573e+00   7.531800000000000e-03  2.46135537e+00   3.39165410e-01  -1.33918173e+00
C     6.125151848300000e+00   4.945851483655482e+00  -4.146168000000010e-01  3.28766220e-01  -4.56043770e-01   1.50537730e+00
C     7.410899890900000e+00   4.275814287893148e+00  -4.420454999999990e-01 -3.40882760e-01  -1.08456484e+00   4.19795360e-01
C     8.619537211899999e+00   5.016191411704273e+00  -1.967606999999987e-01  1.03276094e+00  -1.69432317e+00  -3.10235590e-01
C     9.869710620999999e+00   4.269167778305830e+00   5.200800000000000e-02 -2.16520641e+00  -1.68859267e+00  -6.43677840e-01
C     1.104126157330000e+01   4.910166275738725e+00   3.955293000000000e-01  3.09147837e+00   1.86717245e+00  -2.73478660e-01
C     3.752182475400000e+00   6.384170179406219e+00   1.951281000000000e-01 -1.48429746e+00  -5.00493430e-01  -4.73215900e-01
C     4.911866326100000e+00   7.028748059252119e+00  -2.592342000000016e-01  1.54577622e+00   2.17436777e+00  -6.31530390e-01
C     6.165458345099999e+00   6.357921175800595e+00  -4.724139000000029e-01 -2.42056200e-02  -9.28446500e-02   6.36628030e-01
C     7.428737419700000e+00   7.083466550748589e+00  -5.149728000000025e-01 -6.72279150e-01   6.10969680e-01   2.73404200e-02
C     8.685048284400001e+00   6.438717549132670e+00  -2.456735999999999e-01 -3.63148576e+00  -3.00945695e+00  -2.64353350e-01
C     9.846340005299998e+00   7.060278355449519e+00   1.872960000000000e-02  3.15902589e+00   1.70199893e+00   2.61793920e-01
C     1.111478887510000e+01   6.370180974707149e+00   3.328506000000000e-01 -2.22531656e+00  -7.62707780e-01  -6.56498220e-01
C     1.233100794450000e+01   7.056310448059673e+00   2.158221000000000e-01  1.30193511e+00   1.62895576e+00  -6.22521360e-01
