32
Lattice="9.86 0 0 4.93 8.53901048131456 0 0 0 30 " PBC="1 1 1" Properties=species:S:1:pos:R:3:force:R:3 Energy="-256.06532205"
C     4.955389499999999e+00   8.285632080466540e+00  -9.623159999999942e-02 -1.17638150e-01   2.62978140e-01  -5.26879970e-01
C     1.262835029500000e+00   4.531418038947800e-01  -1.318421999999977e-01  2.97009510e-01   1.91363670e-01   1.00281100e-01
C     7.423029169900000e+00   8.276320716488625e+00  -6.816720000000132e-02  2.78296050e-01   4.45640290e-01  -7.76133890e-01
C     3.719504907100000e+00   4.600105839248920e-01  -1.939586999999996e-01  3.22411450e-01  -1.13896590e-01   6.94240400e-01
C     9.890986282499998e+00   8.282609868487354e+00  -2.135262000000004e-01 -1.29948020e-01   3.33859596e+00  -2.71476050e-01
C     6.173038959599999e+00   5.054491350020112e-01  -2.697468000000001e-01  1.30968839e+00  -4.99038810e-01   6.28125200e-02
C     1.232158878510000e+01   8.316272184821401e+00  -2.857610999999984e-01  1.33266323e+00  -1.63927050e+00   6.38132550e-01
C     8.639032256000000e+00   4.640308354489808e-01  -1.508105999999998e-01 -6.68262700e-02  -8.16005460e-01  -6.17123200e-02
C     1.306851844300000e+00   1.877244498828099e+00  -3.015401999999980e-01 -9.89191120e-01  -9.61758300e-02   5.50597620e-01
C     2.525756728400000e+00   2.600703708125723e+00  -3.522356999999978e-01 -2.89435820e-01   2.36671880e-01   2.51988460e-01
C     3.772196599200000e+00   1.905602808802493e+00  -2.164734000000017e-01 -2.54748227e+00  -1.57593293e+00  -5.27821540e-01
C     4.927381972799999e+00   2.612446042997191e+00  -1.802703000000001e-01  3.83783234e+00   1.72007210e+00  -9.93457600e-01
C     6.259398459800000e+00   1.928373446489090e+00  -2.494520999999992e-01 -3.96165035e+00  -2.02433680e-01   1.19628768e+00
C     7.438466133800000e+00   2.640393028836763e+00  -1.177194000000021e-01  1.36010726e+00  -7.50537840e-01  -8.60958250e-01
C     8.663332571100000e+00   1.853444568818243e+00  -9.295709999999957e-02  8.72829820e-01   2.77868440e+00  -1.03972624e+00
C     9.929551897700000e+00   2.586660195320001e+00  -2.637092999999986e-01 -1.10287017e+00   3.80513890e-01   1.15676675e+00
C     2.467699421500000e+00   4.016144345438025e+00  -4.419059999999995e-01  1.65001838e+00   1.21741455e+00   4.52810260e-01
C     3.758617407200000e+00   4.781811200417451e+00  -4.187855999999996e-01 -3.06942135e+00  -2.57481341e+00  -7.25433800e-02
C     4.923605297000000e+00   4.074894189172206e+00  -2.688990000000011e-01  1.93998989e+00  -2.25685946e+00   8.36093020e-01
C     6.175449877500000e+00   4.747386777398065e+00  -1.021581000000005e-01  9.17234010e-01  -1.37293650e-01  -1.86775861e+00
C     7.433276766500000e+00   4.062040331306557e+00  -2.159538000000012e-01 -2.45856700e-01  -1.10991071e+00   1.30295667e+00
C     8.696182097799998e+00   4.710523783765800e+00  -2.375387999999994e-01 -2.63391672e+00   2.73800699e+00   3.07443250e-01
C     9.887905870599999e+00   4.053355389137455e+00  -2.058753000000024e-01  2.07651252e+00  -2.63145571e+00  -1.24731208e+00
C     1.111111513770000e+01   4.766270628294375e+00  -3.531644999999983e-01  5.46349860e-01  -1.15771087e+00  -4.80812210e-01
C     3.730153115499999e+00   6.148126398097683e+00  -4.003884000000006e-01  2.34391226e+00   1.88034567e+00   1.27365891e+00
C     4.971051419799999e+00   6.877189589193123e+00  -1.785599999999974e-01  6.58450800e-02  -7.22528130e-01  -5.54941190e-01
C     6.226171936000000e+00   6.153608698996159e+00  -1.683056999999977e-01 -2.38339557e+00   2.58441520e-01   8.77310980e-01
C     7.428928457200000e+00   6.842053268870020e+00  -7.985580000000070e-02  1.29394526e+00   9.58374090e-01  -6.77020960e-01
C     8.653984255799999e+00   6.153577616998011e+00  -2.303600999999986e-01  2.47257577e+00   6.48847060e-01   6.46853390e-01
C     9.959925479799999e+00   6.935569779163626e+00  -2.475789000000006e-01 -2.39606198e+00  -4.43925079e+00  -6.59002250e-01
C     1.116997307660000e+01   6.177178417283474e+00  -4.256610000000016e-01 -1.38606812e+00  -7.94619400e-02   1.42945545e+00
C     1.239649076810000e+01   6.821033213721927e+00  -3.166974000000025e-01 -1.59745847e+00   3.74662610e+00  -1.16013248e+00
