32
Lattice="9.86 0 0 4.93 8.53901048131456 0 0 0 30 " PBC="1 1 1" Properties=species:S:1:pos:R:3:force:R:3 Energy="-253.37395326"
C     4.960163761300000e+00   8.211493744385931e+00   2.157102000000000e-01 -1.08152898e+00   4.18276580e-01  -6.45836610e-01
C     1.218764181900000e+00   4.029097085045032e-01   1.630929000000000e-01  2.08384004e+00   5.96434990e-01  -2.12468850e-01
C     7.408151465200000e+00   8.234878593096354e+00   2.188875000000000e-01  1.00262914e+00   2.95777377e+00  -2.87870370e-01
C     3.734538054700000e+00   4.805187253947080e-01   1.510473000000000e-01 -3.39839500e-01  -5.70297160e-01  -1.70360702e+00
C     9.931455913000001e+00   8.379795164633693e+00  -8.769600000000821e-03 -1.90834706e+00  -4.09278635e+00   2.19382820e-01
C     6.253166496100000e+00   4.734306635754696e-01   1.812000000000000e-02 -8.99470040e-01  -8.19065100e-01   9.61096340e-01
C     1.235105682480000e+01   8.232584673321009e+00   7.454669999999999e-02  1.96457411e+00   1.98781332e+00  -1.06978276e+00
C     8.685715066900000e+00   4.059415695655320e-01   2.331213000000000e-01 -1.14642182e+00   1.22825695e+00  -2.35155550e-01
C     1.261545686600000e+00   1.829489484987965e+00  -1.205703000000007e-01  1.82038713e+00  -1.33832770e-01   6.02396260e-01
C     2.500649027200000e+00   2.553071229085977e+00  -4.008318000000024e-01  1.17016675e+00  -1.10518190e-01   6.82121330e-01
C     3.741850033500000e+00   1.855883651771749e+00  -1.977036000000005e-01  7.95519630e-01  -2.40723100e-02   7.79181790e-01
C     5.083710793800000e+00   2.507867927747582e+00  -1.263027000000001e-01 -4.83518612e+00   1.82119952e+00  -5.86830460e-01
C     6.258415812200000e+00   1.868071979160587e+00   1.437102000000000e-01  1.07763731e+00  -8.74220190e-01  -4.04264080e-01
C     7.484817895200000e+00   2.557258247484741e+00   2.079957000000000e-01 -8.02445990e-01   1.47366043e+00   4.49241620e-01
C     8.677163045199999e+00   1.901576153020544e+00   2.537127000000000e-01  3.25768539e+00  -3.12346754e+00  -3.80199600e-01
C     9.984212779700000e+00   2.592432907964900e+00   3.511560000000000e-02 -4.35638095e+00  -3.98408230e-01  -7.49998340e-01
C     2.542809450500000e+00   4.007793876309424e+00  -5.928785999999988e-01 -1.30459848e+00  -2.24762379e+00  -8.62873000e-02
C     3.751386033900000e+00   4.721727904806714e+00  -6.294321000000025e-01  2.67019903e+00  -5.30827700e-01   2.22940501e+00
C     4.988080379299999e+00   3.915608768529858e+00  -2.319767999999982e-01  7.57796450e-01   2.86149666e+00  -5.15940590e-01
C     6.222960977700000e+00   4.674905265520890e+00   6.048749999999999e-02 -2.06203903e+00   1.50453500e-02   5.81514710e-01
C     7.476194043400000e+00   3.974398062492458e+00   2.151177000000000e-01 -2.44974761e+00   6.21816540e-01  -1.24639840e+00
C     8.589261441000000e+00   4.723233076184022e+00  -6.724409999999992e-02  5.05678248e+00  -1.31994754e+00   4.37273660e-01
C     9.873310013999998e+00   3.967782378732973e+00  -2.817618000000017e-01  9.91977890e-01   1.15211872e+00   7.63691930e-01
C     1.114854493020000e+01   4.628426492187097e+00  -5.276952000000001e-01 -1.62950600e+00   4.29262693e+00   6.78017730e-01
C     3.811560036300000e+00   6.179684873029668e+00  -4.465830000000004e-01 -4.78220636e+00  -2.56814550e+00  -5.35614580e-01
C     4.924249105700000e+00   6.770826564582880e+00  -8.872500000002503e-03  2.31950265e+00   3.06170813e+00   1.35676593e+00
C     6.103495689400000e+00   6.102255943870486e+00   2.495799000000000e-01  4.74775710e+00  -9.38151300e-01  -1.64111957e+00
C     7.444665066499999e+00   6.881578555189738e+00   2.306094000000000e-01 -1.09144946e+00  -4.04183448e+00   4.56862720e-01
C     8.726796756900001e+00   6.114848849575866e+00   4.960740000000000e-02 -4.70357904e+00   1.34959827e+00  -1.26359990e-01
C     9.852029767600001e+00   6.850093771918197e+00  -1.577729999999988e-01  4.84772569e+00   2.12104780e+00   2.33603470e-01
C     1.115923622680000e+01   6.165016816997439e+00  -3.795041999999995e-01 -1.66945437e+00  -1.48507947e+00  -8.43705510e-01
C     1.237523960870000e+01   6.919081206097060e+00  -3.882687000000011e-01  4.98020020e-01  -2.68059634e+00   8.40884270e-01
