32
Lattice="9.86 0 0 4.93 8.53901048131456 0 0 0 30 " PBC="1 1 1" Properties=species:S:1:pos:R:3:force:R:3 Energy="-255.81843707"
C     1.149825822700000e+00   1.053946410487370e+00   3.331334100000000e+00  2.10097832e+00  -1.59255091e+00   3.16010020e-01
C     2.418856777600000e+00   1.782912256863338e+00   3.294286200000000e+00 -1.26577804e+00  -4.23797284e+00   5.65164380e-01
C     3.613094110900000e+00   1.024138945044415e+00   3.473479200000000e+00  1.44447711e+00   4.34278520e-01  -4.39352230e-01
C     4.894580267099999e+00   1.668949512925895e+00   3.412823100000000e+00  1.28486520e-01  -5.93085890e-01  -1.23776270e-01
C     6.152817430700000e+00   9.327710205677864e-01   3.456614700000000e+00 -1.67695465e+00   2.03345559e+00   2.53878700e-02
C     7.342957933999999e+00   1.714960177705174e+00   3.479094600000000e+00  5.94619110e-01  -8.15738600e-01   4.23364600e-01
C     8.593455145500000e+00   9.761386054331912e-01   3.508272300000000e+00 -1.10112074e+00   1.28117800e-01  -6.94957310e-01
C     9.805611007500001e+00   1.725771162703588e+00   3.418536900000000e+00 -5.86688650e-01  -1.82866523e+00  -6.30701210e-01
C     2.427001482700000e+00   3.123730310810710e+00   3.183359100000000e+00 -1.16749964e+00   3.25802618e+00  -3.24343150e-01
C     3.660596534300000e+00   3.804300888340753e+00   3.214959600000000e+00 -2.65385000e-02   1.95414538e+00  -3.92544030e-01
C     4.886402531000000e+00   3.059640511482755e+00   3.281121300000000e+00  1.19007290e-01   3.17030359e+00   6.92918080e-01
C     6.081878230999999e+00   3.891502714994294e+00   3.410833800000000e+00  5.72759640e-01  -2.33740849e+00  -9.20789900e-02
C     7.309996299100000e+00   3.170438185795681e+00   3.525807900000000e+00  5.87227720e-01  -9.58451570e-01  -8.21004700e-01
C     8.552267066099999e+00   3.850752422231114e+00   3.442367100000000e+00  7.96128530e-01   2.96530220e-01  -5.12862370e-01
C     9.825115911600001e+00   3.085942713123670e+00   3.262533900000000e+00 -2.10822159e+00   4.28135211e+00   9.43975260e-01
C     1.101063927270000e+01   3.847920032454899e+00   3.148095600000000e+00  1.65644142e+00   7.47579000e-01   5.64168610e-01
C     3.638696093900000e+00   5.306782989689781e+00   3.206201700000000e+00  3.95706270e-01  -2.83442228e+00   2.65277330e-01
C     4.882246935400000e+00   5.935205915608569e+00   3.425188200000000e+00 -8.95528200e-01   3.03912594e+00  -1.70479630e-01
C     6.092087028500000e+00   5.294928964561236e+00   3.443328300000000e+00  1.81175956e+00  -7.52433270e-01   8.51897790e-01
C     7.350740136199999e+00   6.035514354837968e+00   3.628304700000000e+00 -1.31874384e+00  -1.06107504e+00  -1.17899672e+00
C     8.549206374200001e+00   5.303890058329262e+00   3.442519500000000e+00  1.42581563e+00  -1.21370688e+00   1.03456045e+00
C     9.827258933300000e+00   5.978875183714233e+00   3.421541400000000e+00 -1.88150796e+00   1.52371727e+00  -4.65133230e-01
C     1.105098501230000e+01   5.334812974711220e+00   3.249176700000000e+00 -7.11107830e-01  -3.36693373e+00  -8.76254440e-01
C     1.226785153860000e+01   6.022025792323341e+00   3.153272400000000e+00  8.32720300e-01  -3.62362750e-01   1.60763222e+00
C     4.924386455500000e+00   7.385654617306566e+00   3.537760500000000e+00 -2.55779623e+00  -5.85847940e-01  -1.82475722e+00
C     6.093523088200000e+00   8.139765800183618e+00   3.404850000000000e+00  9.07782390e-01   8.30179420e-01   1.72252403e+00
C     7.320383907700000e+00   7.449875832005807e+00   3.638172000000000e+00  9.87221920e-01   2.07750160e-01  -8.84661430e-01
C     8.569442200099999e+00   8.168493166190958e+00   3.613142400000000e+00 -5.01413180e-01  -1.52746382e+00  -8.32352280e-01
C     9.797234641699998e+00   7.419511793859765e+00   3.444035700000000e+00 -7.01202430e-01  -7.58596340e-01   9.23000090e-01
C     1.103478981440000e+01   8.064276165694549e+00   3.420120600000000e+00  5.52747910e-01   2.02292340e+00   3.12158820e-01
C     1.227375067800000e+01   7.424407293958055e+00   3.408972300000000e+00 -1.33433990e-01  -2.43024361e+00  -1.37492148e+00
C     1.350606792290000e+01   8.047611005891257e+00   3.415269300000000e+00  1.71965584e+00   3.32947464e+00   1.39113717e+00
