32
Lattice="9.86 0 0 4.93 8.53901048131456 0 0 0 30 " PBC="1 1 1" Properties=species:S:1:pos:R:3:force:R:3 Energy="-251.93911405"
C     5.063375184700000e+00   8.299800604385689e+00  -2.486291999999999e-01 -4.35882793e+00  -1.61599060e+00   1.05765542e+00
C     1.318178174200000e+00   4.617516027716592e-01  -2.260106999999998e-01  1.07792296e+00  -5.29180500e-02   6.96263910e-01
C     7.452104633699999e+00   8.266711084874643e+00  -2.271606000000013e-01  1.97630413e+00  -2.53731226e+00  -8.76156840e-01
C     3.755740604300000e+00   3.916201119686856e-01  -1.712477999999997e-01 -9.40744310e-01   2.74967450e+00   3.92175690e-01
C     9.891779913899999e+00   8.258585362501874e+00  -1.975811999999983e-01  1.03118206e+00  -1.78110604e+00   1.93668479e+00
C     6.137221622200000e+00   4.772965297900800e-01  -8.769029999999844e-02  2.09669509e+00  -2.61579718e+00  -3.44091190e-01
C     1.232395750220000e+01   8.197755586594974e+00   8.335200000000001e-03  2.27352598e+00   3.07982573e+00  -1.26625419e+00
C     8.656087738899998e+00   3.917159196662712e-01  -2.993945999999994e-01  8.47064790e-01   1.41605290e+00   1.01153857e+00
C     1.350903810000000e+00   1.834845664701650e+00   1.389216000000000e-01 -1.23821345e+00  -4.51167700e-02  -6.59864860e-01
C     2.543459125900000e+00   2.538194991978246e+00   3.665115000000000e-01  5.99604320e-01  -3.45353660e-01   4.37946320e-01
C     3.750779052300000e+00   1.817979496591658e+00   8.108219999999999e-02  1.12685373e+00   1.47524384e+00   8.80500010e-01
C     5.002866336700000e+00   2.610721248270335e+00   1.399920000000000e-01 -3.08106972e+00  -1.12072131e+00  -2.50041100e-01
C     6.144429873800000e+00   1.886355537620154e+00  -1.306964999999991e-01  3.18093378e+00   7.20620410e-01  -1.97542350e-01
C     7.412956933399999e+00   2.610963499997653e+00  -2.489526000000026e-01  2.18727714e+00  -1.67422357e+00  -3.32738400e-01
C     8.703343711600001e+00   1.887952503360123e+00  -3.618458999999987e-01 -1.03071138e+00  -2.05254286e+00   2.37352995e+00
C     9.964523345700000e+00   2.511821404209718e+00   1.210914000000000e-01 -2.36490637e+00  -4.10174460e-01  -2.01344937e+00
C     2.495216660200000e+00   3.927471759619408e+00   7.810389000000000e-01  4.31876540e-01   1.33701097e+00  -1.90562045e+00
C     3.716067661800000e+00   4.735039112073671e+00   6.755766000000000e-01  3.14515825e+00  -1.38655258e+00  -2.53519308e+00
C     4.962391529700000e+00   4.025383554777385e+00   2.851887000000000e-01  7.90467080e-01   1.04387090e-01  -2.51617310e-01
C     6.216448743499999e+00   4.711028866235692e+00  -1.412861999999997e-01 -1.50760326e+00   6.01763600e-02   4.39588770e-01
C     7.508266010500000e+00   4.014772638794518e+00  -2.470889999999990e-01 -3.84957383e+00   2.68874990e-01   7.52401240e-01
C     8.666035542199999e+00   4.739885000521070e+00  -2.701619999999849e-02  3.48303871e+00  -5.84061667e+00   8.54495200e-02
C     9.896722238900001e+00   3.889051762816220e+00   2.377623000000000e-01  5.42903270e-01   3.96160778e+00   8.42017700e-01
C     1.111892475070000e+01   4.633971127862076e+00   5.979018000000000e-01 -6.58875620e-01   1.47577768e+00  -7.52409400e-01
C     3.868402788400000e+00   6.118284520442494e+00   2.927694000000000e-01 -3.01311278e+00   7.89039450e-01   2.13733701e+00
C     5.058898793999999e+00   6.861911079301678e+00   6.190110000000000e-02 -7.32879130e-01   5.28827510e-01  -2.47002724e+00
C     6.145481689300000e+00   6.111974106307669e+00  -3.358859999999986e-01  6.20875648e+00  -1.91790070e-01   1.77551249e+00
C     7.627868352800000e+00   6.819939281089335e+00  -3.623468999999986e-01 -5.63266271e+00   4.62148000e-01   4.92155380e-01
C     8.820401730200000e+00   6.061670027059047e+00  -1.037558999999995e-01 -4.15568784e+00   3.24694536e+00  -7.09583030e-01
C     9.938767053699999e+00   6.792163160849467e+00   9.763050000000000e-02  3.20993643e+00   3.05734603e+00  -6.69330700e-01
C     1.115683354200000e+01   6.168627452188801e+00   4.119093000000000e-01  1.63051624e+00  -3.25613873e+00   5.60201930e-01
C     1.248291470340000e+01   6.832013441908055e+00   3.333336000000000e-01 -3.27514866e+00   1.92796220e-01  -6.37039180e-01
