32
Lattice="9.86 0 0 4.93 8.53901048131456 0 0 0 30 " PBC="1 1 1" Properties=species:S:1:pos:R:3:force:R:3 Energy="-254.97160565"
C     1.116453173700000e+00   8.609897075499719e-01   3.798548700000000e+00  3.05024925e+00   1.02479368e+00  -7.93555810e-01
C     2.425380350800000e+00   1.586243816850493e+00   3.634559100000000e+00 -4.37806350e-01  -2.43885231e+00   5.00857900e-01
C     3.713795819200000e+00   7.910633237787280e-01   3.788658000000000e+00 -3.06745179e+00   2.50344367e+00  -3.05504630e-01
C     4.885048062800000e+00   1.583964413392962e+00   3.785896800000001e+00  4.77840490e-01  -2.35736579e+00   2.71552990e-01
C     6.124255377100000e+00   8.904317033443833e-01   3.950098200000000e+00  8.20029340e-01  -1.25135255e+00  -1.60363810e-01
C     7.422640784500000e+00   1.534330817247228e+00   3.896865599999999e+00 -3.08352103e+00   1.09862107e+00  -5.86482230e-01
C     8.612835123400000e+00   8.977727760441441e-01   3.744874800000000e+00 -1.44343405e+00  -4.15685748e+00   7.64522400e-01
C     9.744577706099999e+00   1.607050909077214e+00   3.634310400000000e+00  4.87945087e+00   1.46796020e-01   3.51152980e-01
C     2.438935977400000e+00   2.976948733994435e+00   3.385189200000000e+00  1.83473250e-01   1.50900900e-01   5.07828760e-01
C     3.713926858600000e+00   3.674194291189822e+00   3.391249500000000e+00 -3.19533561e+00   1.91509442e+00   5.58465840e-01
C     4.839674906400000e+00   2.955335986128926e+00   3.640239900000000e+00  4.31753429e+00   1.41719690e+00   6.95151280e-01
C     6.168932220299999e+00   3.645751786572095e+00   3.878987700000000e+00 -1.35133380e+00   1.17241600e-02  -3.81066540e-01
C     7.440290135200000e+00   2.950294895901954e+00   3.850315800000000e+00 -3.46457798e+00  -3.95207210e-01   3.44649430e-01
C     8.570940969399999e+00   3.685133275955331e+00   3.730008000000000e+00  2.69054785e+00   3.05074454e+00   7.87925450e-01
C     9.841660005600000e+00   3.025748495766797e+00   3.565184400000000e+00 -1.57878745e+00  -3.76544900e-01   5.47337700e-02
C     1.105735432580000e+01   3.706669343506729e+00   3.430193400000000e+00  6.86632490e-01   3.58384840e-01   8.64387000e-02
C     3.643544946100000e+00   5.144959689742672e+00   3.500226300000000e+00  7.39883920e-01  -2.37266781e+00   2.66653820e-01
C     4.870830583700000e+00   5.791438780271945e+00   3.725759700000000e+00  1.71208682e+00   6.59787120e-01   5.98946410e-01
C     6.146344488600000e+00   5.043419156691115e+00   3.993651000000000e+00 -9.33912410e-01   2.06200733e+00  -1.64578744e+00
C     7.379108835199999e+00   5.864909536513227e+00   4.008914400000000e+00 -2.03071647e+00  -2.33315963e+00   3.94494260e-01
C     8.568737012900000e+00   5.159950093420522e+00   3.947670900000000e+00  2.30046973e+00  -2.42382842e+00  -2.05902818e+00
C     9.865917824099999e+00   5.804542404194134e+00   3.754310100000001e+00 -2.98398430e+00   1.11747108e+00   1.23466187e+00
C     1.105854423060000e+01   5.152839915564140e+00   3.526566300000000e+00 -1.29466914e+00  -3.20479537e+00   2.04363590e-01
C     1.223976616670000e+01   5.800700020258343e+00   3.621851100000000e+00  3.74638484e+00   2.68101966e+00  -8.45528440e-01
C     4.913240021299999e+00   7.242220417988555e+00   3.750551100000000e+00  1.00930431e+00  -5.64665800e-01   1.42524924e+00
C     6.156578527699999e+00   7.979218655352745e+00   3.976180800000000e+00 -2.87465123e+00   1.76805230e-01  -1.64673746e+00
C     7.341531635699999e+00   7.250798195576135e+00   3.970713900000000e+00  9.08906550e-01   1.22694524e+00   4.37031900e-01
C     8.575060970399999e+00   7.937363926974081e+00   3.936457500000000e+00  1.28784986e+00  -3.67908510e-01   1.19292910e-01
C     9.819597368200000e+00   7.207806412561956e+00   3.948426000000000e+00  6.02858580e-01   1.56106142e+00  -4.53692830e-01
C     1.102585088630000e+01   7.988408338431321e+00   3.965973900000000e+00  2.01093109e+00  -1.08133357e+00  -1.14213709e+00
C     1.233056163160000e+01   7.226505308491269e+00   3.741689100000000e+00 -2.05580109e+00   1.86921155e+00   1.35962195e+00
C     1.357655992230000e+01   7.959420788774655e+00   3.791983200000000e+00 -1.62845082e+00   2.92530500e-01  -9.43710990e-01
