32
Lattice="9.86 0 0 4.93 8.53901048131456 0 0 0 30 " PBC="1 1 1" Properties=species:S:1:pos:R:3:force:R:3 Energy="-254.66138933"
C     1.143778832600000e+00   7.966399807430065e-01   3.750046800000000e+00  3.88161299e+00  -1.74509620e-01  -4.37737560e-01
C     2.444851090000000e+00   1.542942323926203e+00   3.748787400000000e+00 -1.99723313e+00  -1.28815298e+00  -7.16338670e-01
C     3.601509103900000e+00   7.345037362326664e-01   3.577623300000000e+00  3.18745434e+00   3.63445668e+00   7.61177870e-01
C     4.976724962400000e+00   1.416825408641843e+00   3.648913200000000e+00 -2.34597651e+00   1.64458920e-01  -5.34078990e-01
C     6.265949542400000e+00   7.854549016954641e-01   3.629967900000000e+00 -5.02378820e+00  -9.95322420e-01   5.96896880e-01
C     7.406122523700000e+00   1.550832454999828e+00   3.668337900000000e+00  1.53539627e+00  -3.04020231e+00  -1.35586416e+00
C     8.613476910799999e+00   7.368904750519312e-01   3.547556400000000e+00  3.90716710e-01   3.76861298e+00   6.71097170e-01
C     9.830325935599998e+00   1.512707224838410e+00   3.617036100000000e+00 -3.81258120e-01  -1.26366036e+00   6.70728100e-01
C     2.459947440200000e+00   2.986156690555438e+00   3.710242200000000e+00 -2.58072300e+00  -1.98263165e+00  -3.43734600e-02
C     3.656395139000000e+00   3.612983931585829e+00   3.632577000000000e+00  3.00150119e+00  -2.62677560e+00   7.36711260e-01
C     4.924323351500000e+00   2.808545016401124e+00   3.666826500000000e+00 -1.03949174e+00   2.62462612e+00  -5.78414880e-01
C     6.105342960400000e+00   3.589496529359541e+00   3.606172800000000e+00  1.06306897e+00   1.33084736e+00   9.35183690e-01
C     7.362130851900000e+00   2.935952005388803e+00   3.570595500000000e+00  3.66713300e-02  -7.61157000e-02   3.57854770e-01
C     8.604592015500000e+00   3.585585406389386e+00   3.560672400000000e+00  1.22227395e+00   1.76680743e+00   1.60844366e+00
C     9.861213716699998e+00   2.915921877725657e+00   3.719502300000000e+00 -6.20681690e-01   1.49731205e+00  -1.60669734e+00
C     1.107718441270000e+01   3.736731698412513e+00   3.680928000000000e+00 -4.31313430e-01  -3.71653672e+00   6.91957010e-01
C     3.664510165500000e+00   4.960640708246424e+00   3.719867100000000e+00  1.85144816e+00   3.78832497e+00  -3.29892580e-01
C     4.923281642499999e+00   5.709012566009553e+00   3.622117800000000e+00 -1.41721169e+00   2.11226236e+00   4.95804420e-01
C     6.123877591199999e+00   5.067359126472843e+00   3.712748400000000e+00  2.52012514e+00  -2.15168608e+00  -1.74252877e+00
C     7.424636399199999e+00   5.783125968179560e+00   3.563073900000000e+00 -2.02357960e+00  -2.03737883e+00   1.43005283e+00
C     8.654485587500000e+00   5.010899445349398e+00   3.707889300000000e+00 -2.85927252e+00   3.81996520e-01  -2.14560777e+00
C     9.814490775599999e+00   5.747577555210691e+00   3.651426600000000e+00  7.72623470e-01   2.46425387e+00   5.98537930e-01
C     1.105687542560000e+01   5.122996927837589e+00   3.692281800000000e+00  1.97535057e+00  -9.07263020e-01   8.21605690e-01
C     1.235750812420000e+01   5.717138032212006e+00   3.843007200000000e+00 -2.03948658e+00   3.44784116e+00  -1.84213677e+00
C     4.953898125700000e+00   7.171683068017468e+00   3.561584700000000e+00 -1.82830835e+00  -1.35970496e+00   9.36188320e-01
C     6.147463352100000e+00   7.882894859973733e+00   3.714164400000000e+00 -1.12803348e+00   1.22015575e+00  -1.32328385e+00
C     7.351393509099999e+00   7.189487929549526e+00   3.544239300000000e+00  4.57140250e-01  -7.26852210e-01   3.38583370e-01
C     8.535036173800000e+00   7.917324577179618e+00   3.469748400000000e+00  1.64424808e+00  -2.09586435e+00   1.30482789e+00
C     9.767937426499998e+00   7.182761067873591e+00   3.652645800000000e+00  1.36241852e+00   9.82663180e-01  -7.99447640e-01
C     1.104317673040000e+01   7.901937621855077e+00   3.700713300000000e+00  2.18044192e+00  -7.69031670e-01  -5.08928730e-01
C     1.234299297170000e+01   7.239157304149170e+00   3.696501900000000e+00 -1.90183362e+00  -4.09064351e+00   6.47080630e-01
C     1.356122560100000e+01   7.886779853571819e+00   3.554087700000000e+00  5.35699820e-01   1.17712650e-01   3.52599640e-01
