32
Lattice="9.86 0 0 4.93 8.53901048131456 0 0 0 30 " PBC="1 1 1" Properties=species:S:1:pos:R:3:force:R:3 Energy="-254.35478939"
C     1.218835962700000e+00   8.885167448541383e-01   3.798809700000000e+00 -7.45417070e-01  -2.96520409e+00   5.29552600e-02
C     2.449083002000000e+00   1.490363708456022e+00   3.749137500000000e+00 -9.00595350e-01   5.25151356e+00  -9.55986610e-01
C     3.647848145900000e+00   8.864487672960920e-01   3.782979600000000e+00  2.64029638e+00  -2.78299652e+00   7.43322900e-02
C     4.891518934300000e+00   1.576975147924977e+00   3.717246900000000e+00  1.73480120e-01   9.24046970e-01   6.42995210e-01
C     6.077853329700000e+00   8.132434888906328e-01   3.877227000000000e+00  1.56541280e+00   2.29193220e-01  -4.85775170e-01
C     7.306358304199999e+00   1.519088768930533e+00   3.884304000000000e+00  2.25171195e+00   1.20078010e+00  -1.08679126e+00
C     8.596418519200000e+00   8.358516292077952e-01   3.773276400000000e+00 -3.81268450e-01   3.05437152e+00  -4.12417280e-01
C     9.904673441500000e+00   1.601432240181374e+00   3.612004500000000e+00 -4.30103425e+00  -1.57672418e+00   1.66250839e+00
C     2.430788412900000e+00   2.976205413132151e+00   3.537270900000000e+00 -5.41550210e-01  -6.30614910e-01   5.32762010e-01
C     3.616071042100000e+00   3.743187531895812e+00   3.441297600000000e+00  3.27160407e+00  -3.07476616e+00   1.56093514e+00
C     4.979404910400000e+00   3.050079552228509e+00   3.685957200000000e+00 -5.16125290e+00  -3.29101022e+00  -5.54149030e-01
C     6.155185950600000e+00   3.647698766351640e+00   3.964196700000000e+00  5.14716500e-01   2.96633544e+00  -1.47962779e+00
C     7.356838102499999e+00   2.942841108263857e+00   3.795864300000000e+00  1.50317896e+00   1.18263621e+00   1.54770468e+00
C     8.631676548100000e+00   3.755174253247217e+00   3.755780400000000e+00 -2.71294763e+00  -2.25632248e+00  -3.71206090e-01
C     9.798576489100000e+00   2.996273795562247e+00   3.656917500000000e+00  1.51318793e+00   5.33207450e-01  -2.00547240e-01
C     1.103345659450000e+01   3.697790565799730e+00   3.620159400000000e+00  1.09945181e+00  -1.68319774e+00  -1.12768899e+00
C     3.660386319100000e+00   5.102819502243664e+00   3.542543100000000e+00  1.71600746e+00   3.17671455e+00   6.03110180e-01
C     4.971427677399999e+00   5.883393932499283e+00   3.716762100000000e+00 -3.59168556e+00  -1.86105500e+00   2.01651120e-01
C     6.129083671200000e+00   5.114254688908165e+00   3.958685700000000e+00 -8.55204810e-01  -3.67759520e-01  -6.43088140e-01
C     7.299488644999999e+00   5.812273709672830e+00   3.952742100000000e+00  4.38433234e+00   1.98251216e+00  -7.30546110e-01
C     8.599123215799999e+00   5.177679726270251e+00   3.769043400000000e+00 -1.46806903e+00  -1.53651582e+00   1.09586083e+00
C     9.816235058899998e+00   5.857946229637101e+00   3.770212800000000e+00  1.09164555e+00  -6.14903470e-01  -6.20675750e-01
C     1.102543119540000e+01   5.065243330456108e+00   3.540739800000000e+00  1.44869954e+00   3.90518935e+00   2.01323299e+00
C     1.232619113730000e+01   5.810018130054538e+00   3.674313600000000e+00 -2.46058186e+00  -5.80382810e-01  -8.52973210e-01
C     4.875229573400000e+00   7.311689110798072e+00   3.743574600000000e+00 -4.28147820e-01  -1.46753932e+00   5.82138280e-01
C     6.088239311400000e+00   7.956123620658013e+00   3.937020600000000e+00  2.60574133e+00   2.13477802e+00  -1.44975805e+00
C     7.400604078899999e+00   7.250890416889319e+00   3.880774200000000e+00 -2.86297564e+00   3.15069600e-02   1.06036811e+00
C     8.629332826099999e+00   7.970983804426043e+00   3.884979300000000e+00 -4.02200760e-01   5.73469710e-01  -1.71049200e-02
C     9.867035701599999e+00   7.270469770189226e+00   3.914963700000000e+00 -1.01694480e+00  -1.07896280e+00  -1.01001852e+00
C     1.110701663150000e+01   7.912042772247213e+00   3.843220200000000e+00 -3.15348540e+00   2.14464707e+00   9.88539360e-01
C     1.227490326270000e+01   7.219510578056577e+00   3.838278600000000e+00  1.70270633e+00   1.18114810e-01  -9.12002250e-01
C     1.343544808860000e+01   8.028726215703793e+00   3.746792400000000e+00  3.50118844e+00  -3.64106207e+00   2.91262570e-01
