32
Lattice="9.86 0 0 4.93 8.53901048131456 0 0 0 30 " PBC="1 1 1" Properties=species:S:1:pos:R:3:force:R:3 Energy="-252.40594627"
C     1.187452519400000e+00   9.999691904906703e-01   3.445248900000000e+00 -1.57938345e+00  -2.16994521e+00  -1.74585490e-01
C     2.388889624700000e+00   1.611283013451311e+00   3.702677700000000e+00  7.91712420e-01   4.50928634e+00   2.02282660e-01
C     3.615176690799999e+00   1.035863433383979e+00   3.279097500000000e+00 -3.22110400e-01  -1.86502305e+00  -3.75671300e-01
C     4.861948942200000e+00   1.705526108146661e+00   3.240689400000000e+00  2.61711010e-01   8.63259050e-01   3.09416970e-01
C     6.087827360600000e+00   9.940629277218640e-01   3.036703500000000e+00  1.53340674e+00  -1.37543888e+00   1.06631482e+00
C     7.328602168400001e+00   1.690031219729653e+00   3.122322000000000e+00  9.87475270e-01   1.03531692e+00   3.31400940e-01
C     8.645382490399999e+00   1.032811420258217e+00   3.201321600000000e+00 -3.73963113e+00   4.91391740e-01   1.21794310e+00
C     9.806110416500001e+00   1.721561430536948e+00   3.621463800000000e+00  5.83093970e-01   5.92894180e-01  -2.01085826e+00
C     2.344218796100000e+00   3.170406249896486e+00   4.104534600000000e+00  2.42959618e+00  -1.75709048e+00  -2.35397840e+00
C     3.682205020100000e+00   3.832987010927475e+00   3.888441600000000e+00 -1.15394569e+00  -1.33893242e+00  -3.60621190e-01
C     4.905128938800000e+00   3.152675763145709e+00   3.442880100000000e+00 -3.01104727e+00  -2.64821793e+00   3.93965140e-01
C     6.070088431800000e+00   3.789780386409618e+00   3.144553200000000e+00  1.83091447e+00   2.79358380e+00   1.01601865e+00
C     7.297628999700001e+00   3.104575602501974e+00   3.208853100000000e+00  2.10058176e+00   3.10437470e-01  -1.27640906e+00
C     8.608470347899999e+00   3.854037208782561e+00   3.260632200000000e+00 -2.54040853e+00  -3.34917930e-01   8.43212700e-01
C     9.761549132499999e+00   3.181086161084031e+00   3.658533900000000e+00  1.70385760e+00  -6.61602500e-01   3.86315080e-01
C     1.098470693040000e+01   3.959404926331255e+00   3.966576900000000e+00 -2.23142800e-01  -3.63401204e+00  -5.11977700e-02
C     3.705043787400000e+00   5.223289996848123e+00   3.795910200000000e+00  4.96848840e-01   2.29606924e+00  -3.15531460e-01
C     4.922339618100000e+00   5.977312203235974e+00   3.361665000000000e+00 -2.81329132e+00   4.15669510e-01  -6.30147470e-01
C     6.123627788100000e+00   5.265299110536265e+00   3.092738700000000e+00 -5.18571820e+00  -3.43901204e+00   1.05554748e+00
C     7.240953177400000e+00   5.883309225515322e+00   2.883892200000000e+00  7.53590906e+00   5.27525922e+00  -3.34494030e-01
C     8.572523992399999e+00   5.269910261585570e+00   3.131637000000000e+00 -3.98821190e-01   4.11630910e-01  -6.77147060e-01
C     9.782267210999999e+00   6.062074263815170e+00   3.258502200000000e+00  3.40732750e-01  -1.79988892e+00   1.51306859e+00
C     1.101280433150000e+01   5.336230792011319e+00   3.860926200000000e+00 -5.80694240e-01   1.92234667e+00  -1.82775918e+00
C     1.232530171600000e+01   5.958191053238425e+00   3.886314000000000e+00 -1.05971423e+00   1.13494362e+00  -2.25721677e+00
C     4.790078071100000e+00   7.423028329155639e+00   3.095202900000000e+00  1.97404219e+00  -1.29145381e+00   1.63355318e+00
C     6.073699459599999e+00   8.088396137817195e+00   2.997100800000000e+00 -5.29838900e-01   2.25674645e+00   1.00692327e+00
C     7.296278179700000e+00   7.402775845659594e+00   2.827818900000000e+00 -7.24070800e-02  -1.40822722e+00   5.31005720e-01
C     8.536487516499999e+00   8.140586996821479e+00   2.891249100000000e+00 -6.45024810e-01   1.18964958e+00   1.26534030e+00
C     9.770173477299998e+00   7.479323805107555e+00   3.056176200000000e+00  1.70783839e+00  -2.27630054e+00   4.93681230e-01
C     1.108913394390000e+01   8.065152353559901e+00   3.190678800000000e+00 -3.08469520e+00   1.57326448e+00  -9.40742230e-01
C     1.226926541330000e+01   7.313836074203059e+00   3.373297800000000e+00  6.95810830e-01   2.57688800e+00   1.19014731e+00
C     1.344281074780000e+01   8.183722918332561e+00   3.279148800000000e+00  1.96634298e+00  -3.64857421e+00  -8.69777470e-01
