32
Lattice="9.86 0 0 4.93 8.53901048131456 0 0 0 30 " PBC="1 1 1" Properties=species:S:1:pos:R:3:force:R:3 Energy="-256.38410156"
C     1.233835832800000e+00   9.892563187226719e-01   3.314181300000000e+00 -2.53781704e+00  -5.33700890e-01   1.36390076e+00
C     2.404426371800000e+00   1.721637342340115e+00   3.363812700000000e+00  1.00809286e+00   2.53318742e+00  -2.59580670e-01
C     3.647910116000000e+00   1.072151324660416e+00   3.383865900000000e+00 -1.39738300e-02  -1.94303683e+00   5.14557100e-01
C     4.896459878900000e+00   1.713620663131177e+00   3.397846200000000e+00  6.99890790e-01   8.24894150e-01  -7.94975650e-01
C     6.120394644800000e+00   9.614978742344976e-01   3.308472900000000e+00  2.23008200e-01   5.61594280e-01   1.41319071e+00
C     7.337531482999999e+00   1.699042608269406e+00   3.423575100000000e+00 -4.38681370e-01   1.20017049e+00  -2.51055410e-01
C     8.585884637500000e+00   9.711518233128712e-01   3.434315400000000e+00 -3.72965260e-01   1.82439781e+00   5.63247130e-01
C     9.832555478800000e+00   1.663300359762641e+00   3.456439500000000e+00 -6.85166140e-01   2.21965449e+00  -1.11051267e+00
C     2.378573106700000e+00   3.199063169067366e+00   3.357777300000000e+00  1.69712084e+00  -2.78954926e+00  -3.87800650e-01
C     3.654628325600000e+00   3.873213862348230e+00   3.309525600000000e+00 -3.43377800e-01  -1.80695280e+00   1.07338570e-01
C     4.915632796799999e+00   3.151221228100545e+00   3.350383200000000e+00 -3.02989491e+00  -7.72623130e-01   4.48091100e-02
C     6.060916906299999e+00   3.893136313089223e+00   3.362551800000000e+00  2.10527945e+00   3.39497600e-01   3.99945560e-01
C     7.254423564300000e+00   3.166435268462866e+00   3.474586500000000e+00  3.52931945e+00  -1.07751404e+00  -1.22875196e+00
C     8.574210989099999e+00   3.874475501146651e+00   3.369032700000000e+00 -2.61312845e+00  -1.19657482e+00   1.04681549e+00
C     9.755961026800000e+00   3.148467909561374e+00   3.393150600000000e+00  2.04889833e+00  -2.16877862e+00  -1.39576400e-02
C     1.101544572690000e+01   3.850156057739191e+00   3.338802000000000e+00 -8.19529680e-01   4.23684620e-01   3.96420930e-01
C     3.664911664700000e+00   5.247704308662016e+00   3.259723500000000e+00  7.80579010e-01   2.53465363e+00   1.03180825e+00
C     4.897883021999999e+00   6.047604056655762e+00   3.401374800000000e+00 -1.27786020e+00  -3.74462708e+00  -8.11407750e-01
C     6.127057687699999e+00   5.330179195284143e+00   3.372098100000000e+00 -2.61801995e+00  -1.35314907e+00  -1.73521600e-02
C     7.311994329499999e+00   5.980035122897836e+00   3.393045900000000e+00  3.17641963e+00   1.03963410e+00   6.63796080e-01
C     8.573172583199998e+00   5.276444653965284e+00   3.400813200000000e+00 -5.93859630e-01   6.93129860e-01  -5.40413140e-01
C     9.775975742200000e+00   6.011271591744619e+00   3.349740600000000e+00  1.61241421e+00  -1.26722017e+00   5.60418800e-01
C     1.105326498940000e+01   5.250236381439650e+00   3.364164600000000e+00 -1.33514747e+00   2.11047645e+00  -8.11607530e-01
C     1.230088677840000e+01   5.966624692329100e+00   3.296304600000000e+00 -8.42138180e-01  -1.57647532e+00   2.04525900e-02
C     4.832185053200000e+00   7.397863950661185e+00   3.453603600000000e+00  1.85837245e+00   2.86532993e+00  -9.38907600e-02
C     6.110000380699999e+00   8.100162125747692e+00   3.400214100000000e+00 -4.74212300e-02   2.09413800e-01   3.64207690e-01
C     7.342370869599999e+00   7.397421800698529e+00   3.478534200000000e+00  1.32847540e-01   1.29098214e+00  -7.41256030e-01
C     8.576690236799999e+00   8.179135591122495e+00   3.468212100000000e+00 -2.79089690e-01  -1.42047832e+00  -6.74755550e-01
C     9.796757959999999e+00   7.422716569883014e+00   3.382360500000000e+00  1.36479460e-01   3.87083050e-01   1.80606420e-01
C     1.107206199480000e+01   8.069364562039581e+00   3.361197600000000e+00 -1.57318818e+00   8.39961850e-01  -6.72135690e-01
C     1.227920942050000e+01   7.354015875676070e+00   3.311704500000000e+00  4.14106550e-01   1.96916968e+00   9.82820150e-01
C     1.347888168440000e+01   8.130672095582836e+00   3.477101100000000e+00 -1.56975000e-03  -2.21623500e+00  -1.24488205e+00
