64
Lattice="7.10842262195238 0 0 0 7.10842262195238 0 0 0 7.10842262195238 " PBC="1 1 1" Properties=species:S:1:pos:R:3:force:R:3 Energy="-507.74603012"
C     2.456123508930260e-02   1.180211407598600e-02   7.044058341123816e+00 -1.30221206e+00  -3.08241400e-02   1.59701527e+00
C     1.755940610985855e+00   1.791093182526279e+00   5.713878053563160e-02 -9.94142270e-01  -6.86697020e-01  -4.57448000e+00
C     2.620484456749900e-02   1.735576544032531e+00   1.764205929387260e+00 -6.12178930e-01   6.79228190e-01  -1.38072140e-01
C     1.779199298714269e+00   1.776316620089180e-02   1.638472363337378e+00  1.08744162e+00  -1.71920552e+00   5.51043854e+00
C     8.612306099808632e-01   8.864943704777004e-01   8.450599436995300e-01  1.19365040e+00  -2.19834330e-01   3.73636700e-02
C     2.594153082259765e+00   2.627860582565769e+00   8.568395951600368e-01  3.91185764e+00   1.81953498e+00   2.44722080e+00
C     8.651199834173962e-01   2.637238511275656e+00   2.630795437012889e+00  2.47983776e+00   4.94916320e-01   7.87703830e-01
C     2.655521658591201e+00   8.279675282570613e-01   2.713838873428776e+00  1.17769066e+00   2.45900687e+00  -3.39711708e+00
C     3.596366601916064e+00   9.318822175802099e-02   7.100521963679001e+00  6.90776060e-01  -2.63170909e+00  -1.17063331e+00
C     5.401078455918871e+00   1.749706950853472e+00   7.786246258930099e-02 -6.53385900e-02   3.05496415e+00  -4.38297804e+00
C     3.605926506245024e+00   1.774158502981748e+00   1.788283862822629e+00 -2.11991479e+00  -8.57896020e-01  -1.27611238e+00
C     5.302602349658057e+00   7.060412120371842e+00   1.736733724150841e+00  2.59330896e+00  -2.57425380e-01   1.64508983e+00
C     4.576949831297740e+00   8.973018029764699e-01   8.480693654999332e-01 -4.82579750e+00  -1.24367189e+00   2.41457939e+00
C     6.210664598459778e+00   2.683560618363113e+00   9.612384391478336e-01  1.09618147e+00  -1.52144074e+00  -1.26903286e+00
C     4.386518601350797e+00   2.680919981528235e+00   2.636631523068135e+00  1.57719008e+00  -9.40450450e-01   3.44525920e+00
C     6.286571747238996e+00   8.383128422013046e-01   2.605407989962463e+00 -2.87800006e+00  -3.22979400e-01   1.63050615e+00
C     7.069510972409668e+00   3.544547551616562e+00   7.106023314113071e+00  7.56839130e-01   7.72207640e-01   7.72291650e-01
C     1.788344071162220e+00   5.380620842123867e+00   7.083833946399384e+00  5.44757590e-01  -2.18833811e+00   1.18691621e+00
C     7.101595690915752e+00   5.268993301005341e+00   1.780455428075449e+00  1.12644406e+00   1.51004587e+00   6.70455680e-01
C     1.813331669440270e+00   3.514469327563425e+00   1.800832219105262e+00 -2.12425217e+00   1.96598240e+00  -1.20341757e+00
C     9.020781653875264e-01   4.487817106812882e+00   8.337419132039660e-01 -1.17083830e-01  -2.27238008e+00   2.23148155e+00
C     2.739501842939953e+00   6.210351543527594e+00   8.419546292779829e-01 -1.98426573e+00   1.91584571e+00   4.93160090e-01
C     9.650671777394180e-01   6.225070527741471e+00   2.715412038438809e+00 -2.36802994e+00  -7.18697130e-01  -2.53757507e+00
C     2.616696591588380e+00   4.479535367955224e+00   2.708811441530782e+00  1.14768130e+00  -2.62594200e+00   9.92207100e-02
C     3.515302292526037e+00   3.561641886333138e+00   7.077411770899119e+00  9.45758080e-01  -1.37776657e+00   1.36236679e+00
C     5.325963754093331e+00   5.373765692601818e+00   2.920147120718619e-02 -1.49098980e-01  -2.56479226e+00  -1.22619017e+00
C     3.531747272836276e+00   5.311591163313726e+00   1.789712300348117e+00  1.53131980e-01  -2.45044000e-01  -8.99044000e-03
C     5.366997052583054e+00   3.487495920342252e+00   1.897640689419423e+00 -1.47981606e+00   3.04596531e+00  -3.55178529e+00
C     4.450590937309977e+00   4.430236182390286e+00   8.992437529520275e-01 -5.54159400e-01  -1.45686170e-01   5.87648370e-01
C     6.221116325490643e+00   6.149391488244128e+00   9.024688442947215e-01  5.47924200e-02   2.58732136e+00  -4.12991570e-01
C     4.385631399123596e+00   6.166210371584180e+00   2.678667393484183e+00  1.87035196e+00   1.98489383e+00  -6.97827010e-01
C     6.266306913865447e+00   4.391108367668079e+00   2.710907217771836e+00 -1.79861144e+00   5.57050070e-01  -7.43738800e-02
C     1.415564172124180e-02   7.051130368620003e+00   3.593651042306772e+00 -3.46635820e-01   1.24411086e+00  -4.48661686e+00
C     1.768122883503559e+00   1.790408996849103e+00   3.511455782877902e+00  1.54194820e-01  -1.99952746e+00   1.34197632e+00
C     7.091549996984941e+00   1.873505817518868e+00   5.244750523249414e+00 -1.10731104e+00  -4.05983614e+00   1.29373619e+00
C     1.746887821526606e+00   7.099080162318987e+00   5.370840718862141e+00  2.26751173e+00   2.20968506e+00  -1.76993352e+00
C     7.982529000209374e-01   8.972884391419442e-01   4.332965806774277e+00  3.48969082e+00   1.02032586e+00   4.70355826e+00
C     2.638855535253254e+00   2.665427174427945e+00   4.535932668927363e+00 -8.84606390e-01  -1.14174370e-01  -2.99804084e+00
C     7.737641708423588e-01   2.668557226160210e+00   6.181947850591050e+00  3.56573846e+00   6.99476410e-01   1.31601773e+00
C     2.732228575999395e+00   9.532347106988445e-01   6.209043949186645e+00 -2.87452774e+00  -8.07149730e-01   1.36943564e+00
C     3.592551724748589e+00   7.100543502199540e+00   3.560342395593977e+00 -1.81236484e+00   5.41058950e-01   9.03775620e-01
C     5.357539225202918e+00   1.778818287261836e+00   3.478077829044562e+00 -9.75931010e-01  -6.35936260e-01   1.88976172e+00
C     3.598628857414879e+00   1.843703329179161e+00   5.329807917962000e+00 -1.51925768e+00  -2.73162861e+00   3.02679160e-01
C     5.357842897017244e+00   9.735695620352000e-03   5.254657247518002e+00 -4.53948470e-01   9.10328980e-01   2.57481772e+00
C     4.452168154120903e+00   9.188739463540624e-01   4.479025694053369e+00  8.86410680e-01  -4.13496880e-01  -3.78729383e+00
C     6.193785720032815e+00   2.670260048798831e+00   4.407283512255663e+00  5.37217850e-01   1.51359979e+00  -7.02345510e-01
C     4.459860320406457e+00   2.667159425936213e+00   6.156553650539136e+00  4.67746610e-01   1.59858901e+00   3.53184453e+00
C     6.250206692052278e+00   9.816153012618732e-01   6.159611551781808e+00 -1.93347040e-01  -3.39704197e+00   9.51362830e-01
C     7.031680089394479e-02   3.505814396518218e+00   3.575752887160327e+00 -3.35338608e+00   1.56973604e+00  -1.59473413e+00
C     1.770619716948833e+00   5.332110762553976e+00   3.624298651011771e+00  1.23267443e+00   1.07982747e+00  -1.57344807e+00
C     7.057976135024194e+00   5.351738681260771e+00   5.292353639177220e+00  1.49598045e+00  -1.67673312e+00   2.53125586e+00
C     1.691372604717382e+00   3.540481249541017e+00   5.317827382478252e+00  1.30309398e+00   1.32640745e+00   2.08048513e+00
C     8.264358764351301e-01   4.457488666283520e+00   4.425541353586681e+00  2.37937599e+00  -5.72946310e-01   1.30145654e+00
C     2.740066962538243e+00   6.280749949113217e+00   4.489047219347272e+00 -2.71919584e+00  -2.73621807e+00   8.57211390e-01
C     9.127929751395572e-01   6.215178873328836e+00   6.270042176699580e+00 -1.23100489e+00   1.07657321e+00  -3.64017531e+00
C     2.617056988615214e+00   4.424708175371391e+00   6.254272212201335e+00  7.00127590e-01   1.02230287e+00  -1.57217875e+00
C     3.514208164116366e+00   3.527566525156549e+00   3.696801505114045e+00 -9.56836000e-02   1.73319280e+00  -4.63317094e+00
C     5.237366293831758e+00   5.339700283216897e+00   3.608883467886492e+00  3.21006746e+00  -1.11709984e+00  -2.33752102e+00
C     3.612303898682783e+00   5.318262062521465e+00   5.434933953583823e+00 -3.96888822e+00   2.69414930e-01  -3.38649877e+00
C     5.343663939669809e+00   3.595923036344576e+00   5.325507464445352e+00 -7.35766710e-01  -1.37018054e+00  -2.61183300e-01
C     4.376405377405097e+00   4.468604391071318e+00   4.465458274303933e+00  2.30771127e+00  -1.02563584e+00   1.80072302e+00
C     6.235641818440803e+00   6.206996510219406e+00   4.399810854060615e+00 -2.42405871e+00   4.11919010e-01   1.56310982e+00
C     4.431898700272652e+00   6.226959093463152e+00   6.172600630266881e+00  2.91834881e+00   1.72353363e+00   3.09428311e+00
C     6.216604325316824e+00   4.411694786080957e+00   6.257389753109789e+00 -1.28870330e+00   2.43324830e+00  -1.66881325e+00
