64
Lattice="7.10842262195238 0 0 0 7.10842262195238 0 0 0 7.10842262195238 " PBC="1 1 1" Properties=species:S:1:pos:R:3:force:R:3 Energy="-508.30282418"
C     2.239003848424980e-02   7.050126730430284e+00   7.026806128340851e+00 -3.72666020e-01   7.42894770e-01   2.40540274e+00
C     1.759659026858377e+00   1.740265686098040e+00   2.391643007344240e-02 -2.85834550e-01   2.98920538e+00  -8.45941670e-01
C     6.544440369329199e-03   1.746720986847715e+00   1.698452522562676e+00  1.44238620e-01   1.25899850e-01   2.02143454e+00
C     1.814767926230641e+00   1.381792056256560e-02   1.786951317918283e+00 -2.19305641e+00  -6.35545220e-01  -7.93603460e-01
C     8.770936237312028e-01   8.716625755968442e-01   8.465394907836568e-01  5.76307240e-01  -1.63955445e+00   5.80143480e-01
C     2.562745796429367e+00   2.722329031237652e+00   9.235869727195748e-01  3.04756997e+00  -2.27876203e+00   2.18842500e-02
C     8.946714733543911e-01   2.618909443549986e+00   2.621691822331907e+00 -1.47751759e+00   2.23503949e+00   8.30195680e-01
C     2.618850230389562e+00   8.478910862606236e-01   2.678799183639558e+00  2.47176850e+00   2.57077484e+00  -7.95868200e-01
C     3.518969527755695e+00   2.037757295630160e-02   5.329703353065260e-02  1.70519152e+00   1.54527133e+00  -4.15122490e-01
C     5.375351226267210e+00   1.804273477579830e+00   7.090110470320166e+00 -8.30243070e-01  -5.33345150e-01  -9.66165520e-01
C     3.554090395731234e+00   1.771544593815922e+00   1.888329437713711e+00 -5.58114880e-01   1.46972901e+00  -3.74896634e+00
C     5.308799970087757e+00   9.211477885817479e-02   1.736674368821964e+00  7.04915800e-02  -4.80951387e+00   8.97461100e-01
C     4.430832152542746e+00   9.338884276962526e-01   9.202802056009770e-01 -1.01133400e-01   8.00094700e-01  -9.22506940e-01
C     6.306135405805308e+00   2.664298854505472e+00   8.184212720995324e-01 -2.29584285e+00   9.45098150e-01   2.16131955e+00
C     4.490893987543948e+00   2.697018497319975e+00   2.688257935114635e+00 -1.61373777e+00  -3.08111279e+00   9.51757820e-01
C     6.187157968950380e+00   8.156511198045183e-01   2.671114267945076e+00  1.02337614e+00   2.91802706e+00  -6.88051590e-01
C     3.123064152829140e-02   3.646207520368873e+00   7.084735720892957e+00  2.09499620e-01  -2.19024259e+00   2.10398730e-01
C     1.911429963038830e+00   5.361233045933175e+00   3.229853985849400e-03 -3.51671982e+00  -1.27272125e+00  -5.02021970e-01
C     5.230448448022200e-03   5.393289615085684e+00   1.704587517789094e+00 -5.40423060e-01  -9.93431410e-01   2.17709979e+00
C     1.722944379447208e+00   3.660497226940728e+00   1.846155663898834e+00 -3.56135100e-01  -3.75808972e+00  -3.66909577e+00
C     9.271421792087415e-01   4.537265569252840e+00   8.501438875573539e-01 -2.70694750e-01  -5.58451390e-01   1.58198284e+00
C     2.724653272181714e+00   6.221113979711178e+00   8.984208108653102e-01 -1.06754656e+00  -7.37068650e-01   1.71238133e+00
C     8.688548197461704e-01   6.320477501451871e+00   2.701830615096811e+00  4.95986250e-01  -4.18179201e+00  -2.60308569e+00
C     2.623822074422669e+00   4.380310815876751e+00   2.697180285018806e+00  8.90892730e-01   3.29260296e+00   2.56594130e-01
C     3.560454779755598e+00   3.476321266730933e+00   7.096890625983574e+00  5.35910100e-02   1.32014839e+00   1.69090992e+00
C     5.255987873148241e+00   5.273752532117882e+00   4.928681690957960e-02  8.78681140e-01  -5.64140900e-02  -7.81319270e-01
C     3.590263736759890e+00   5.225382986063188e+00   1.814632581863956e+00 -4.90459560e-01   2.33843748e+00   6.93665600e-02
C     5.351641864544687e+00   3.541246044730704e+00   1.840158216650114e+00  2.18447405e+00  -1.47014993e+00  -1.42650437e+00
C     4.506235598495111e+00   4.304684378706798e+00   9.779774238176356e-01 -3.30657043e+00   3.15240107e+00  -3.07432506e+00
C     6.117170359107966e+00   6.149209512625057e+00   8.458999460005354e-01  3.07033940e+00   3.60287313e+00   1.00420584e+00
C     4.445038050811911e+00   6.249803573405498e+00   2.692652290894093e+00  5.10293430e-01  -8.78687290e-01  -2.42970313e+00
C     6.239529059350550e+00   4.422149285396642e+00   2.662572431903753e+00  4.09692140e-01   1.88451397e+00   5.94443160e-01
C     7.064545383788466e+00   7.042438758114076e+00   3.578665563328872e+00  2.10871450e-01   3.68428451e+00  -3.39623670e-01
C     1.756644984583271e+00   1.766750247095636e+00   3.494530557535456e+00 -7.44731430e-01  -1.20545994e+00   2.11436030e+00
C     2.610959170439100e-02   1.690042405592502e+00   5.306862996008033e+00  5.40618880e-01   3.64924553e+00   3.20903060e-01
C     1.872137161827613e+00   7.059856028470278e+00   5.350707888896646e+00 -2.06325360e+00   2.18853313e+00  -1.86954783e+00
C     8.771270333175167e-01   8.363828343757483e-01   4.424926332861599e+00  1.22227182e+00   5.25860590e-01   3.10383410e-01
C     2.631387710785587e+00   2.630020974368440e+00   4.412560165450714e+00 -7.21495230e-01   1.62047731e+00  -1.14889040e-01
C     8.975799555535904e-01   2.727208821197830e+00   6.210905502902370e+00  2.90891240e-01  -2.24347600e+00  -1.78061810e-01
C     2.675468745473636e+00   9.278292793391907e-01   6.228842967625904e+00 -8.37325190e-01  -1.28549400e+00   3.45418210e-01
C     3.558433215446696e+00   3.278113067016580e-02   3.477748922329934e+00  5.19773910e-01  -4.59685770e-01   3.20627398e+00
C     5.342992406984897e+00   1.746587988260494e+00   3.583488770244994e+00  6.75154410e-01   8.69441110e-01  -5.89073030e-01
C     3.475555120940950e+00   1.820676091691254e+00   5.289728072198297e+00  2.37059688e+00  -2.20297068e+00   1.49845378e+00
C     5.289645330159000e+00   7.066553157757485e+00   5.425602940463227e+00  1.47267310e-01   2.59466838e+00  -1.74540795e+00
C     4.413255227014499e+00   9.353052784928709e-01   4.472803549565631e+00  2.16932100e-01  -1.67980092e+00  -6.67606840e-01
C     6.298047940137855e+00   2.620847697145782e+00   4.424142984688874e+00 -3.64786219e+00  -7.77440200e-02   1.04665725e+00
C     4.415617498019577e+00   2.662405455056410e+00   6.148823312024112e+00  3.42624760e-01  -7.71402650e-01   1.77196891e+00
C     6.294378003707601e+00   8.791291205484398e-01   6.203523406011501e+00 -2.98887488e+00  -1.03956942e+00   5.87218060e-01
C     7.082110438250939e+00   3.541606441757537e+00   3.596130175779723e+00  2.05743574e+00   4.71683620e-01  -1.80391965e+00
C     1.739111136096100e+00   5.388622011540713e+00   3.558802498001806e+00  1.51808951e+00  -8.00968090e-01  -1.23671660e-01
C     1.081297706841300e-02   5.382995552868531e+00   5.338715340178670e+00 -1.48676091e+00  -1.45049746e+00   4.55375700e-02
C     1.807766272118393e+00   3.596672406257177e+00   5.353908527265527e+00 -1.51237554e+00  -9.61291080e-01  -1.23901873e+00
C     8.581480425117002e-01   4.519738829188290e+00   4.462439895891029e+00  1.18732164e+00  -1.85678219e+00  -3.43572770e-01
C     2.764013319070915e+00   6.275019067712746e+00   4.370696674283201e+00 -3.30578216e+00  -2.33685486e+00   2.40154220e+00
C     9.357673259631710e-01   6.189963236853136e+00   6.189946105554622e+00  1.28938411e+00   7.99105750e-01   5.80028460e-01
C     2.716502186131812e+00   4.405948408319174e+00   6.244934659331929e+00  1.27332000e-02   1.87340739e+00  -1.39681626e+00
C     3.507391471160691e+00   3.477627012882001e+00   3.519459369158439e+00  1.21506130e+00   2.69120337e+00   1.70726568e+00
C     5.369318236905389e+00   5.404744695969361e+00   3.551231459237696e+00 -1.86214424e+00  -2.79700553e+00   3.91241800e-02
C     3.551304178401098e+00   5.333494630269637e+00   5.270919043777325e+00  6.83519840e-01   6.00725100e-02   2.30677407e+00
C     5.244689959488691e+00   3.525546951205981e+00   5.266574518040433e+00  4.06067601e+00   7.75583120e-01   1.60463152e+00
C     4.416101937021130e+00   4.437773882652308e+00   4.430499122943000e+00  5.79480540e-01   4.24810050e-01  -1.20918264e+00
C     6.158400703072717e+00   6.264654418858976e+00   4.462725085806544e+00  1.45446645e+00  -2.04265672e+00   1.34145877e+00
C     4.362448629348763e+00   6.241898225525571e+00   6.337539919350885e+00  2.11091451e+00  -2.11082076e+00  -3.43046100e+00
C     6.229283903081023e+00   4.464566949191611e+00   6.241554106786536e+00 -2.00857366e+00   2.34227240e-01  -1.67652075e+00
