64
Lattice="7.10842262195238 0 0 0 7.10842262195238 0 0 0 7.10842262195238 " PBC="1 1 1" Properties=species:S:1:pos:R:3:force:R:3 Energy="-512.66962155"
C     7.102043237203906e+00   7.075241285136328e+00   1.299391221245520e-02  5.68161160e-01   1.48671508e+00  -5.93655800e-01
C     1.799481050133653e+00   1.787619225307659e+00   8.948224562508399e-03 -6.88009020e-01   1.66423300e-01  -9.05361400e-02
C     1.162568302655760e-02   1.763771675849404e+00   1.816416938110029e+00 -5.53180250e-01   9.36943920e-01  -1.49559745e+00
C     1.767533382015682e+00   7.107559088820122e+00   1.770626256697644e+00 -3.63028380e-01   5.83068540e-01   7.85531460e-01
C     8.832920971716166e-01   8.921865109748915e-01   8.924610382564759e-01  4.17037870e-01  -9.52353400e-02  -1.33828030e-01
C     2.659146243285139e+00   2.698970683424106e+00   9.282510220532355e-01  4.79932350e-01  -1.18958957e+00  -9.87985520e-01
C     8.407639684891329e-01   2.658518214146663e+00   2.694162617448164e+00  1.89598472e+00   2.95288110e-01  -4.60783380e-01
C     2.617138380054214e+00   9.356143527083887e-01   2.717866932190625e+00  1.82905404e+00  -1.79711053e+00  -2.14551136e+00
C     3.537075177758418e+00   7.088516975221440e+00   6.298624006706981e-02 -1.96069290e-01   3.68427330e-01  -1.87438489e+00
C     5.351682737974752e+00   1.757133475385717e+00   6.812001396746000e-03 -4.88625140e-01   1.11676294e+00   9.25924900e-02
C     3.532010924231252e+00   1.809864109802008e+00   1.824901480265035e+00  3.44570160e-01  -2.90483110e-01  -7.11711620e-01
C     5.282979975520904e+00   1.178640446199580e-02   1.797573718176254e+00  1.60300202e+00   9.58755630e-01  -8.27565660e-01
C     4.398808708639646e+00   9.386417588180204e-01   9.036186316535066e-01  8.87878970e-01  -1.83154698e+00   7.24766410e-01
C     6.266136382806794e+00   2.705271518150248e+00   8.635422690168872e-01 -3.37027090e-01  -1.75894182e+00   4.26980960e-01
C     4.502924424154489e+00   2.653175879126601e+00   2.681172046194340e+00 -9.06219030e-01  -1.60067800e-02  -1.12183848e+00
C     6.223230370377831e+00   9.198918013890203e-01   2.704672562460286e+00 -9.88367840e-01  -1.19277373e+00  -5.49675810e-01
C     3.715906599337140e-02   3.607082122510358e+00   7.088344311636001e+00 -3.57403540e-01  -1.23612544e+00   6.47589100e-02
C     1.807156298373371e+00   5.314015917353634e+00   7.076936572846972e+00 -9.73368400e-02   5.16017620e-01   1.06703376e+00
C     7.055760155356635e+00   5.401802448762717e+00   1.740392571441807e+00  1.33040921e+00  -1.37473404e+00   3.51054090e-01
C     1.782361054011418e+00   3.545812921927149e+00   1.784514763896826e+00 -1.03733004e+00   1.10088481e+00   1.67927600e-01
C     9.102141104972473e-01   4.503244942930424e+00   8.866749954964747e-01 -9.73857280e-01  -1.61804552e+00  -5.01885750e-01
C     2.655678257141520e+00   6.181383015329665e+00   9.478734672746144e-01  6.03331230e-01   1.26443077e+00  -2.14598714e+00
C     8.318836293626456e-01   6.252088433688245e+00   2.599277188705392e+00  5.76917500e-01  -3.87121210e-01   2.55445298e+00
C     2.689132484349574e+00   4.438503491150024e+00   2.635942645832031e+00 -4.96157050e-01  -8.27916810e-01   8.97325380e-01
C     3.579610130526617e+00   3.544315461618019e+00   3.066410024547740e-02 -1.30808526e+00  -9.38741150e-01  -1.93036860e+00
C     5.290971050977630e+00   5.323001461134897e+00   7.067319872221279e+00  1.05516218e+00  -2.69088500e-02   7.01075780e-01
C     3.564314866490937e+00   5.307570497311402e+00   1.777437902673259e+00  1.97579560e-01  -1.89018200e-02  -1.71259020e-01
C     5.365721659396574e+00   3.526951149010336e+00   1.727859427183581e+00 -4.43916240e-01   1.60579889e+00   1.51024469e+00
C     4.437649485256458e+00   4.395658895492498e+00   8.481218967430949e-01  1.02670510e+00   1.81572169e+00   1.42543920e+00
C     6.193716128575365e+00   6.265513756069508e+00   8.698315170141584e-01 -1.08685920e+00  -1.41441919e+00   3.28908000e-02
C     4.454381148250961e+00   6.217185296697557e+00   2.650131697139587e+00 -9.14538980e-01   3.29418490e-01   9.23704430e-01
C     6.219824156426780e+00   4.504640610627635e+00   2.647275746183549e+00 -6.89112000e-02  -1.71484534e+00   7.60727000e-03
C     7.044959546943581e+00   1.852390958968420e-02   3.593641659188914e+00  2.18446946e+00  -1.17799918e+00  -6.63872260e-01
C     1.740631201189161e+00   1.735261498742013e+00   3.594856346446219e+00 -8.61027700e-02   1.44225019e+00  -9.02443000e-01
C     6.674815948602621e-02   1.702008582062558e+00   5.362468134363399e+00 -1.62663127e+00   1.97925561e+00  -2.60630020e-01
C     1.815456092624483e+00   7.081377702047269e+00   5.366733045766947e+00 -8.35666760e-01  -4.75259070e-01  -2.02894407e+00
C     9.443740619030146e-01   8.115431623724204e-01   4.458485338219071e+00 -2.47189469e+00   1.46483357e+00   7.76699870e-01
C     2.619376395831894e+00   2.638332355348422e+00   4.408969345764223e+00  2.18561215e+00   6.26866450e-01   4.72920620e-01
C     9.241720669854271e-01   2.686995266004644e+00   6.204981343490862e+00  2.26862200e-02  -6.20950480e-01   3.05320030e-01
C     2.654641778039298e+00   8.647730213093140e-01   6.212862664902334e+00  8.68296820e-01   4.63526600e-01   1.54398515e+00
C     3.572282626321469e+00   4.509810779651840e-02   3.544255395446880e+00 -1.21043875e+00  -1.36617368e+00   2.92488660e-01
C     5.359067820403123e+00   1.774426774851427e+00   3.586785727740376e+00 -3.86919130e-01   6.14024310e-01  -6.10744800e-02
C     3.522361809198411e+00   1.768559624989331e+00   5.318278980567301e+00  5.70061300e-01   2.68588170e-01   6.03832090e-01
C     5.285670086977218e+00   2.231063740358440e-02   5.387949128255505e+00  4.26689440e-01  -6.05844680e-01  -1.34937410e+00
C     4.436010425168738e+00   9.241020490226201e-01   4.451884172637233e+00  6.21688600e-02  -1.19490959e+00   1.17367240e-01
C     6.245013278486107e+00   2.622889591543377e+00   4.485757938948320e+00  4.79662060e-01   1.39490543e+00  -1.09473083e+00
C     4.438652412603913e+00   2.623817596116418e+00   6.228179254205875e+00  3.03542420e-01   1.47155726e+00  -3.97052050e-01
C     6.206818302064322e+00   8.578268128935024e-01   6.248466408026450e+00  1.05475423e+00   3.25122090e-01   1.08990000e-03
C     6.281286563936800e-03   3.587428684566355e+00   3.533770329913928e+00 -4.73971740e-01  -6.36990870e-01   1.27250025e+00
C     1.770053815424055e+00   5.335980232407172e+00   3.503957250024517e+00 -4.69551540e-01   3.41618160e-01   3.74020810e-01
C     7.099905876690525e+00   5.369291295983659e+00   5.356357094521212e+00  7.22953680e-01  -1.14983092e+00  -1.04113782e+00
C     1.815223078531000e+00   3.569576378745808e+00   5.266106499495132e+00 -1.07191490e+00  -4.77359720e-01   1.93380184e+00
C     9.040889248940457e-01   4.463055627458373e+00   4.447868056025387e+00 -6.48656730e-01   3.12125860e-01  -1.41858442e+00
C     2.638358656512116e+00   6.216553855516222e+00   4.389369363158322e+00  1.86639754e+00  -7.04736500e-02   1.29800474e+00
C     9.277540011436450e-01   6.208587090864857e+00   6.198342005679556e+00 -1.10734591e+00  -1.00874400e-02   1.75462714e+00
C     2.702682559547818e+00   4.424438197480282e+00   6.193866613882230e+00 -2.75353790e-01  -1.64849420e-01   1.20094620e-01
C     3.593466863076688e+00   3.503913462141178e+00   3.503719260035199e+00 -1.46444580e+00   1.21993291e+00   9.77145060e-01
C     5.315876618058645e+00   5.323720264830232e+00   3.570982495824271e+00  4.79540050e-01   1.04437441e+00  -8.93146010e-01
C     3.562815557991927e+00   5.294479057540600e+00   5.288887785560387e+00 -6.38265680e-01   7.66380520e-01  -3.90874080e-01
C     5.360999392081655e+00   3.571342750682653e+00   5.313516906085710e+00 -9.56265890e-01  -1.97348832e+00   2.18038940e-01
C     4.436695037351270e+00   4.413378487062730e+00   4.370233987054865e+00  5.27642340e-01  -5.54782400e-02   2.25475331e+00
C     6.182628268804236e+00   6.243433289390359e+00   4.518022998136273e+00  9.36344200e-02  -3.58121360e-01  -1.95517145e+00
C     4.403943477719203e+00   6.193697149086970e+00   6.194228361509362e+00  1.84276650e-01   7.53306850e-01   1.23917408e+00
C     6.221108008636177e+00   4.440268014896987e+00   6.191712619659917e+00  1.85952460e-01   1.04864030e+00   9.11452900e-01
