64
Lattice="7.10842262195238 0 0 0 7.10842262195238 0 0 0 7.10842262195238 " PBC="1 1 1" Properties=species:S:1:pos:R:3:force:R:3 Energy="-514.64554683"
C     1.279039807284460e-02   3.119211387769100e-02   7.101062203798120e+00 -6.62830440e-01  -8.10135860e-01   3.44374600e-02
C     1.787896311621386e+00   1.751949516021630e+00   5.152326883428400e-03 -8.54007300e-02   1.40913274e+00  -1.46665100e-01
C     8.146394490972399e-03   1.792405539510383e+00   1.768584362300049e+00 -5.95320180e-01  -2.16976150e-01   9.03291000e-03
C     1.785294060268657e+00   7.082593029062611e+00   1.773168228626556e+00 -5.17690870e-01   1.60433256e+00  -1.03697080e-01
C     8.751275051187369e-01   9.163786056775376e-01   8.934582077816097e-01  1.04498933e+00  -1.20639220e+00  -3.64590780e-01
C     2.668950464099548e+00   2.667399974957674e+00   8.881893738514394e-01  1.21516740e-01  -3.65454000e-03  -5.82475700e-02
C     8.711390402708812e-01   2.664324729163809e+00   2.669615954625232e+00  8.51784220e-01   3.84298580e-01  -8.92880600e-02
C     2.656706063968146e+00   8.927101884693069e-01   2.645744876288106e+00  2.27853230e-01  -5.40742720e-01   9.05091060e-01
C     3.566949318998135e+00   7.103316213526696e+00   7.093868977696264e+00 -5.75046310e-01  -1.48252100e-02   5.47986520e-01
C     5.302658079691398e+00   1.773300445287288e+00   1.851580598789740e-02  7.08069820e-01  -6.58188990e-01  -2.90034630e-01
C     3.559093516823868e+00   1.751276277315289e+00   1.760940817625215e+00 -4.68977910e-01   1.01999795e+00   5.62253540e-01
C     5.316131668262251e+00   7.094114431529333e+00   1.804152847647969e+00  1.25715316e+00   6.37073650e-01  -1.27344093e+00
C     4.428497320048981e+00   8.490966747369756e-01   8.997993472640069e-01  5.02388160e-01   1.10121739e+00  -1.26546880e-01
C     6.208720729210113e+00   2.667670308269912e+00   8.633777090332342e-01  3.83011040e-01  -2.19933110e-01   8.00645930e-01
C     4.439988653888021e+00   2.670652149390550e+00   2.657413209850383e+00  1.26921670e-01  -7.73250180e-01   8.85786000e-03
C     6.247005698262266e+00   8.937397013173617e-01   2.644134463143545e+00 -1.57687963e+00  -4.12618100e-02   7.99434340e-01
C     8.432863922558400e-03   3.539568954581966e+00   7.104046675035128e+00 -1.80450400e-02   4.51019330e-01  -3.75493740e-01
C     1.776632802727318e+00   5.337603156375544e+00   2.934321315422900e-02 -1.97933800e-01  -4.49049520e-01  -7.85808100e-01
C     1.302888565174560e-02   5.330481654257923e+00   1.779265051623503e+00 -7.14151780e-01  -1.31510450e-01  -3.07478730e-01
C     1.767762344308272e+00   3.560209752427887e+00   1.778369390373384e+00  8.32436890e-01  -1.00789555e+00   3.56627850e-01
C     8.984194602650123e-01   4.401469249057860e+00   9.028300943322699e-01 -6.99803650e-01   1.69247930e+00  -4.10194440e-01
C     2.678316948249017e+00   6.226633172286025e+00   8.960184483566550e-01 -4.34262290e-01  -1.18536970e-01  -4.87877890e-01
C     8.989937497284821e-01   6.217945044907182e+00   2.646135199774170e+00 -2.41266080e-01  -3.03462000e-01   8.97231240e-01
C     2.673917190068368e+00   4.446624721824922e+00   2.663437242599702e+00 -4.36982590e-01   8.22053300e-02  -6.61744900e-02
C     3.561251136341717e+00   3.589818180830068e+00   2.688192182205400e-03 -8.15114190e-01  -9.65457850e-01  -3.50596100e-02
C     5.320279361776795e+00   5.324253254358279e+00   1.249831298738880e-02  1.05848790e+00   8.23185390e-01  -7.67556050e-01
C     3.545888697712277e+00   5.363134691152477e+00   1.785817240173488e+00  9.17319430e-01  -1.21242566e+00  -1.31109730e-01
C     5.341941426700531e+00   3.547381182125573e+00   1.762748062992124e+00 -6.13981420e-01   3.56395800e-01   5.16571630e-01
C     4.454140741397953e+00   4.454951243745085e+00   8.893810298194561e-01 -5.05538080e-01   2.38083600e-02   3.63406680e-01
C     6.230946492047615e+00   6.253314992011326e+00   8.734206306792226e-01 -2.55530320e-01  -1.41866725e+00   7.45603690e-01
C     4.457600695024011e+00   6.223078392302216e+00   2.673169881598328e+00 -7.27008560e-01  -2.91793740e-01   4.04489170e-01
C     6.196609469834383e+00   4.433340643801118e+00   2.683779699948261e+00  1.15661200e+00   5.09488890e-01  -1.22065278e+00
C     7.086867536836695e+00   3.064725328386800e-03   3.539663852023944e+00  1.42876026e+00  -6.05271500e-02   2.28326900e-01
C     1.778206109905802e+00   1.771115955931936e+00   3.563720531275679e+00 -4.44658530e-01   2.92418160e-01  -4.65151140e-01
C     7.105842546925844e+00   1.794333770230284e+00   5.331602510336645e+00  3.29592500e-02  -2.55131320e-01   8.09939000e-02
C     1.780624963954936e+00   2.237731440776000e-04   5.337593346752329e+00 -7.01986500e-02  -5.81751880e-01  -4.37804730e-01
C     8.811188391240040e-01   8.972631331574169e-01   4.456708730153654e+00  1.97906600e-02  -5.49816160e-01  -4.47547770e-01
C     2.660317711332915e+00   2.673299254890012e+00   4.438079331572289e+00  4.92199470e-01   3.15606600e-02   3.68717000e-02
C     9.204418511313558e-01   2.671147961868295e+00   6.219484729246675e+00 -9.13744930e-01  -3.79393760e-01  -8.53291000e-02
C     2.663423807680950e+00   8.862194166907588e-01   6.224040090798475e+00  3.28036360e-01  -2.29861140e-01  -2.70804940e-01
C     3.545049761674665e+00   7.102724579512034e+00   3.555263356547760e+00  3.37096670e-01   1.30103620e-01  -1.17944300e-01
C     5.327953330500442e+00   1.765544089945475e+00   3.559085342137855e+00  2.00058380e-01   3.87088480e-01  -4.06445140e-01
C     3.557968040270444e+00   1.788511545599147e+00   5.333069688765413e+00 -5.22965420e-01  -5.36111310e-01   2.47072890e-01
C     5.337657606892813e+00   7.097326087953275e+00   5.335317087660952e+00 -1.83844710e-01   1.60753620e-01  -1.63839630e-01
C     4.433246243948725e+00   8.714882059899756e-01   4.453671585505033e+00  2.90054600e-01   5.08305510e-01  -3.45337650e-01
C     6.210770727209495e+00   2.669259396146613e+00   4.437721777914502e+00  2.62166490e-01  -1.04425760e-01   1.07676330e-01
C     4.426925079133890e+00   2.644783959718334e+00   6.252617371415400e+00  1.69795480e-01   1.22060311e+00  -1.05497441e+00
C     6.205865204759434e+00   8.902007020317684e-01   6.221747411250846e+00  4.71417080e-01   4.39840350e-01  -1.67468770e-01
C     6.390187598475199e-03   3.572026580938696e+00   3.533354345022206e+00 -8.10697190e-01  -8.24151980e-01   1.19327347e+00
C     1.788371651841986e+00   5.323556415688841e+00   3.550301961895904e+00 -6.23101510e-01   3.96635700e-02   8.82642600e-02
C     4.632416853001599e-03   5.338001796716074e+00   5.321154408601317e+00 -1.53867660e-01  -4.58595880e-01   3.07779760e-01
C     1.787231176516833e+00   3.571175418414177e+00   5.320973641414090e+00 -4.45583080e-01  -3.11642180e-01   5.91330220e-01
C     8.787666620790460e-01   4.436865497325697e+00   4.456563931584884e+00  5.16219180e-01   3.68781540e-01  -1.13763418e+00
C     2.671509069737391e+00   6.194634394609417e+00   4.422027660285615e+00 -1.93604030e-01   1.18166515e+00   7.37807440e-01
C     8.989978726136016e-01   6.193186693258627e+00   6.217563393696715e+00 -3.65706470e-01   1.57423716e+00   5.42025560e-01
C     2.637566422811117e+00   4.489571394431271e+00   6.213739204495607e+00  1.38187803e+00  -1.42441245e+00   4.66311970e-01
C     3.546830137204070e+00   3.560092818875788e+00   3.547172265584771e+00  5.27878110e-01  -1.30333520e-01   3.84346800e-02
C     5.331528653825623e+00   5.317438622845164e+00   3.558879695471459e+00 -1.42567070e-01   3.04745940e-01   2.13257070e-01
C     3.550233152364943e+00   5.335989899861936e+00   5.339302282634403e+00  2.32758470e-01   2.41096870e-01  -4.36994430e-01
C     5.322378407892255e+00   3.538121039978499e+00   5.339376921071914e+00  3.03347340e-01   3.02747560e-01  -5.99012700e-02
C     4.453198662148124e+00   4.445522774150370e+00   4.455097961587962e+00 -8.35317170e-01  -4.98171250e-01  -1.61293300e-02
C     6.227144410040856e+00   6.211070418307154e+00   4.430020868269126e+00 -2.70121100e-01   3.85928520e-01   2.08911740e-01
C     4.446011904710852e+00   6.226918788706897e+00   6.224458919059246e+00 -3.58693400e-02  -6.28970480e-01  -2.13313210e-01
C     6.220350748374469e+00   4.445339163594095e+00   6.201600151187433e+00 -3.11074000e-02  -2.57053870e-01   8.27147010e-01
