64
Lattice="7.10842262195238 0 0 0 7.10842262195238 0 0 0 7.10842262195238 " PBC="1 1 1" Properties=species:S:1:pos:R:3:force:R:3 Energy="-512.70596204"
C     7.089708204684100e+00   7.091668920895374e+00   2.795152617368540e-02  2.10762170e-01   7.16764230e-01  -6.04853820e-01
C     1.774596808320497e+00   1.767030105694186e+00   2.156247592282940e-02 -7.53170460e-01  -5.41876020e-01  -1.27144567e+00
C     7.107005200529573e+00   1.779888957876861e+00   1.785836219661884e+00  2.41645470e-01   3.81025560e-01   1.98436610e-01
C     1.772930451889917e+00   7.106433967687829e+00   1.756037925291523e+00  9.87166040e-01  -3.30347950e-01   1.18950506e+00
C     8.811663944713318e-01   8.667302543935048e-01   9.115236951965300e-01 -2.26792860e-01   6.30337690e-01  -3.37467610e-01
C     2.671100548689419e+00   2.649845085539548e+00   8.271453680968321e-01  3.99293300e-01   2.44979700e-02   2.20566846e+00
C     9.428639486016217e-01   2.701002981451164e+00   2.650965159691781e+00 -8.98942610e-01  -1.61466215e+00  -2.99278510e-01
C     2.686641977400430e+00   8.531247334988248e-01   2.661555998553319e+00 -7.78539260e-01   1.25627506e+00  -4.07635280e-01
C     3.579031718178028e+00   1.787903348959780e-02   2.111997661473440e-02 -2.07151000e-03   2.39509100e-02  -1.68761917e+00
C     5.335406795954417e+00   1.760501232770394e+00   3.741191258596480e-02  4.25651480e-01   2.11564288e+00  -1.00326251e+00
C     3.558933221893787e+00   1.759894031310194e+00   1.767013685237933e+00 -2.47636850e-01   6.49389710e-01   7.04254800e-02
C     5.320919546317952e+00   9.565875403960200e-03   1.763748289138984e+00  2.17539670e-01  -1.23748865e+00   1.04955238e+00
C     4.467847841651873e+00   9.237087399990555e-01   9.108846480029920e-01 -7.86751040e-01  -1.86384047e+00  -8.30423970e-01
C     6.211069849633345e+00   2.691323726706415e+00   9.505052185812171e-01  9.10464400e-02  -3.93208770e-01  -1.74888070e+00
C     4.400468880742547e+00   2.679526588526263e+00   2.649032379581403e+00  2.81661480e-01  -2.45625780e-01   1.69630530e+00
C     6.185635558077854e+00   8.918593813659191e-01   2.643943673080424e+00  1.22582275e+00   1.47776190e-01   1.06086431e+00
C     9.324402287558800e-03   3.588031052299174e+00   7.104170432672942e+00 -1.11511010e+00  -1.49611902e+00   9.33570750e-01
C     1.746573913583707e+00   5.341359744477535e+00   7.065433083605251e+00  1.60312802e+00   3.12082560e-01   1.26659919e+00
C     3.769653382766960e-02   5.304806671512520e+00   1.771308665269164e+00  6.33846600e-02   1.19351762e+00   4.71073020e-01
C     1.832376697492227e+00   3.530169771688445e+00   1.749490641553145e+00 -1.37854808e+00   1.89331876e+00  -2.64635210e-01
C     9.161748782852485e-01   4.463344016164067e+00   8.679966909674840e-01 -1.20118470e-01  -1.03952738e+00   9.93266400e-02
C     2.662955433714519e+00   6.257939376346767e+00   8.392049492401146e-01 -2.80425500e-01  -1.23653097e+00   9.52512520e-01
C     9.665862476533120e-01   6.219191364645147e+00   2.712769766666729e+00 -2.80312056e+00   2.20624360e-01  -1.65034002e+00
C     2.649906644479437e+00   4.501628985216220e+00   2.641613532145588e+00  1.89850100e-01  -2.61454426e+00   1.10758522e+00
C     3.561012435510138e+00   3.539773534984970e+00   7.089025369607222e+00  5.15099790e-01   8.11296220e-01   5.94560100e-01
C     5.338544453698885e+00   5.343783787675182e+00   3.501601874189380e-02  2.43201900e-02  -2.00498188e+00  -6.34631720e-01
C     3.512486433073577e+00   5.330054722395367e+00   1.757361655751819e+00  7.88643320e-01   1.15006477e+00  -6.86552400e-02
C     5.283031298332221e+00   3.553241010312370e+00   1.828026342848787e+00  1.92814923e+00   7.16517790e-01  -1.87344938e+00
C     4.436591823054828e+00   4.453726107106529e+00   9.273156247206695e-01 -5.44214940e-01  -7.89154090e-01  -1.29253158e+00
C     6.239278060947838e+00   6.164032777398769e+00   9.165312945954150e-01 -4.35810570e-01   2.60850644e+00  -5.97623530e-01
C     4.401687264379616e+00   6.194755664299314e+00   2.657790667091505e+00  1.02083243e+00   4.85963920e-01  -1.35339790e-01
C     6.243939195828225e+00   4.472723935232287e+00   2.610400021915811e+00 -9.90349830e-01  -2.12312886e+00   2.71590098e+00
C     1.578105363753100e-02   7.006843260760200e-03   3.545890048312575e+00 -4.49912370e-01   3.09893020e-01  -5.73367360e-01
C     1.804526821762007e+00   1.801923717398563e+00   3.514721178976852e+00 -7.71417200e-02  -1.31155991e+00   2.14530620e+00
C     7.102100388921771e+00   1.817660485563171e+00   5.289809819058426e+00 -1.30790872e+00  -1.13826588e+00   1.84684205e+00
C     1.724650543044460e+00   3.587414752058020e-02   5.355634594446116e+00  1.60448925e+00  -4.17863320e-01  -9.92528710e-01
C     8.504054775097700e-01   9.171784453907400e-01   4.447311040028882e+00  1.24671274e+00  -1.15347950e-01  -9.79240770e-01
C     2.694374732779145e+00   2.633534170079922e+00   4.514270888340532e+00 -9.23415360e-01   1.39336247e+00  -3.29731763e+00
C     8.298303614888586e-01   2.624138754650389e+00   6.256968863406459e+00  2.14849536e+00   1.98960951e+00  -1.25936686e+00
C     2.679672666611104e+00   9.084610313107029e-01   6.189855899671573e+00 -8.21239690e-01  -7.08710260e-01   2.14643446e+00
C     3.532704706278964e+00   7.059719262419070e+00   3.558664523518752e+00  3.28506600e-01   1.20156177e+00  -2.67062790e-01
C     5.291000693099956e+00   1.791363018248934e+00   3.553129621329914e+00  1.94934560e-01  -1.30956677e+00  -1.35381370e-01
C     3.573186106836471e+00   1.776861622851455e+00   5.357258940099012e+00 -5.16826000e-03  -9.69079490e-01  -7.10731980e-01
C     5.332412941599552e+00   7.057774397990237e+00   5.326070878022214e+00  8.91496870e-01   1.63906497e+00  -4.10945220e-01
C     4.404620199552627e+00   8.217956403172464e-01   4.458557133287533e+00  1.27399941e+00   1.78210450e+00  -3.72741440e-01
C     6.194270940960856e+00   2.673758458991264e+00   4.418548513918481e+00  1.10317724e+00   3.72878580e-01  -6.74110100e-01
C     4.459325624856981e+00   2.664024611560793e+00   6.218321933474495e+00  4.63903470e-01  -1.31383630e-01   1.27363910e-01
C     6.209132875553620e+00   9.325317141549995e-01   6.230099452408216e+00  1.46941960e-01  -2.30823800e+00  -4.41883400e-01
C     4.111376583378220e-02   3.546110622666474e+00   3.520844018800589e+00 -9.87485350e-01   8.82690500e-01   1.15530380e-01
C     1.766795030158142e+00   5.321576151315361e+00   3.606878963791877e+00  1.76927649e+00   8.02353950e-01  -1.80039621e+00
C     7.096574230092758e+00   5.308948749373193e+00   5.312522722098077e+00  4.59837050e-01   7.24077630e-01  -4.05903300e-02
C     1.791164408920931e+00   3.526833717868653e+00   5.341422227512365e+00 -2.40061360e-01   2.86328600e-01   6.51165780e-01
C     9.300972215761019e-01   4.425771168889985e+00   4.417455949361788e+00 -1.65515736e+00  -6.33912250e-01   1.89560324e+00
C     2.675888142408215e+00   6.230995540163693e+00   4.452515684902794e+00 -1.64922728e+00  -3.98412920e-01   1.14275351e+00
C     8.598221471229364e-01   6.237361985630617e+00   6.238687351028116e+00 -7.23404100e-02  -5.69707080e-01  -1.41362096e+00
C     2.682559397037086e+00   4.443100081553021e+00   6.243413101470119e+00 -1.09367558e+00   3.15240510e-01  -1.19732568e+00
C     3.539814834920392e+00   3.580221597040390e+00   3.545777379814048e+00 -2.94325470e-01  -4.02872900e-01   1.14810012e+00
C     5.311528538110444e+00   5.304693007834826e+00   3.539661221907575e+00  7.44795570e-01   1.17071167e+00  -3.44997770e-01
C     3.548315086689389e+00   5.377218608889483e+00   5.363858399659419e+00  3.32007720e-01  -1.99836563e+00  -2.59640100e-01
C     5.351583575479203e+00   3.566225326154288e+00   5.287699897056359e+00 -1.40283150e+00  -4.85160900e-01   2.13548932e+00
C     4.404455994990105e+00   4.447163113754161e+00   4.489307743036295e+00  1.38586706e+00   2.33879340e-01  -2.30552745e+00
C     6.248324026321371e+00   6.219586877279723e+00   4.364362003465389e+00 -1.25003068e+00  -8.75575130e-01   2.53513328e+00
C     4.500681503565200e+00   6.178125225242919e+00   6.214959649575235e+00 -1.64973192e+00   1.94989306e+00   1.32825634e+00
C     6.199316996926115e+00   4.423439321933720e+00   6.226928740498565e+00  9.32711910e-01   9.23862130e-01  -6.35420830e-01
