64
Lattice="7.10842262195238 0 0 0 7.10842262195238 0 0 0 7.10842262195238 " PBC="1 1 1" Properties=species:S:1:pos:R:3:force:R:3 Energy="-514.29570714"
C     1.019319370017520e-02   7.108105442182695e+00   7.104148396562820e+00 -1.60732600e-01   2.73514670e-01  -6.09726000e-01
C     1.784362074978948e+00   1.804043662276526e+00   7.104632622311694e+00 -4.01389440e-01  -1.31393207e+00   1.15998350e-01
C     2.528679178612600e-03   1.784654444401309e+00   1.743869798534833e+00 -3.05921550e-01  -6.22623320e-01   1.16091961e+00
C     1.757602631278637e+00   7.080996050836801e+00   1.790629286866097e+00  1.17888943e+00   1.32399775e+00  -2.55956610e-01
C     8.895424620971564e-01   9.034151175138960e-01   8.878987815347338e-01  2.37000690e-01  -9.00101650e-01  -1.45245820e-01
C     2.660214354868021e+00   2.647166276475201e+00   8.850203679632171e-01  2.94168900e-01   1.16294630e+00   1.00143390e-01
C     8.771666272315102e-01   2.661591469582193e+00   2.656514420894311e+00  3.41980900e-01   1.86773520e-01  -3.29623810e-01
C     2.678258019425498e+00   8.794564634100908e-01   2.653322739137931e+00 -4.15341500e-01  -2.51857890e-01   5.49528590e-01
C     3.535927096421062e+00   7.090614386399697e+00   1.383441210304400e-02  8.62441980e-01   1.31241537e+00  -4.53340740e-01
C     5.335463521166925e+00   1.800963867092185e+00   7.081717129227375e+00 -3.74332970e-01  -1.34528253e+00   3.64144500e-01
C     3.572355629821776e+00   1.764203583607795e+00   1.746197025016395e+00 -1.08388099e+00   1.78463980e-01   1.46690384e+00
C     5.325933401128743e+00   1.671737506503740e-02   1.754535844507690e+00  7.32763790e-01  -2.96382220e-01   6.66815450e-01
C     4.436862227451292e+00   8.932856152803960e-01   8.798745808285992e-01  5.35787430e-01  -1.14946010e-01  -6.58759380e-01
C     6.222107381772323e+00   2.623645074699430e+00   8.618949631589283e-01 -3.70837200e-01   1.87632039e+00   6.10879800e-01
C     4.422045502426391e+00   2.653073446756647e+00   2.676109711941281e+00  1.12820270e+00   3.00928760e-01  -5.29988900e-02
C     6.210251528021330e+00   9.084439710964149e-01   2.648851541309951e+00  3.58052170e-01  -5.91304280e-01   5.23370610e-01
C     7.101200249365402e+00   3.533109886368304e+00   1.923468076745800e-03 -1.02822870e-01   1.14977605e+00  -2.07231890e-01
C     1.782140337489067e+00   5.364751359708944e+00   1.822798595601360e-02  2.60015700e-01  -1.15245172e+00  -1.00413871e+00
C     7.105711254360053e+00   5.314480666024530e+00   1.773310539247408e+00 -3.64443900e-02   4.04726350e-01   6.65394710e-01
C     1.759659524447960e+00   3.564804423556776e+00   1.764296348522986e+00  8.41358010e-01  -4.80262540e-01   8.04167550e-01
C     8.736891868858062e-01   4.442511290907406e+00   8.959517713524794e-01  5.47424770e-01   2.35314130e-01  -5.35250460e-01
C     2.705231000141314e+00   6.240823787446558e+00   8.939798238334651e-01 -2.23555819e+00  -1.08351837e+00   6.62092730e-01
C     8.852939000656348e-01   6.207810140272491e+00   2.690471426834277e+00 -3.51979000e-01   1.37072280e-01  -9.12926020e-01
C     2.667293277534148e+00   4.447323621936921e+00   2.680826647939234e+00 -4.59361750e-01   9.55940600e-02  -4.94774100e-01
C     3.564110783677516e+00   3.548500474351318e+00   9.160837483072601e-03 -9.31221220e-01   5.50937810e-01  -2.47060570e-01
C     5.320437453095863e+00   5.355914879550022e+00   3.317635896783780e-02  3.14307520e-01  -9.35861520e-01  -1.78681790e+00
C     3.558787214893172e+00   5.340221686016074e+00   1.777356866655391e+00 -8.96763600e-02  -2.05092970e-01   6.87548570e-01
C     5.335378362263937e+00   3.528655677670385e+00   1.776079980700160e+00 -2.88262900e-01   5.26479380e-01   2.30863850e-01
C     4.410285470212315e+00   4.457490372304949e+00   8.961221602426809e-01  1.70609317e+00  -8.35757660e-01   1.48348520e-01
C     6.238468340527194e+00   6.219673884372592e+00   8.709603345262144e-01 -6.37785100e-01   2.90568530e-01   9.21489860e-01
C     4.479933013116587e+00   6.214395809493017e+00   2.661221902690179e+00 -9.66400990e-01   7.31231600e-02  -3.72145300e-02
C     6.240850372947157e+00   4.420628367292867e+00   2.680751725164820e+00 -9.55721930e-01   1.04831900e-02  -5.94076450e-01
C     7.106788109302757e+00   7.107117869028099e+00   3.548436925053095e+00 -2.10907580e-01   5.08459210e-01   2.67402740e-01
C     1.776947492596705e+00   1.800573330353442e+00   3.537042123593235e+00  3.84105190e-01  -6.08060020e-01   2.02311080e-01
C     7.827084146881999e-03   1.799002866544005e+00   5.330206131797173e+00 -2.10009470e-01  -3.93774740e-01   2.13632470e-01
C     1.772125778449333e+00   1.676862679212760e-02   5.299216465795698e+00  5.20465340e-01  -5.74238630e-01   1.33521166e+00
C     8.983217194539874e-01   9.236643123576804e-01   4.454029210247045e+00 -2.40814800e-01  -7.64424370e-01  -1.13995360e+00
C     2.642519429524281e+00   2.694574977044351e+00   4.443586013323324e+00  1.19568307e+00  -1.12730977e+00   2.24959210e-01
C     8.781913063521832e-01   2.693187697285831e+00   6.232212217779332e+00  6.72232200e-01  -9.65645090e-01  -3.58455850e-01
C     2.663204583927350e+00   8.654519467537501e-01   6.249009491514618e+00 -1.13022340e-01   9.79918190e-01  -1.42099260e+00
C     3.565822349675960e+00   7.068858490297377e+00   3.565997785546222e+00 -1.31137100e-02   1.24860051e+00  -9.25722330e-01
C     5.333947792211662e+00   1.781000786258855e+00   3.601451825289960e+00 -2.92840260e-01  -4.62877100e-01  -2.46191348e+00
C     3.577313470262322e+00   1.758544923781144e+00   5.340283884713998e+00 -1.60925123e+00   5.46599970e-01  -8.40200400e-02
C     5.319595176099620e+00   7.923474357609199e-03   5.345652378729302e+00  9.72378180e-01  -4.37486070e-01  -4.85687300e-01
C     4.452966358896902e+00   8.823608938083966e-01   4.437500705971021e+00 -3.11644030e-01  -2.88055660e-01   8.54183610e-01
C     6.218457277841179e+00   2.665365188982699e+00   4.429318982619628e+00 -4.52725100e-01  -7.04432200e-02   1.22375446e+00
C     4.417417848216544e+00   2.680981042878541e+00   6.225140830041183e+00  1.22976187e+00  -5.41131690e-01  -4.60612540e-01
C     6.230209632958826e+00   8.952908302172718e-01   6.208515651217526e+00 -3.61771370e-01   6.57109300e-02   1.19952420e-01
C     4.734209464920000e-04   3.515450787474569e+00   3.566232292408456e+00 -7.55567000e-02   1.11004324e+00  -6.23073980e-01
C     1.737425658008672e+00   5.325236633543530e+00   3.574067480157125e+00  1.51892025e+00  -6.56652020e-01  -3.24867550e-01
C     1.731476690202220e-02   5.300947295619443e+00   5.309972646567378e+00 -1.03382035e+00   7.85215600e-01   9.29062850e-01
C     1.769658800379062e+00   3.556327842835105e+00   5.347766494700716e+00  3.12673940e-01   4.12766760e-01  -1.88315280e-01
C     8.688966172711761e-01   4.415513715049325e+00   4.457138078879902e+00  8.37540460e-01   1.82768720e-01  -5.08092870e-01
C     2.672605828263431e+00   6.188844726553879e+00   4.443824785239130e+00 -8.69503430e-01   1.34472048e+00  -3.16011740e-01
C     8.868859734798361e-01   6.222683519425674e+00   6.192022333633472e+00  4.04087330e-01   5.20823500e-02   6.00048700e-01
C     2.688442825186981e+00   4.442650473822306e+00   6.217336279594006e+00 -9.13705150e-01   4.40330040e-01   4.23210210e-01
C     3.577828404396914e+00   3.565723826938447e+00   3.570338330566446e+00 -1.43194528e+00   1.33468260e-01  -4.16064510e-01
C     5.336977046511175e+00   5.328804990614545e+00   3.562415851388004e+00  6.15440150e-01  -2.31428380e-01  -5.42282240e-01
C     3.559213364829241e+00   5.349588241249769e+00   5.312462158337355e+00 -9.27902800e-02  -6.39789480e-01   1.41990617e+00
C     5.302299246517541e+00   3.556014219229111e+00   5.327076080064908e+00  1.03032206e+00   5.21717140e-01   1.63596140e-01
C     4.445455101967028e+00   4.477723928618969e+00   4.455988433689569e+00  1.29850780e-01  -1.13937114e+00  -6.71363320e-01
C     6.226545667603573e+00   6.193317488234835e+00   4.437994101585075e+00 -1.45254100e-01   1.08419998e+00   3.29011480e-01
C     4.431860812380087e+00   6.243882044110360e+00   6.227099555894123e+00  2.86613870e-01  -6.41937440e-01   5.27003000e-02
C     6.228278203448745e+00   4.433096895989479e+00   6.198896036138559e+00 -8.99171950e-01   1.69665430e-01   1.18590405e+00
