64
Lattice="7.10842262195238 0 0 0 7.10842262195238 0 0 0 7.10842262195238 " PBC="1 1 1" Properties=species:S:1:pos:R:3:force:R:3 Energy="-511.44543935"
C     1.645478993345460e-02   7.101673528143441e+00   4.839840625053200e-02 -1.01199810e-01   3.50002680e-01  -1.51773006e+00
C     1.822106235238172e+00   1.815029516183057e+00   6.493970568727200e-03 -1.61368259e+00  -2.30605677e+00  -1.07539992e+00
C     5.355201265003200e-03   1.751000825938764e+00   1.772822190613414e+00  1.13302190e-01   5.59003400e-01   9.23406300e-02
C     1.740613216879932e+00   4.223376890178940e-02   1.775565899576282e+00  2.17954476e+00  -2.24248134e+00   1.33739138e+00
C     9.528777257148682e-01   8.928652231666493e-01   8.689246244562988e-01 -2.45633077e+00   7.16212460e-01   8.56496840e-01
C     2.620243267970403e+00   2.650689992652161e+00   9.111961390822003e-01  1.92953144e+00   7.66670620e-01   4.92469190e-01
C     8.267941409351780e-01   2.693982916524330e+00   2.690163632134831e+00  1.58152756e+00  -1.40469347e+00  -7.18213960e-01
C     2.673769761383230e+00   8.464772210015056e-01   2.699727232843553e+00 -6.82921260e-01   2.48241789e+00  -1.82496271e+00
C     3.514555410561353e+00   7.057306308360711e+00   8.324702163972481e-02  1.59613469e+00   1.65190610e+00  -3.19640663e+00
C     5.311505648989607e+00   1.721466396216057e+00   7.084602509053059e+00 -8.13265600e-02   3.10379790e+00   7.18493070e-01
C     3.564014109129884e+00   1.745035864181418e+00   1.768186077380650e+00 -4.44202600e-01   1.21807240e+00   7.56552940e-01
C     5.282763879473256e+00   7.471982894899901e-02   1.743897947888408e+00  2.13791259e+00  -2.90940075e+00   2.00705972e+00
C     4.432239478053054e+00   9.202981188259794e-01   8.795057958630735e-01 -7.68916790e-01  -2.05247203e+00  -4.45032440e-01
C     6.224344686707743e+00   2.599690259143840e+00   8.942438306495720e-01  9.12449200e-02   1.80489228e+00  -1.15369620e+00
C     4.501095711351267e+00   2.658866597939268e+00   2.614266221894602e+00 -1.46193995e+00   1.94069760e-01   1.82031922e+00
C     6.214446350377845e+00   8.818211512788600e-01   2.659267655143489e+00  1.10392103e+00   2.52681570e-01   4.16198830e-01
C     4.278964755067340e-02   3.543735840837585e+00   7.069567484369497e+00 -1.87039119e+00  -6.74713170e-01   2.34129698e+00
C     1.778556768393647e+00   5.331572441708962e+00   7.099048458754101e+00  5.12846030e-01  -1.42496970e-01   1.76310499e+00
C     7.053396533751259e+00   5.275835157777090e+00   1.763675712144034e+00  1.81455557e+00   2.68047837e+00   7.28074870e-01
C     1.769963325204103e+00   3.525760132800355e+00   1.810413519786308e+00 -5.63395630e-01   2.02624927e+00  -5.37789620e-01
C     8.791104964811753e-01   4.461645885084375e+00   9.235381378561753e-01  5.55630770e-01  -1.76039302e+00  -2.02410180e+00
C     2.665585692252371e+00   6.218407305630161e+00   9.549855151901505e-01 -7.11865220e-01  -4.00151380e-01  -1.22496605e+00
C     9.087426670149075e-01   6.230958860702973e+00   2.690359113756881e+00 -2.43744272e+00  -5.14986700e-02  -1.94256273e+00
C     2.680112180381698e+00   4.492491960948924e+00   2.660128982712354e+00 -1.25461660e-01  -3.11147160e+00   2.31471190e-01
C     3.503924622364691e+00   3.543070279227674e+00   2.296454120039820e-02  1.91214623e+00   7.09784700e-01  -1.97167720e-01
C     5.319225609207606e+00   5.424698891274415e+00   7.044725750923608e+00  3.55411020e-01  -3.87892038e+00   1.52389363e+00
C     3.576303789913376e+00   5.340974681224210e+00   1.819895373634900e+00 -3.87359750e-01   4.22450330e-01  -1.24032057e+00
C     5.349888927526595e+00   3.529865246863405e+00   1.763142722615986e+00  3.05560550e-01   1.48963400e+00  -9.31202900e-01
C     4.447572416728621e+00   4.496127705866376e+00   8.750405691100944e-01 -2.70587460e-01  -1.57468634e+00   2.07070400e-02
C     6.200739747713508e+00   6.202572583401849e+00   9.076804554228007e-01 -4.09213500e-02   1.99416576e+00  -1.14631087e+00
C     4.463179100759283e+00   6.242239500895557e+00   2.672175342189564e+00 -4.29526780e-01  -2.78231900e-02  -3.07999670e-01
C     6.232280174299579e+00   4.466826076984474e+00   2.659037413334827e+00 -1.69761899e+00  -2.24767676e+00   1.58637354e+00
C     7.106915136814976e+00   7.078679486989169e+00   3.578217021861550e+00 -3.10863700e-01   6.94530640e-01  -7.48710580e-01
C     1.742854360363566e+00   1.814744326267543e+00   3.511638540423463e+00  1.17166021e+00  -2.00249564e+00   2.62612151e+00
C     5.938205654605120e-02   1.766686342376282e+00   5.344742216297036e+00 -2.40968707e+00  -9.27661170e-01   5.64546350e-01
C     1.794995635460433e+00   7.068473284875600e+00   5.326661019268126e+00  4.83132050e-01   8.14667260e-01   1.52988920e-01
C     8.937973506248097e-01   8.320288544367722e-01   4.461096332931623e+00  1.93786850e-01   2.02246248e+00  -7.27880080e-01
C     2.639101628844359e+00   2.681846706585205e+00   4.476973563527202e+00  7.21207750e-01  -6.09041700e-01  -2.60370448e+00
C     8.735500039709065e-01   2.637692668396848e+00   6.218560847558753e+00  2.41146555e+00   1.80609541e+00  -6.10048760e-01
C     2.704532668703125e+00   8.414508553669036e-01   6.239173780388002e+00 -1.62763904e+00   1.01100031e+00   1.13842240e-01
C     3.569015879622222e+00   7.089091549021814e+00   3.538760371508942e+00 -2.35448280e-01   1.01124437e+00   2.32956410e-01
C     5.410869383982980e+00   1.818730658588612e+00   3.561740053649521e+00 -2.35033894e+00  -1.49822501e+00  -1.57993890e-01
C     3.516895645456310e+00   1.766049001204173e+00   5.349412378874150e+00  1.02258202e+00   1.29590570e-01  -9.45975180e-01
C     5.271752506329519e+00   2.217991351160260e-02   5.342931629971496e+00  2.09164270e+00   4.76989130e-01  -1.27953555e+00
C     4.431586214014276e+00   9.059696713508454e-01   4.411071875006765e+00  4.03485990e-01   4.66427340e-01   9.43249380e-01
C     6.243540697656147e+00   2.661646915278629e+00   4.524032742956126e+00  2.15495200e-01   5.00036220e-01  -2.33017186e+00
C     4.396897111628676e+00   2.665342726367220e+00   6.217786171661626e+00  1.10199677e+00  -2.21036940e-01   3.77425780e-01
C     6.200985912388839e+00   9.174383293217271e-01   6.237660255043752e+00  9.08978730e-01  -2.35030334e+00  -5.65644670e-01
C     7.097814578755721e+00   3.546156827413504e+00   3.609344733430303e+00 -1.19593960e-01   1.16929844e+00  -1.95768357e+00
C     1.729888313167781e+00   5.319834943194593e+00   3.513537057936812e+00  3.49293532e+00   1.69255904e+00  -5.12237190e-01
C     4.175985036571400e-03   5.320684328613456e+00   5.317456678238619e+00  1.27309570e-01   5.64771910e-01   4.61580260e-01
C     1.772938910912835e+00   3.604485415727271e+00   5.265416200574504e+00  3.11689740e-01  -1.01386144e+00   2.11509109e+00
C     9.109516093440724e-01   4.486332939254051e+00   4.348151032427800e+00 -1.68132573e+00  -1.69591185e+00   4.02980032e+00
C     2.700996015196997e+00   6.205767677201087e+00   4.375174056438861e+00 -2.02584231e+00  -3.96809000e-01   2.09979875e+00
C     9.118462754150256e-01   6.226136648966018e+00   6.244116053383010e+00 -8.67959450e-01  -9.60469910e-01  -9.86605670e-01
C     2.695134694241449e+00   4.427034904263368e+00   6.233514836224447e+00 -2.19347355e+00   1.19457266e+00  -1.39176278e+00
C     3.605646292225344e+00   3.541742852387615e+00   3.514776055999478e+00 -1.39692031e+00   5.25772870e-01   1.44716005e+00
C     5.322131958880020e+00   5.350809752592790e+00   3.583930132205470e+00  8.83808440e-01  -2.52175900e-02  -1.38642004e+00
C     3.544922876330898e+00   5.335289435896961e+00   5.272793392653766e+00  2.31934700e-01  -9.79689590e-01   1.59143232e+00
C     5.340737899666738e+00   3.573630880839804e+00   5.326301688504685e+00 -1.08745578e+00  -1.24101468e+00   1.61897889e+00
C     4.441463153992087e+00   4.445906700056075e+00   4.453726533611885e+00  8.48532880e-01  -4.12216070e-01  -1.44487674e+00
C     6.214834683505575e+00   6.235679777417594e+00   4.449554955797338e+00 -5.14107470e-01  -6.65505130e-01   8.53960910e-01
C     4.412982334670117e+00   6.217191623193689e+00   6.144076378482702e+00 -8.40614400e-02   7.24646440e-01   2.60597703e+00
C     6.223412345996903e+00   4.393270252239500e+00   6.240306649700952e+00  2.66889640e-01   2.57577083e+00  -1.32957994e+00
