64
Lattice="7.10842262195238 0 0 0 7.10842262195238 0 0 0 7.10842262195238 " PBC="1 1 1" Properties=species:S:1:pos:R:3:force:R:3 Energy="-510.71358485"
C     7.095940727468864e+00   7.078041861480155e+00   7.088420513926487e+00 -4.63864000e-01   9.43661050e-01   4.06732370e-01
C     1.739123860172590e+00   1.798993838847278e+00   7.099727313114311e+00  5.04737400e-02  -4.01238210e-01  -4.92282460e-01
C     1.151543139172140e-02   1.717107013875890e+00   1.793871864928437e+00 -3.50915470e-01   2.00108579e+00  -9.45923600e-01
C     1.778017310201015e+00   2.066937370485260e-02   1.686263639211936e+00  4.87476900e-02  -1.34568860e+00   3.77796394e+00
C     8.600423660557041e-01   8.798720217964560e-01   8.361905515438773e-01  9.20062690e-01  -4.05277570e-01   1.00837688e+00
C     2.616941903252997e+00   2.657059281488134e+00   8.977052059601548e-01  2.29570186e+00  -1.67324530e-01   9.04795000e-02
C     8.828925327361464e-01   2.620260328184691e+00   2.666217417770611e+00  1.97994868e+00   1.45564535e+00  -4.25242190e-01
C     2.676243208118085e+00   8.853964746040414e-01   2.705371604740737e+00  1.18309037e+00  -7.07272700e-01  -2.64221536e+00
C     3.594374111055678e+00   2.342402963855500e-02   3.831944490186020e-02 -1.05816827e+00  -4.40262550e-01  -2.51453837e+00
C     5.384634897293155e+00   1.819914637460200e+00   7.067686098154661e+00 -9.54192800e-01  -5.31057900e-02   5.68223470e-01
C     3.554266329191079e+00   1.779181883078849e+00   1.819211187957725e+00 -5.48334300e-01  -5.32895710e-01  -1.95478775e+00
C     5.286556151856800e+00   7.104739319735220e+00   1.741724476588117e+00  2.48820129e+00  -3.26130040e-01   1.28098077e+00
C     4.485807768990886e+00   9.264395827169808e-01   8.331595912229356e-01 -1.07884206e+00  -5.53059100e-01   2.11382860e+00
C     6.207922311181434e+00   2.716520881283303e+00   9.267940797530403e-01  6.24316570e-01  -2.16930995e+00  -3.26957230e-01
C     4.401705106520391e+00   2.658052541380826e+00   2.668808935405184e+00  6.38486810e-01   7.63379980e-01   9.37927500e-01
C     6.229977471876056e+00   9.011389295067457e-01   2.661166741330648e+00 -1.55000668e+00  -1.72172124e+00   5.14467500e-01
C     7.096811224902908e+00   3.609499128369610e+00   6.692572788307380e-02 -3.01438820e-01  -1.50822371e+00  -1.40521405e+00
C     1.748380448108354e+00   5.380374961785441e+00   6.997405408047626e+00  1.71396577e+00  -2.32510694e+00   3.87581403e+00
C     2.635305517912600e-03   5.324648482655951e+00   1.755799082291491e+00  4.87379570e-01  -2.01783940e-01   1.80964437e+00
C     1.817825187715277e+00   3.562691871438339e+00   1.764171524621779e+00 -2.19465498e+00   2.63749660e-01   6.02376460e-01
C     9.189373534838327e-01   4.480992807845003e+00   8.696063221855568e-01 -4.51399780e-01  -3.54588710e-01   2.10439010e-01
C     2.653420195612051e+00   6.175523542563999e+00   8.756755645027390e-01  3.96008390e-01   2.55937033e+00  -1.05123936e+00
C     8.961188903682756e-01   6.214798714887118e+00   2.680615243450516e+00 -6.71497420e-01  -3.44701800e-02  -4.73463630e-01
C     2.661093311324983e+00   4.451308959078824e+00   2.682026194256359e+00 -4.33164930e-01  -1.23514135e+00   7.20604020e-01
C     3.592602763223001e+00   3.529399503013342e+00   3.897740049956740e-02 -2.02949276e+00  -1.09213136e+00  -2.27309402e+00
C     5.314877884680535e+00   5.319795633617504e+00   1.309158193925400e-03  5.01256790e-01  -4.59017110e-01   1.59630490e-01
C     3.532213087770564e+00   5.295198856415101e+00   1.742719869007595e+00  3.35783500e-01  -6.13709800e-02   1.27704543e+00
C     5.290539925145727e+00   3.510046609177714e+00   1.801081013896962e+00  5.97002380e-01   2.41139389e+00  -5.77918870e-01
C     4.424505656410947e+00   4.395906624020806e+00   8.316115900289781e-01  8.78359330e-01   1.29803391e+00   3.17742691e+00
C     6.220391763972986e+00   6.147550548954000e+00   9.263038118449388e-01 -1.01470897e+00   2.95307316e+00  -2.20742079e+00
C     4.450204025866771e+00   6.164459424924421e+00   2.654190535371380e+00 -6.87669500e-01   2.33495549e+00  -4.30589480e-01
C     6.205590961814754e+00   4.456313999445565e+00   2.649863496354134e+00  7.09220630e-01  -1.68238434e+00   1.04160671e+00
C     7.106139110317551e+00   7.078668540018334e+00   3.625097140124676e+00  7.48273420e-01   1.34325144e+00  -4.41116747e+00
C     1.840016687955750e+00   1.780084937088494e+00   3.541292747067317e+00 -2.12878278e+00  -5.09476870e-01   5.82363990e-01
C     1.504988128683780e-02   1.774259229330273e+00   5.304425375723183e+00 -1.12690042e+00  -1.49521190e-01   3.14398470e-01
C     1.760898664679079e+00   1.610597963549120e-02   5.313714449150320e+00  4.57532710e-01   1.79542506e+00   1.27414220e-01
C     8.895544042471579e-01   8.936504906134807e-01   4.354443692467928e+00  1.03119035e+00   4.72591340e-01   3.81118995e+00
C     2.673742607208821e+00   2.652729967775649e+00   4.518206608692548e+00 -9.38987590e-01   4.68293400e-02  -2.36623169e+00
C     7.655309114269699e-01   2.681688188760778e+00   6.233473891710156e+00  4.44299736e+00  -3.94525850e-01   2.51098230e-01
C     2.703210075590448e+00   9.248793550361171e-01   6.193764963438764e+00 -1.62981760e+00  -4.91134470e-01   1.48804554e+00
C     3.604165323456693e+00   7.090695706754469e+00   3.570009637104498e+00 -2.16674790e+00   6.26508610e-01  -2.96721200e-01
C     5.328403791241872e+00   1.834794129856836e+00   3.510016967055388e+00  1.73955020e-01  -2.59490743e+00   1.70486921e+00
C     3.589292299724641e+00   1.822008992016730e+00   5.315745965250890e+00 -7.52624450e-01  -2.15438376e+00   1.21109941e+00
C     5.361424404670105e+00   2.091603596976660e-02   5.303241467935822e+00 -4.37984890e-01   2.46095300e-01   1.45934304e+00
C     4.428141756749529e+00   9.161629361352468e-01   4.460424658078258e+00  2.05496026e+00  -7.31731320e-01  -2.05038107e+00
C     6.217102412489808e+00   2.622077880764399e+00   4.461390408375411e+00  8.11451200e-02   2.62909314e+00  -1.95121546e+00
C     4.472269280521513e+00   2.672051442383297e+00   6.153575008208677e+00  5.97739400e-02   9.30457800e-01   2.22389629e+00
C     6.244244289327075e+00   9.355087926324815e-01   6.209562721869452e+00 -1.80788410e-01  -2.40045991e+00  -3.19478130e-01
C     6.077203750516599e-02   3.522565323338022e+00   3.567789321299140e+00 -2.95710510e+00  -1.02410660e-01  -5.09862640e-01
C     1.739715778524157e+00   5.308355906926685e+00   3.618133018483861e+00  1.57023698e+00   1.11453226e+00  -1.59709617e+00
C     7.070961730382184e+00   5.346575620659187e+00   5.333478991739873e+00  1.57742797e+00  -2.23276844e+00   1.45652928e+00
C     1.766010047048216e+00   3.489281698272849e+00   5.361832925718076e+00 -4.44470600e-01   2.07613092e+00   1.13029179e+00
C     8.539263503176822e-01   4.383492972346821e+00   4.490923700750500e+00  1.79326673e+00   1.68550224e+00  -6.91338270e-01
C     2.658861053369625e+00   6.310875302008323e+00   4.482380656277331e+00  5.13269870e-01  -4.15093371e+00  -5.05533060e-01
C     8.582048388084339e-01   6.241866521960685e+00   6.182622582066140e+00  7.31447730e-01  -1.39362080e-01  -4.07816430e-01
C     2.706512008981664e+00   4.395624846148149e+00   6.280446774888473e+00 -1.68996304e+00   1.77421556e+00  -2.60144318e+00
C     3.526817937170437e+00   3.519242633352755e+00   3.632998294035258e+00 -1.36804390e-01   1.83601873e+00  -2.98519569e+00
C     5.321381522704026e+00   5.331430344340789e+00   3.557162584903371e+00  9.49024680e-01  -2.12298300e-01  -9.20307990e-01
C     3.578825431753595e+00   5.372553137871298e+00   5.386024807168044e+00 -1.48901485e+00  -1.44965442e+00  -1.98449674e+00
C     5.333948645222376e+00   3.591434209628499e+00   5.288066691663551e+00  1.29769910e-01  -1.00780720e+00   1.21865711e+00
C     4.385838325306064e+00   4.464650188820491e+00   4.390114112596219e+00  2.41807539e+00   2.35909720e-01   2.85760689e+00
C     6.293896692412001e+00   6.218101288036370e+00   4.473529603852039e+00 -4.38957916e+00   3.39377700e-02  -9.10414090e-01
C     4.467802560999782e+00   6.224620351336945e+00   6.207568240650732e+00  5.07621310e-01   9.03230320e-01   1.18532942e+00
C     6.214753434235029e+00   4.427249578626493e+00   6.279145293790978e+00 -8.09009980e-01   1.75525464e+00  -2.32867989e+00
