64
Lattice="7.10842262195238 0 0 0 7.10842262195238 0 0 0 7.10842262195238 " PBC="1 1 1" Properties=species:S:1:pos:R:3:force:R:3 Energy="-506.80444092"
C     7.035826005803369e+00   4.199485481753119e-02   7.249432399512939e-02  2.85187988e+00  -9.82523970e-01  -3.05485353e+00
C     1.765837099125871e+00   1.772454258658603e+00   7.073587013024202e+00 -1.88988890e-01  -9.77541020e-01   2.02229989e+00
C     7.048742222956587e+00   1.817294970472051e+00   1.824851010464433e+00  3.76759334e+00  -2.15706000e-01   9.44103600e-02
C     1.795335560230121e+00   7.094359316688592e+00   1.789360078007296e+00 -9.63965110e-01   1.25296423e+00  -1.01975320e+00
C     9.063798984202455e-01   8.752434434916692e-01   9.122240169930523e-01 -2.05475341e+00   1.22220641e+00   8.85317080e-01
C     2.749499839354983e+00   2.620529239812406e+00   7.793230994996512e-01 -3.28211176e+00   1.93737347e+00   2.34293394e+00
C     9.785800758873593e-01   2.697227556029230e+00   2.727679896364857e+00 -2.85711085e+00  -1.59489895e+00  -3.21483432e+00
C     2.679143515631271e+00   9.576619073908067e-01   2.601674575318213e+00 -1.34987790e+00  -2.69115526e+00   3.49591263e+00
C     3.595476911740946e+00   3.579623920866500e-02   1.724268749665540e-02 -1.36445550e+00  -1.12272310e+00   1.02727510e+00
C     5.398993555564424e+00   1.822870319585596e+00   6.936498310512680e-02 -2.21791340e-01  -2.44916155e+00  -3.70991020e-01
C     3.535934418096361e+00   1.872761139165197e+00   1.762326533530758e+00  1.46491561e+00  -3.99706228e+00   7.02657580e-01
C     5.352116493923025e+00   7.092726156591647e+00   1.816726367746677e+00 -2.18221277e+00   1.75660124e+00   4.73879500e-02
C     4.464914053468146e+00   9.291336038057345e-01   9.626333249185561e-01 -2.04960690e-01  -8.11559690e-01  -1.60090407e+00
C     6.316298886298931e+00   2.683180744258300e+00   9.082348413029345e-01 -3.59747624e+00   1.11165577e+00  -5.65676290e-01
C     4.430425764021561e+00   2.625642399287198e+00   2.679008739938396e+00  3.86733410e-01   3.42252773e+00   5.15577570e-01
C     6.107479375465894e+00   1.019758599451210e+00   2.684934249950202e+00  4.61586128e+00  -5.42316032e+00  -3.33511470e-01
C     7.095811212008726e+00   3.543922223678681e+00   7.095479177588146e+00  1.32076430e+00   1.86776724e+00  -4.44700900e-01
C     1.765205800112989e+00   5.343200897020343e+00   7.034661432925533e+00 -4.42572960e-01  -1.29323167e+00   1.21065733e+00
C     3.547564934850300e-02   5.398112253327996e+00   1.770339218592248e+00 -1.94559091e+00  -1.63161584e+00  -7.31445010e-01
C     1.830744816911353e+00   3.530115605508081e+00   1.706132178024420e+00 -1.16020464e+00   1.20336717e+00   1.19410810e+00
C     8.290849012086992e-01   4.466408954745132e+00   8.577821009152226e-01  3.20048859e+00  -6.20904520e-01  -5.63092700e-02
C     2.607156448674305e+00   6.236282998161127e+00   8.156557402792214e-01  2.04680971e+00   3.23276560e-01   2.11984129e+00
C     8.489714954146375e-01   6.204650233165222e+00   2.695150972529249e+00  1.48272560e+00   3.23367436e+00  -1.35941022e+00
C     2.633702071022206e+00   4.481438150522146e+00   2.625427156250264e+00  6.03532280e-01   1.66010710e-01   2.59700810e-01
C     3.630188121320893e+00   3.473622838420155e+00   7.094965878390756e+00 -1.48334578e+00   3.60521186e+00  -1.70829697e+00
C     5.381263656781394e+00   5.267308533760175e+00   7.082946175498372e+00 -2.39805963e+00   3.31286208e+00   6.22332270e-01
C     3.480543740851439e+00   5.414576568547762e+00   1.748257614565480e+00  1.18310685e+00  -2.49249674e+00  -2.15460450e-01
C     5.344963146072066e+00   3.585602957300634e+00   1.751998350885029e+00 -1.99441170e-01  -1.71394860e-01   1.13318798e+00
C     4.327194123027968e+00   4.478833411221499e+00   8.667571242310084e-01  4.58071583e+00  -1.54353474e+00   3.14639080e-01
C     6.206285525788953e+00   6.263306875182903e+00   8.838392324606780e-01  1.57111630e-01  -1.68726656e+00   1.52593099e+00
C     4.450444859225136e+00   6.180397574701854e+00   2.670502659262851e+00 -1.54212079e+00   1.20573147e+00   4.95209700e-02
C     6.267601357624550e+00   4.492981802351668e+00   2.624859690872510e+00 -1.43366314e+00  -1.60089342e+00   3.36500020e-01
C     1.962422232703400e-02   2.548227340817600e-02   3.545280216736006e+00 -2.88725700e+00   2.14055960e-01   1.27788387e+00
C     1.692262152724049e+00   1.768459396230389e+00   3.638165335353510e+00  4.68936357e+00   8.18914840e-01  -2.85652157e+00
C     7.086830501954845e+00   1.848689105720603e+00   5.338531374201264e+00  8.02405360e-01  -2.50116431e+00   3.58047380e-01
C     1.769912926487727e+00   7.075934285257552e+00   5.291553941632470e+00 -2.00025775e+00   1.68486524e+00   4.64819929e+00
C     8.700141323912661e-01   9.182942544894014e-01   4.523870244415033e+00 -3.27092290e-01  -1.47049084e+00  -2.23030238e+00
C     2.685440653977651e+00   2.675209927806041e+00   4.403912484996581e+00  7.98602200e-02  -2.29810594e+00   2.64510445e+00
C     8.896278342528225e-01   2.681352671213115e+00   6.216521512193301e+00  1.13121690e-01  -8.46693370e-01   7.67812460e-01
C     2.616578378520210e+00   8.434557859668746e-01   6.307676369660871e+00  2.44327755e+00   7.84952190e-01  -4.49843062e+00
C     3.551891760614868e+00   7.058456024635269e+00   3.611628953955014e+00 -2.34322490e-01   1.44969072e+00  -2.42425352e+00
C     5.316661956589703e+00   1.748282849465781e+00   3.631352409861823e+00 -1.20606627e+00   1.41391518e+00  -1.47833784e+00
C     3.600674234939559e+00   1.725092544762972e+00   5.369085649317262e+00 -1.12007076e+00   5.67497890e-01  -1.67394720e-01
C     5.242828547941418e+00   1.652295970638040e-02   5.361179946016203e+00  5.84710797e+00  -3.15247483e+00   1.11957036e+00
C     4.447711030969710e+00   7.728343180794365e-01   4.503033609525932e+00 -2.03180070e+00   4.52954610e+00  -1.46636391e+00
C     6.278402037121830e+00   2.720373290922212e+00   4.377623689957939e+00 -2.04212477e+00  -2.62884125e+00   2.14123439e+00
C     4.573725948386891e+00   2.642372498428725e+00   6.282342377948549e+00 -2.75339944e+00  -9.15145240e-01  -1.79927699e+00
C     6.218019683344693e+00   8.914165977209194e-01   6.245595316130232e+00 -9.20494320e-01   1.57316544e+00  -2.69890150e-01
C     6.928977599380720e-02   3.552009191756550e+00   3.510111864497365e+00 -1.53980659e+00   1.69639797e+00   2.44352300e-02
C     1.690630840816985e+00   5.378364984205410e+00   3.543194960960429e+00  2.93878342e+00  -2.97001275e+00   8.89456530e-01
C     2.001468798155060e-02   5.241357317711756e+00   5.307622033375397e+00 -6.25382320e-01   3.59900767e+00  -1.16472789e+00
C     1.838593794999905e+00   3.449757304652672e+00   5.384459461422893e+00 -1.13286807e+00   3.38367942e+00  -3.96466869e+00
C     9.086129383020924e-01   4.397464079416847e+00   4.391627495772018e+00  8.77306000e-02   7.74259830e-01   2.39027511e+00
C     2.603421256924400e+00   6.210412462709447e+00   4.491044615019266e+00  1.54237823e+00  -1.03764070e-01  -3.33912223e+00
C     8.094908896778001e-01   6.206215792163051e+00   6.254565434634410e+00  1.63965455e+00   1.54999150e-01  -2.42454650e+00
C     2.689895715686283e+00   4.397040275260243e+00   6.112413402690662e+00  2.70465950e-01   1.00478644e+00   3.62342622e+00
C     3.552021347159231e+00   3.594400412219373e+00   3.551900219637786e+00 -1.27370190e+00  -2.03027750e+00  -1.47667045e+00
C     5.304303892780607e+00   5.289159469472923e+00   3.533139670659081e+00  1.06769120e+00  -9.34835910e-01   1.38394410e-01
C     3.549210250349925e+00   5.361280103690919e+00   5.285830381907298e+00  5.35915410e-01  -2.77906501e+00   1.85834846e+00
C     5.340491521738729e+00   3.454587833244093e+00   5.319960477938062e+00  1.11996439e+00   4.26196761e+00  -7.04265500e-01
C     4.425432736889046e+00   4.335239080328154e+00   4.444184116002571e+00  8.63044950e-01   3.73039319e+00  -2.07903570e-01
C     6.171222946878898e+00   6.149340520853944e+00   4.398818589347088e+00  1.49071148e+00   2.38191186e+00   1.51398726e+00
C     4.502854761612813e+00   6.223020245405183e+00   6.265206032454288e+00 -2.77817009e+00  -3.15404690e-01  -1.22192707e+00
C     6.238209949364957e+00   4.498249427849993e+00   6.130093826852258e+00 -1.45749173e+00  -5.35930231e+00   3.08363539e+00
