64
Lattice="7.10842262195238 0 0 0 7.10842262195238 0 0 0 7.10842262195238 " PBC="1 1 1" Properties=species:S:1:pos:R:3:force:R:3 Energy="-512.17385583"
C     2.274844515275020e-02   5.334259851964680e-02   7.065293758521900e+00  1.01086750e-01  -1.07793863e+00   6.84439400e-01
C     1.833428175366177e+00   1.827147883981407e+00   7.059899247679808e+00 -1.20047581e+00  -1.51473094e+00   1.26157058e+00
C     7.065828240818698e+00   1.812195459168690e+00   1.725517201930290e+00  1.90727687e+00  -1.35791924e+00   8.88747460e-01
C     1.770001852854703e+00   3.078380608239820e-02   1.773974608088569e+00  9.93508900e-02  -1.04229424e+00  -6.62307400e-01
C     9.309548527652048e-01   9.275052774361712e-01   8.039555609836062e-01 -1.30416641e+00   7.81247100e-02   2.26177971e+00
C     2.673905461171045e+00   2.682670786019541e+00   9.311352645313004e-01 -4.39250690e-01  -3.73363040e-01  -1.22123847e+00
C     8.646422974173321e-01   2.660540560382052e+00   2.668012081229482e+00 -1.21158481e+00  -2.42788140e-01   3.36348880e-01
C     2.645782124422634e+00   8.885221191142816e-01   2.667602351749665e+00  5.33672310e-01   1.91216000e-01   2.91497060e-01
C     3.520613563739249e+00   7.077015973927637e+00   7.105503190829966e+00  1.65093720e+00   2.79668060e-01   2.14955250e-01
C     5.281523175389162e+00   1.725933400074692e+00   7.043964794282138e+00  2.61169060e-01   2.11138978e+00   2.27197499e+00
C     3.532295687641409e+00   1.753490408792967e+00   1.779444397126206e+00  1.10673270e+00  -1.43375660e-01  -6.53646770e-01
C     5.414287540084032e+00   1.118432106608180e-02   1.764950252319800e+00 -3.28353333e+00  -7.12880090e-01   6.01930520e-01
C     4.449043575874056e+00   8.343263677117824e-01   8.595068885797394e-01 -6.23264670e-01   1.10080285e+00   4.89886030e-01
C     6.203156113814725e+00   2.609549285896649e+00   8.309669271815704e-01 -4.68292780e-01   1.81158358e+00   2.04915200e-02
C     4.446414810104953e+00   2.612663556930698e+00   2.620186756010574e+00  1.82351610e-01   1.99027980e+00   1.28013440e+00
C     6.196913070564483e+00   9.216906588172374e-01   2.658935833975587e+00  2.93848686e+00  -1.33674753e+00  -6.53722710e-01
C     8.060951251080000e-04   3.511991829027677e+00   7.069079491156633e+00  3.43233790e-01   6.81705020e-01   1.60691294e+00
C     1.796037303711167e+00   5.324144282239515e+00   7.341891652531279e-02 -9.99899440e-01   1.35200895e+00  -1.53510582e+00
C     7.060536802104596e+00   5.284263045803814e+00   1.807776366078514e+00  1.87122932e+00   1.18418496e+00  -1.45770622e+00
C     1.773964656296900e+00   3.526398895656988e+00   1.838045948868581e+00 -5.02474350e-01   9.39300940e-01  -1.51922401e+00
C     8.455613718311448e-01   4.421590421210258e+00   8.975154821604270e-01  1.37208026e+00  -2.33101550e-01   6.45184800e-01
C     2.694334854528247e+00   6.258636001763527e+00   9.293704564474330e-01 -8.54550840e-01  -2.20202208e+00   2.53791040e-01
C     8.700493190832351e-01   6.178700936390912e+00   2.641167123205052e+00  4.08614650e-01   1.36448974e+00  -4.87694200e-02
C     2.673145073203384e+00   4.421163276095022e+00   2.696414494649954e+00  5.73126520e-01   5.37897180e-01  -7.45868460e-01
C     3.503513115779219e+00   3.597287355898033e+00   2.560603104599020e-02  1.93282275e+00  -3.46035800e-01   4.05460680e-01
C     5.396768334947460e+00   5.374736987468615e+00   7.076896623511848e+00 -2.11577223e+00  -8.19749270e-01   1.07035890e+00
C     3.613915235922285e+00   5.313289791983001e+00   1.835881576349244e+00 -1.54833370e+00   1.44994031e+00  -1.25648123e+00
C     5.343279018584936e+00   3.540932563293161e+00   1.724632487651005e+00 -5.93670220e-01  -4.88440510e-01   6.66230560e-01
C     4.447527278244983e+00   4.482708781065471e+00   8.783599181367295e-01  8.00567740e-01  -7.31187520e-01   2.07671750e-01
C     6.246004619104692e+00   6.240674439487311e+00   8.975987217893072e-01  6.84125420e-01  -3.44734260e-01  -8.26765600e-01
C     4.487298405214299e+00   6.202013434878560e+00   2.709678740174648e+00 -3.72396470e-01   6.33286280e-01  -7.59064500e-01
C     6.231655557203960e+00   4.410211684785519e+00   2.681160459465469e+00 -1.79697428e+00  -4.33688230e-01   2.84215300e-01
C     5.634732876112079e-02   7.106121623597906e+00   3.540173241588893e+00 -2.71539003e+00  -5.96005130e-01   3.87779510e-01
C     1.741282972459189e+00   1.781785271779198e+00   3.516631069966393e+00  1.01488647e+00   4.10959850e-01   1.60683054e+00
C     7.097596634518193e+00   1.807246788593324e+00   5.367192747457783e+00  1.14822125e+00  -9.35365430e-01  -1.79954860e+00
C     1.808882223385507e+00   7.079007256356178e+00   5.271055098986271e+00 -1.56229966e+00   1.03526010e+00   1.93482741e+00
C     9.135372269878712e-01   8.683444350020544e-01   4.412248105697697e+00 -6.92224680e-01   9.81328690e-01   6.43652280e-01
C     2.633216423588808e+00   2.731451483238577e+00   4.456377548743788e+00  9.96210640e-01  -2.10177605e+00  -3.26145400e-01
C     9.398093883175815e-01   2.692740506418807e+00   6.198379253814084e+00 -1.41179175e+00  -2.60735350e-01   2.13437370e-01
C     2.656876666111026e+00   8.361426407754186e-01   6.211980154234062e+00  7.92132660e-01   1.90745212e+00  -4.99184530e-01
C     3.570153156157196e+00   1.899953414718840e-02   3.581793624702803e+00 -9.49437300e-02  -8.82828030e-01  -1.04766510e+00
C     5.343572738607595e+00   1.756297098380248e+00   3.527913771601536e+00 -5.94837500e-01   1.36515643e+00   8.61043900e-01
C     3.520694670841343e+00   1.779791074897384e+00   5.374861740285596e+00  8.07474380e-01   6.86197860e-01  -2.20398990e+00
C     5.343864468271919e+00   3.920650496061000e-02   5.328658059518989e+00 -2.43147130e-01  -1.15708071e+00  -4.25138560e-01
C     4.500708728823835e+00   9.116864780745280e-01   4.415559493290998e+00 -2.71833768e+00  -3.46502540e-01   1.41795211e+00
C     6.173540861326829e+00   2.665181578426424e+00   4.502556421115451e+00  3.84729970e-01  -7.33051020e-01  -9.79618080e-01
C     4.378515583744071e+00   2.712396219058048e+00   6.245619342598688e+00  4.76089080e-01  -2.07597911e+00   1.48821770e-01
C     6.210595007002328e+00   9.302170695814751e-01   6.202581540014351e+00  3.54859880e-01  -1.38587052e+00  -4.33476600e-02
C     7.029192639067063e+00   3.518097039963316e+00   3.641401729088170e+00  2.36826735e+00   7.44609220e-01  -2.98433605e+00
C     1.743177580340097e+00   5.300684070729824e+00   3.507689456236922e+00  1.00332123e+00   4.86637930e-01   1.37080769e+00
C     1.603837853637500e-02   5.284584488674692e+00   5.351805358264947e+00 -5.15221090e-01   1.96593048e+00  -8.05086720e-01
C     1.761572827480359e+00   3.619064861605117e+00   5.349336603089021e+00  6.53969930e-01  -9.49570120e-01  -1.28857078e+00
C     8.553122794759036e-01   4.425472188634588e+00   4.407838395725380e+00  4.06709710e-01   6.74993910e-01   1.81296037e+00
C     2.651588497271329e+00   6.202406317396767e+00   4.441779265545999e+00  8.82902670e-01  -4.52248300e-02  -1.25638044e+00
C     8.957178331640552e-01   6.260368893029830e+00   6.190510798647554e+00  2.01120600e-01  -1.96797337e+00   8.46746430e-01
C     2.670987666938214e+00   4.474276770153626e+00   6.249128486509277e+00 -1.02645964e+00   4.08281710e-01  -2.72051640e-01
C     3.599171016808107e+00   3.578771763162814e+00   3.570324184805433e+00 -1.60281796e+00  -1.82693626e+00  -1.50083550e-01
C     5.344209084600537e+00   5.296742521471261e+00   3.575096139994465e+00 -4.60493200e-02   7.35755610e-01   5.43946740e-01
C     3.550875824854018e+00   5.354966260551382e+00   5.321374840786763e+00  3.54133770e-01  -9.91824240e-01   6.63243970e-01
C     5.291207406029745e+00   3.536958883964355e+00   5.383430659417101e+00  4.33813450e-01   9.61833650e-01  -6.63154280e-01
C     4.454547343171817e+00   4.426581600152891e+00   4.471843557090801e+00 -2.37315990e-01   6.50939840e-01  -4.67375860e-01
C     6.188113340950507e+00   6.187475288936136e+00   4.492677348610854e+00  2.12873871e+00   7.13920660e-01  -1.41402539e+00
C     4.440899953667905e+00   6.236442226827815e+00   6.203337947265345e+00  4.49368760e-01   1.31601070e-01   7.92606300e-02
C     6.251782131757549e+00   4.424286503741572e+00   6.233761427405135e+00 -8.48803450e-01   8.59458100e-02  -3.17463300e-01
