64
Lattice="7.10842262195238 0 0 0 7.10842262195238 0 0 0 7.10842262195238 " PBC="1 1 1" Properties=species:S:1:pos:R:3:force:R:3 Energy="-510.08695275"
C     7.041047639807342e+00   7.091627763128404e+00   7.069242131866178e+00  8.93032400e-02   1.95490330e+00   1.58628174e+00
C     1.782473935762624e+00   1.782687117356998e+00   7.060625799555798e+00  8.62032800e-02  -5.50586920e-01   2.07712765e+00
C     2.659246685296760e-02   1.730240606592828e+00   1.839189125394330e+00  1.92379460e-01   8.81458830e-01  -3.17202162e+00
C     1.759731603853327e+00   3.663091019270540e-02   1.781078410233865e+00  1.12711983e+00  -3.29542570e-01  -1.19227920e+00
C     8.545206855329404e-01   8.493582646893916e-01   8.274656025358632e-01  1.05530261e+00   1.87856492e+00   2.23513057e+00
C     2.667403031579400e+00   2.689417461012409e+00   8.606182904563764e-01 -3.42954610e-01  -8.08879740e-01   1.41936556e+00
C     9.477171530612006e-01   2.688072263115801e+00   2.662944273491005e+00 -1.38360860e+00  -1.47570404e+00  -2.32735000e-03
C     2.666394133156944e+00   9.175521351678734e-01   2.754709886630085e+00 -1.23988853e+00  -7.70663610e-01  -2.07899970e+00
C     3.636680101531287e+00   7.103820200690454e+00   7.059572118070836e+00 -2.08296341e+00   6.45057960e-01   2.87255661e+00
C     5.319735283109460e+00   1.779328529837500e+00   7.094913702568726e+00  1.08613050e+00  -6.77564140e-01   1.65604151e+00
C     3.531565936975240e+00   1.770873203299463e+00   1.829712460694251e+00  9.10564630e-01   1.46915360e-01  -1.30507355e+00
C     5.371144248508014e+00   7.068289745403551e+00   1.876085393003440e+00 -2.20897907e+00   1.17560286e+00  -3.48148685e+00
C     4.478884236443232e+00   8.965751089320272e-01   9.279875839109383e-01 -8.67591790e-01  -9.55223780e-01  -2.12662740e-01
C     6.254938982243091e+00   2.611039424530480e+00   8.976045506958555e-01 -7.65135750e-01   1.01093665e+00   6.91876860e-01
C     4.432362453764380e+00   2.642066694087613e+00   2.720392128242155e+00  9.31690400e-02   1.17239765e+00  -2.57508007e+00
C     6.244634257392009e+00   8.534384281890454e-01   2.674127812630599e+00  1.97673880e-01   2.67658290e-01   1.00867546e+00
C     4.042304040779680e-02   3.463166064409230e+00   7.107038467947434e+00 -5.02034590e-01   2.68133107e+00  -2.57596740e-01
C     1.763353060841312e+00   5.379514202890386e+00   7.019823169380094e+00 -1.10394650e-01  -8.21189830e-01   2.10314755e+00
C     5.687221468738159e-02   5.397984514973516e+00   1.688668134247377e+00 -8.89519520e-01  -2.95065798e+00   2.32367420e+00
C     1.777539553116725e+00   3.615648909115077e+00   1.753372764398606e+00  1.71333990e-01  -2.63741255e+00   6.51222000e-03
C     9.551826317494031e-01   4.429973099669120e+00   8.587661198585091e-01 -2.68169281e+00   1.55905875e+00  -1.38738579e+00
C     2.636971732174728e+00   6.256208333270345e+00   8.219207485553585e-01  1.69765039e+00  -8.82852880e-01   1.23766438e+00
C     9.115350686727219e-01   6.248559954868130e+00   2.625976352981886e+00  4.00995170e-01  -3.40027820e-01   1.38197197e+00
C     2.620013026161741e+00   4.415826556728831e+00   2.641486860054500e+00  2.53523915e+00   2.25140825e+00  -2.06742930e-01
C     3.570595797633743e+00   3.548550730899241e+00   3.449575329033600e-03 -4.51611730e-01  -3.30395190e-01  -4.01529310e-01
C     5.342845191552437e+00   5.259930844091328e+00   5.467336631833700e-02 -2.62708560e-01   1.34181620e+00  -1.12319600e+00
C     3.558833632892881e+00   5.280687722478633e+00   1.722164940906925e+00 -1.39322318e+00   1.82392360e+00   1.30309867e+00
C     5.313154305447864e+00   3.561890965461743e+00   1.820332825962934e+00  7.90997680e-01  -1.61967582e+00  -1.34069584e+00
C     4.433812216557729e+00   4.366748016602018e+00   8.960158182402856e-01  7.86152290e-01   1.97279629e+00   4.70918450e-01
C     6.202580544835183e+00   6.225578566706122e+00   8.844324303283170e-01  3.68368560e-01  -9.67835110e-01   5.25276480e-01
C     4.372673953119181e+00   6.216787367199290e+00   2.699624658305146e+00  1.70499505e+00   1.09385300e-02  -9.75047210e-01
C     6.214209710988825e+00   4.450259471563207e+00   2.644444816875134e+00  7.87362210e-01   4.05792300e-01   1.82218900e-02
C     7.100613875583478e+00   7.061457413918112e+00   3.580123145387103e+00  2.32616540e-01   1.04713663e+00  -3.23921770e-01
C     1.761982983465533e+00   1.761459945729154e+00   3.632212742251522e+00  1.46931150e-01   1.19562824e+00  -1.84763247e+00
C     7.066498849408669e+00   1.789513122346305e+00   5.296143992286656e+00  8.09301790e-01  -1.78986790e+00   1.65566695e+00
C     1.753875400962066e+00   5.814248980957560e-02   5.408843910041637e+00 -1.71066890e-01  -3.80580380e-01  -1.74422820e+00
C     8.115642743876017e-01   8.900167360543627e-01   4.493928502076201e+00  2.71367268e+00  -5.58766270e-01  -1.37424732e+00
C     2.687528966374954e+00   2.698905854609812e+00   4.409739259018195e+00 -2.38990185e+00  -1.92577213e+00   2.69039130e+00
C     9.127327667999658e-01   2.618134056810597e+00   6.170162867813579e+00 -1.73125205e+00   5.98143730e-01   1.52960299e+00
C     2.711753759821652e+00   9.452296316495578e-01   6.250940921024699e+00 -1.10675520e-01  -1.65224631e+00  -1.79708367e+00
C     3.524506633555544e+00   3.854101443492559e-02   3.620596158005918e+00  1.06935748e+00  -9.50225290e-01  -2.16334070e-01
C     5.387945005370384e+00   1.805926043670528e+00   3.490385849558413e+00 -1.63784323e+00  -2.21759382e+00   3.14333471e+00
C     3.569848986753286e+00   1.798016288568575e+00   5.314848669063568e+00  9.13764070e-01   1.00441959e+00   8.54572370e-01
C     5.335543633089852e+00   7.089570016948367e+00   5.327740006737615e+00 -5.82077580e-01  -3.55942840e-01   2.49727940e-01
C     4.477291096765637e+00   9.129772254538676e-01   4.484406414555579e+00 -7.59566710e-01  -7.00789500e-01  -1.64476413e+00
C     6.264196778610700e+00   2.601653107881901e+00   4.397483201073696e+00 -1.18016301e+00   3.90981885e+00   3.94052900e-02
C     4.483533002668259e+00   2.678875457014271e+00   6.250796193540155e+00 -1.05201442e+00   1.66762060e-01  -1.99641904e+00
C     6.178113851766726e+00   8.709240104866262e-01   6.196633567387066e+00  4.11044060e-01   1.00244527e+00   3.94397880e-01
C     4.973663789297320e-02   3.523140181475301e+00   3.527474257830941e+00 -1.05869145e+00   2.14484876e+00   3.87594520e-01
C     1.903785423184829e+00   5.411192603959511e+00   3.542964861320219e+00 -5.26436677e+00  -2.47725481e+00   2.92100690e-01
C     7.035079266007138e+00   5.363186795890281e+00   5.290841677685946e+00  2.27667299e+00  -5.43233440e-01   1.40088082e+00
C     1.746506099231912e+00   3.525932654217342e+00   5.393006699865408e+00  1.79346716e+00   2.38681361e+00  -3.73293364e+00
C     8.640132730996883e-01   4.485736258259329e+00   4.441514618971857e+00  1.25730117e+00  -9.75282680e-01   4.41885900e-02
C     2.641914502759319e+00   6.244466640786628e+00   4.521319742378977e+00  1.58480035e+00   8.50679590e-01  -4.03573130e-01
C     8.147501272374333e-01   6.327273793234628e+00   6.218571581276909e+00  1.54709678e+00  -4.28660579e+00  -1.23896699e+00
C     2.673360600577222e+00   4.444777242785984e+00   6.201537454899925e+00 -9.38508160e-01  -3.20894150e-01   1.28504085e+00
C     3.459346069177468e+00   3.517340135122738e+00   3.486333906496561e+00  3.16863064e+00   1.63552145e+00   2.49097087e+00
C     5.311160819408311e+00   5.362086838574063e+00   3.523039028621419e+00 -1.18525982e+00  -2.03917760e+00   1.27450602e+00
C     3.561564902116164e+00   5.307654092361412e+00   5.394603109417408e+00 -3.18027470e-01   5.89605850e-01  -2.23430935e+00
C     5.365741776232588e+00   3.569434565714539e+00   5.296874169458183e+00 -1.60618599e+00  -8.34787880e-01   2.64988700e-01
C     4.367915361764674e+00   4.442605335338669e+00   4.442808280804470e+00  2.12436901e+00  -4.81904240e-01  -1.10078262e+00
C     6.174510876677553e+00   6.184500840575024e+00   4.441201777292350e+00  2.56951630e-01   1.60493273e+00  -1.24623667e+00
C     4.487020536974084e+00   6.147880095426664e+00   6.263163000709074e+00 -8.36543540e-01   1.59889754e+00  -1.01923213e+00
C     6.199165729692762e+00   4.473063078075488e+00   6.197669335647025e+00  1.59955751e+00  -2.28973240e+00   7.40234490e-01
