64
Lattice="7.10842262195238 0 0 0 7.10842262195238 0 0 0 7.10842262195238 " PBC="1 1 1" Properties=species:S:1:pos:R:3:force:R:3 Energy="-512.41964915"
C     8.481414449052999e-03   7.068454376471431e+00   7.096987158362754e+00  8.37498630e-01   1.28044903e+00   1.70399100e-01
C     1.813813478325454e+00   1.819080677318421e+00   2.046095475363420e-02 -1.58564655e+00  -1.14799308e+00  -1.08719836e+00
C     7.095426077671175e+00   1.719085714396393e+00   1.751669515254628e+00  1.05652711e+00   2.33959901e+00   2.31452420e-01
C     1.780287740385843e+00   3.114733081518500e-02   1.787043940665022e+00 -3.26352110e-01  -1.67173741e+00  -7.99080980e-01
C     9.131021204393009e-01   9.077855179091243e-01   8.448742717006955e-01 -7.66536790e-01  -8.96844910e-01   1.48426293e+00
C     2.629268192412982e+00   2.668980745979909e+00   9.581654680492077e-01  1.16192268e+00   5.63551390e-01  -1.38751855e+00
C     8.639116937404486e-01   2.692894261600077e+00   2.699620961925384e+00 -2.41409110e-01  -1.91339219e+00  -1.05506887e+00
C     2.665032870225214e+00   8.961026120804757e-01   2.661396556633953e+00 -1.94139560e-01  -3.43513770e-01   6.88300520e-01
C     3.550147424788146e+00   7.070902730474437e+00   7.093979087162648e+00 -6.87045250e-01   1.17364170e+00   7.35571310e-01
C     5.283933072825794e+00   1.779316587687499e+00   7.086341371394362e+00  1.34403198e+00   1.16400770e-01   3.60478800e-01
C     3.530206380064939e+00   1.768051657108906e+00   1.814211621076400e+00  1.08152524e+00   3.16073400e-01  -1.33686698e+00
C     5.323761706934107e+00   7.078892810751996e+00   1.781358553169320e+00  8.95161300e-01   2.05609449e+00  -9.37659820e-01
C     4.415602428163623e+00   9.029483784846668e-01   8.993641696312105e-01  2.35672880e-01  -1.24030655e+00  -8.41150620e-01
C     6.214673606649006e+00   2.661809982493532e+00   8.953530289151969e-01  4.39403120e-01  -5.03275440e-01  -8.93424860e-01
C     4.480701504686035e+00   2.637646819070949e+00   2.639047533748220e+00 -7.38066120e-01   1.04655733e+00   7.37042230e-01
C     6.247432061451014e+00   8.964552609266540e-01   2.649317356244239e+00 -4.99584550e-01  -2.06028220e+00   9.23045100e-01
C     2.302638447719220e-02   3.541977359249849e+00   1.115467894375640e-02 -9.78803230e-01   8.92067170e-01  -5.53209780e-01
C     1.800857667258242e+00   5.350571407182342e+00   1.937585404069120e-02 -6.70125210e-01  -1.34598775e+00  -9.39107800e-02
C     7.077739398097675e+00   5.319093676883779e+00   1.736808078251446e+00  3.18469930e-01   8.57181110e-01   1.62535641e+00
C     1.742821377282609e+00   3.555431612911175e+00   1.831430921862636e+00  4.12639780e-01   2.47273890e-01  -1.13824820e+00
C     9.036206220118401e-01   4.485338470929514e+00   9.062197456586170e-01 -7.29903290e-01  -2.14208423e+00  -4.70037660e-01
C     2.663313484961888e+00   6.165200833403687e+00   9.062345311776666e-01  1.24975741e+00   1.95018162e+00   1.64102670e-01
C     8.775949096943653e-01   6.194202273598346e+00   2.662566958418336e+00  2.52861740e-01   1.21373152e+00  -4.40804200e-01
C     2.669251221460600e+00   4.377605350227579e+00   2.679297697317899e+00  9.56872610e-01   2.09718934e+00  -2.91819910e-01
C     3.518656757160415e+00   3.567082388669581e+00   2.334235386265120e-02  7.80882540e-01  -3.56531550e-01  -2.76063190e-01
C     5.273849704255098e+00   5.326793307013085e+00   2.872300328063400e-02  2.62536973e+00   1.13662429e+00  -2.67849626e+00
C     3.597733196164759e+00   5.280004674149078e+00   1.779117551854139e+00 -1.26238487e+00   8.37655370e-01   3.29703020e-01
C     5.367754241760536e+00   3.548108089422694e+00   1.776346973053767e+00 -1.60500301e+00   1.44985970e-01  -4.03993940e-01
C     4.497346871429932e+00   4.450202106592664e+00   8.826861752274878e-01 -2.63029084e+00  -1.63440921e+00   6.82035540e-01
C     6.213184249941664e+00   6.230482667471660e+00   8.466328954568836e-01 -4.59395050e-01  -7.66946360e-01   1.49153357e+00
C     4.466528234076695e+00   6.228571639134500e+00   2.636575793034794e+00 -1.21626213e+00  -4.73168520e-01   1.99988351e+00
C     6.153352230243766e+00   4.465790450892966e+00   2.668092832910445e+00  2.44058125e+00  -8.81341180e-01   3.05284500e-01
C     7.105143362476942e+00   7.054407422532049e+00   3.619548234343278e+00  1.23899514e+00   2.12867204e+00  -3.38531241e+00
C     1.778225729152233e+00   1.765204662765370e+00   3.538712887245840e+00 -1.03866052e+00   3.49214660e-01   4.31886160e-01
C     5.282538968981559e-02   1.726560505118228e+00   5.335626588381827e+00 -1.86238142e+00   6.98087190e-01   2.13352200e-01
C     1.816142766249575e+00   1.743980405590800e-03   5.304609768205946e+00 -1.01026053e+00  -2.52618430e-01   1.61987659e+00
C     8.948927585505518e-01   8.421600626917010e-01   4.442205699818973e+00  8.50230400e-01   1.05330399e+00  -1.28460030e-01
C     2.637759629737928e+00   2.666887813107903e+00   4.406274471664754e+00  8.02689210e-01  -1.41971910e-01   1.01721005e+00
C     8.788432908748895e-01   2.677756733462335e+00   6.193504155412836e+00  1.16848007e+00  -3.29245940e-01   1.17565317e+00
C     2.653832484124011e+00   8.928804351910560e-01   6.236164216419147e+00  1.38133113e+00   2.87348180e-01  -1.07715025e+00
C     3.559357736892654e+00   1.984820872379020e-02   3.549985637089315e+00  3.71870280e-01  -1.55081010e-01  -3.01229320e-01
C     5.404000657373726e+00   1.806956907118880e+00   3.512838513245945e+00 -2.34596611e+00  -1.37106796e+00   1.52642537e+00
C     3.553892497245493e+00   1.797920111610527e+00   5.270634849040976e+00 -1.09682142e+00   3.46816370e-01   1.97961558e+00
C     5.301983916890117e+00   4.764704597959800e-02   5.325133063825957e+00  1.23735032e+00  -1.68706070e+00   1.43114580e-01
C     4.439901788963605e+00   9.406998604191891e-01   4.452495781319459e+00  8.21784510e-01  -1.26796307e+00  -1.95038724e+00
C     6.201745589514238e+00   2.621127129238974e+00   4.491526210651771e+00  1.63139737e+00   1.67249511e+00  -1.09793663e+00
C     4.386778343113332e+00   2.708071952325623e+00   6.164224775893735e+00  8.07984590e-01  -1.25453185e+00   2.33426318e+00
C     6.261799320913654e+00   8.195426968520636e-01   6.212490396809725e+00 -1.80494930e+00   2.54441546e+00   3.42647140e-01
C     7.081855174794655e+00   3.535044656837015e+00   3.564333917063559e+00 -2.22584070e-01   1.93621989e+00   8.65219940e-01
C     1.818280979773671e+00   5.352194473319166e+00   3.515072335054280e+00 -1.40176455e+00  -9.12412040e-01   1.03821590e+00
C     7.105549253408544e+00   5.374896216135303e+00   5.376949910514447e+00  5.30929900e-01  -6.69241530e-01  -9.84088110e-01
C     1.775266421731301e+00   3.568391973368864e+00   5.338568266914661e+00 -8.82924680e-01   4.31500090e-01  -1.38478533e+00
C     8.589542087210345e-01   4.530962744168364e+00   4.419797605941268e+00  9.55868980e-01  -2.77767492e+00   9.35409700e-01
C     2.676963931087526e+00   6.225805396471926e+00   4.424277404960618e+00  8.00975700e-01  -2.76387600e-02   1.20627900e-02
C     9.463334275139914e-01   6.214891977391892e+00   6.261552658648739e+00 -1.41717656e+00   3.90411120e-01  -1.56641969e+00
C     2.638984410955355e+00   4.435227219164466e+00   6.225875627687412e+00  1.05593878e+00   6.52766610e-01   3.04518580e-01
C     3.570350485969127e+00   3.521780766733453e+00   3.543806925063785e+00 -1.17551020e-01   2.30526950e-01  -1.57656050e-01
C     5.316303692089655e+00   5.368401179303183e+00   3.597660477001357e+00  8.63617440e-01  -8.56306430e-01  -1.75054812e+00
C     3.571126157045421e+00   5.334320557893855e+00   5.332166492587316e+00 -1.61312957e+00  -1.20622622e+00  -1.28559866e+00
C     5.315420399494894e+00   3.573224207981714e+00   5.362233414248487e+00  4.70141190e-01  -4.95752690e-01  -1.56481502e+00
C     4.449388334371125e+00   4.425635824523300e+00   4.407906423329853e+00 -3.29702720e-01   8.85879880e-01   1.68933721e+00
C     6.259914167234829e+00   6.256654813295106e+00   4.465140812149724e+00 -3.17860033e+00  -1.22389806e+00   9.87677340e-01
C     4.401217042223302e+00   6.204088312357111e+00   6.178049591626242e+00  1.49825458e+00   9.92138090e-01   1.69394178e+00
C     6.202500859417613e+00   4.472575795704887e+00   6.217936799136943e+00  3.36547650e-01  -8.62084360e-01   1.08717256e+00
