64
Lattice="7.10842262195238 0 0 0 7.10842262195238 0 0 0 7.10842262195238 " PBC="1 1 1" Properties=species:S:1:pos:R:3:force:R:3 Energy="-510.75941239"
C     7.094944482038670e+00   7.085740354261842e+00   4.226341102411480e-02 -1.45966740e+00   1.68451800e-01  -1.33304787e+00
C     1.748420184190799e+00   1.784309330483108e+00   1.382538440631660e-02  1.49023930e-01  -7.36375750e-01  -2.33207240e-01
C     2.529034599743600e-03   1.787099030940327e+00   1.812030970269263e+00  2.58553710e-01  -1.30888028e+00   2.73204120e-01
C     1.769793789324615e+00   7.096474712176078e+00   1.726008038512202e+00  1.35899047e+00   1.70178991e+00   8.84804950e-01
C     8.328335989615824e-01   8.859296773847676e-01   8.957027633081008e-01  1.87182840e+00  -1.84092190e-01  -1.95259500e-02
C     2.643684571075925e+00   2.605850773607463e+00   9.045823915923262e-01  6.79281910e-01   2.82397935e+00  -1.17082994e+00
C     9.102153189290929e-01   2.653131451485226e+00   2.697705455281972e+00 -5.61873770e-01   1.45653229e+00  -6.03141350e-01
C     2.654823966911048e+00   9.264039695196546e-01   2.661977243677781e+00  7.26851870e-01  -1.25184537e+00   1.94542740e-01
C     3.537391644733461e+00   1.148195072118120e-02   7.070513686504444e+00  2.34746375e+00   7.73902680e-01   5.45857620e-01
C     5.392955305969865e+00   1.840855339656458e+00   4.959923208372860e-02 -1.26094453e+00  -2.63567331e+00  -2.12960790e-01
C     3.591619099700845e+00   1.829284462568300e+00   1.772344646781803e+00 -1.68464787e+00  -1.44302753e+00   8.26944470e-01
C     5.250860994417792e+00   7.083957561868746e+00   1.796712461691615e+00  2.26296953e+00   4.91685280e-01  -6.03059520e-01
C     4.482410298399657e+00   9.330393976985197e-01   9.475907653070169e-01 -1.44412239e+00  -5.45377940e-01  -2.15488719e+00
C     6.251865940060239e+00   2.674695562345259e+00   9.833395913368066e-01 -2.18588340e-01   1.06738038e+00  -2.55119817e+00
C     4.421379301058444e+00   2.735820177612376e+00   2.639829246983742e+00  1.69978286e+00  -2.07559087e+00   1.61543790e+00
C     6.241481600875812e+00   8.336892397923518e-01   2.649817718112461e+00 -1.24899089e+00   7.35503390e-01   1.51354559e+00
C     7.192444175368400e-03   3.544598163585617e+00   1.184177907420560e-02 -1.40869150e-01   7.20553310e-01  -8.33893570e-01
C     1.779474821175020e+00   5.327136217320273e+00   7.598264022744199e-03  7.28145200e-02  -1.59734025e+00  -2.30273336e+00
C     4.242797100776780e-02   5.318965654192392e+00   1.746003747005357e+00 -1.93100885e+00   1.59668355e+00   1.19304359e+00
C     1.747911221131208e+00   3.589373975500544e+00   1.770531074918762e+00  1.59817063e+00  -2.68335066e+00   4.25838670e-01
C     8.902608392871336e-01   4.434621155051885e+00   8.480550064862408e-01  5.74954550e-01   4.54620930e-01   1.84098915e+00
C     2.720908057555914e+00   6.217043057160931e+00   7.649057256575409e-01 -2.94109463e+00  -8.52690280e-01   4.08377699e+00
C     9.508789083583504e-01   6.279338856138920e+00   2.678780843909199e+00 -9.12658140e-01  -2.99502620e+00  -1.92500644e+00
C     2.684669247954928e+00   4.389104076826143e+00   2.672534744037231e+00 -1.75185292e+00   2.18765042e+00  -5.09152410e-01
C     3.614683798575959e+00   3.489952164694367e+00   7.036872081276128e+00 -3.00761472e+00   1.40825089e+00   2.43615349e+00
C     5.283631746790933e+00   5.292800758960018e+00   2.190851393597100e-02  2.02535180e+00   1.46298635e+00  -2.51769521e+00
C     3.525120801269912e+00   5.270291512228431e+00   1.715500865784901e+00  4.14286950e-01   1.16448725e+00   9.81647720e-01
C     5.383503805085861e+00   3.593276926024282e+00   1.795980009824850e+00 -1.72841485e+00   2.15100460e-01   5.34452040e-01
C     4.441859875058509e+00   4.411472932210986e+00   8.579530584792336e-01  3.79522120e-01  -5.10046360e-01   3.55740080e-01
C     6.139326388319565e+00   6.208468806712461e+00   8.534237848384482e-01  1.86149914e+00  -3.88091330e-01   2.30027484e+00
C     4.332026002219687e+00   6.208346897264527e+00   2.635807372549572e+00  1.74749775e+00   8.90313500e-01   9.14484140e-01
C     6.237562727485406e+00   4.516136493857151e+00   2.704994289668067e+00 -1.18723110e-01  -1.17284719e+00  -1.90040889e+00
C     3.847056996676140e-02   7.031293177951273e+00   3.576918739554233e+00 -2.42485722e+00   2.56522674e+00  -1.25909968e+00
C     1.774121681352576e+00   1.746864079395055e+00   3.572891036213515e+00 -4.04842320e-01   6.00689180e-01  -2.76826170e-01
C     7.086243275162207e+00   1.750154568225853e+00   5.328262120379055e+00 -8.99169000e-02  -1.41625280e-01   6.60276000e-03
C     1.741841552308668e+00   1.122860653900440e-02   5.335537093341042e+00  1.48709060e+00  -3.55497760e-01   1.72969024e+00
C     8.334853702316102e-01   8.406474614423912e-01   4.444549204588335e+00  2.04181389e+00   9.21218170e-01   6.88455770e-01
C     2.652295429900888e+00   2.657341130445016e+00   4.471890188343188e+00  8.66289050e-01  -1.83846828e+00  -1.19276087e+00
C     8.225327837429404e-01   2.641069737815158e+00   6.220183416105994e+00  2.33480165e+00  -2.11038540e-01  -2.93073670e-01
C     2.700167102035278e+00   9.455647937760907e-01   6.255982356515255e+00 -1.55583253e+00  -1.27655203e+00  -1.91166007e+00
C     3.534042155994916e+00   3.818751257803300e-02   3.617737079343927e+00 -8.37958800e-02  -3.37374530e-01  -2.35099456e+00
C     5.351649044051534e+00   1.790143426180020e+00   3.555736493157347e+00  5.11210740e-01   5.32228100e-02  -1.43082406e+00
C     3.637650756640048e+00   1.803458070421090e+00   5.321632023517155e+00 -2.78797491e+00  -3.31987630e-01   1.40633396e+00
C     5.290548881758228e+00   9.364422706909400e-03   5.324741247571143e+00  1.47818841e+00  -1.94465740e-01   6.77171030e-01
C     4.456613050785189e+00   9.443265065556867e-01   4.439987516540402e+00  3.83662570e-01  -1.53031878e+00  -1.59457870e-01
C     6.294361085661766e+00   2.680885647846980e+00   4.387807500540256e+00 -2.38846285e+00  -4.98676370e-01   1.95019499e+00
C     4.495597844044281e+00   2.658655335619002e+00   6.216221750011416e+00  1.12384603e+00   2.53583440e-01  -4.65639940e-01
C     6.200397548248581e+00   8.664555849434680e-01   6.258448268322133e+00  4.63810850e-01   9.05891390e-01  -9.81565730e-01
C     3.921830494215920e-02   3.606826930138300e+00   3.567050685104696e+00 -6.98883810e-01  -2.01218170e-01  -1.80175970e-01
C     1.801159490882687e+00   5.389168080566382e+00   3.525658766693794e+00  9.80802740e-01  -1.56008112e+00   1.81659918e+00
C     7.097336963839884e+00   5.399246259988565e+00   5.309438093186355e+00 -8.50360100e-02  -2.53798127e+00   1.53908323e+00
C     1.766581208805733e+00   3.476198575356512e+00   5.284951496534561e+00 -1.56690616e+00   3.33834549e+00   2.53717838e+00
C     8.746400094954574e-01   4.520049893762140e+00   4.471618291177973e+00  1.64567023e+00  -1.90060926e+00  -2.08219389e+00
C     2.709569270466300e+00   6.246547702592860e+00   4.513541848516625e+00 -2.04342432e+00  -4.48697420e-01  -1.95530658e+00
C     8.635143329159906e-01   6.174489124904337e+00   6.264962213558422e+00  6.55646910e-01   2.85419387e+00  -1.29107854e+00
C     2.632000456815431e+00   4.368424609161170e+00   6.180692787493262e+00  1.37578229e+00   8.16250170e-01   8.84705340e-01
C     3.527119618626430e+00   3.498238310774048e+00   3.600842562387200e+00  1.04070249e+00   2.31833678e+00  -1.98140893e+00
C     5.254175083211688e+00   5.404865610238128e+00   3.515431097143912e+00  1.74235072e+00  -3.01001194e+00   1.26384576e+00
C     3.538868917122349e+00   5.281696336564185e+00   5.337449898783857e+00  6.43725700e-01   7.25437760e-01  -2.71023800e-02
C     5.374511152881978e+00   3.544648349049314e+00   5.311442881617872e+00  6.74415270e-01   7.91465770e-01  -3.82424710e-01
C     4.459791510875495e+00   4.413163741615379e+00   4.433772693727962e+00 -1.19251003e+00   7.14648010e-01   9.45364600e-02
C     6.176744698485889e+00   6.197012375228485e+00   4.440716485280082e+00  2.42704770e-01   2.13697310e+00  -5.56490530e-01
C     4.451330071094005e+00   6.202011018014869e+00   6.207921671423399e+00 -1.42950642e+00  -4.14306300e-02   1.15244260e-01
C     6.275874282038158e+00   4.472606148669474e+00   6.172126924983484e+00 -2.56815040e+00  -1.53841860e+00   2.00821454e+00
