64
Lattice="7.10842262195238 0 0 0 7.10842262195238 0 0 0 7.10842262195238 " PBC="1 1 1" Properties=species:S:1:pos:R:3:force:R:3 Energy="-501.18863009"
C     3.048646076420360e-02   7.402960111259699e-02   1.324521627734006e-01 -1.79750056e+00  -1.67215628e+00  -6.56931298e+00
C     1.823748280863392e+00   1.714202796730263e+00   8.245556986521400e-03 -2.10179840e-01   1.77638470e-01   3.14125900e-01
C     3.721508036361700e-02   1.918414485852563e+00   1.787262737913266e+00 -1.47353851e+00  -4.83369975e+00   4.42745600e-01
C     1.662807408418913e+00   6.978916756234137e+00   1.866189402453007e+00  3.59832500e+00   7.15966839e+00  -2.91930621e+00
C     8.994886381112867e-01   9.069102578319237e-01   9.343892871540577e-01 -1.14121320e-01   6.58478000e-03   1.44279622e+00
C     2.725792610159247e+00   2.628008722093170e+00   8.626614643700430e-01 -1.25392548e+00   1.86970572e+00  -1.28187413e+00
C     9.352104521351202e-01   2.631600039369246e+00   2.693729714510606e+00 -1.84409432e+00   3.96269414e+00  -5.19674190e-01
C     2.647122772928766e+00   1.010615106519330e+00   2.619343128414033e+00 -2.29821412e+00  -5.49880542e+00   4.64816025e+00
C     3.472353060887545e+00   6.996980182206498e+00   7.083337707416282e+00  3.05204328e+00   1.70549164e+00   5.37286300e-01
C     5.322991722595908e+00   1.713963100719516e+00   1.513674621125420e-02 -2.28627664e+00   2.08876410e-01   1.18269608e+00
C     3.556693357926225e+00   1.750059173194293e+00   1.750412461798507e+00  6.88709230e-01   7.00122110e-01   7.01953960e-01
C     5.386834314336010e+00   3.425847414328040e-02   1.786805808507252e+00 -1.02965163e+00  -4.22460320e-01   1.35729778e+00
C     4.390144252308128e+00   7.554687970399075e-01   9.735707704670453e-01  6.57876580e-01   2.70537086e+00  -4.07508957e+00
C     6.218793577315331e+00   2.588538850074489e+00   8.691996493274666e-01  3.84918570e-01   4.06809686e+00  -1.86034037e+00
C     4.477044221248045e+00   2.638651239187155e+00   2.618967590447018e+00  8.75951560e-01   1.17065218e+00   8.04692910e-01
C     6.139274141413309e+00   1.083953271363680e+00   2.646047695091718e+00  4.12037277e+00  -4.06338774e+00   2.05850926e+00
C     2.451659419524900e-02   3.478678561840177e+00   7.061448244052933e+00 -3.55067200e-01   1.97603345e+00   5.39673310e-01
C     1.689717835015673e+00   5.263924498087697e+00   9.051680545319880e-02  2.39588065e+00   2.41808788e+00  -4.29391773e+00
C     7.075787709583127e+00   5.314951527938879e+00   1.777967977748032e+00 -1.60942780e-01   1.04604536e+00   2.92474910e-01
C     1.805292825383538e+00   3.548704343912060e+00   1.683072455045140e+00  1.61426351e+00  -1.71805120e+00   4.02911192e+00
C     8.668901228182286e-01   4.349087140602627e+00   8.932969887565880e-01 -5.58093780e-01   1.84020106e+00   1.06290690e-01
C     2.621573964684867e+00   6.294112504122745e+00   8.956846368304197e-01 -1.63372379e+00  -5.36108282e+00   2.28770961e+00
C     7.755552800899203e-01   6.241642180142797e+00   2.753604029323092e+00  2.34567940e+00  -3.89876720e-01  -2.46087565e+00
C     2.739171230203897e+00   4.439822032461808e+00   2.598646813787450e+00 -1.70793817e+00   1.67726646e+00  -1.45552800e-01
C     3.564409124174878e+00   3.628231030405155e+00   7.050691850028574e+00 -1.66239038e+00   1.22687870e-01   2.05156063e+00
C     5.361611853774595e+00   5.329246281490794e+00   3.047231500318980e-02  9.55984920e-01   2.06591069e+00  -3.61805347e+00
C     3.588575130966509e+00   5.452167186878394e+00   1.797358404055094e+00 -9.48800410e-01  -1.45203206e+00  -1.60806210e-01
C     5.390947745253524e+00   3.561360037376255e+00   1.688564635614030e+00 -2.12721791e+00   3.43920380e-01   2.59144202e+00
C     4.426084579243301e+00   4.648169188611746e+00   9.231498758126711e-01  1.71317610e+00  -6.88695842e+00  -2.42184234e+00
C     6.240672306960525e+00   6.307123903054845e+00   8.298292952254656e-01 -3.70172160e-01  -2.61439910e+00   3.68749722e+00
C     4.582385713159480e+00   6.203814424833563e+00   2.677477088116464e+00 -4.58271609e+00   1.86084451e+00   5.43051200e-01
C     6.223318159397188e+00   4.459625102701962e+00   2.648059449777404e+00 -3.37078440e-01  -1.86640314e+00  -1.58639300e-02
C     6.944971550275721e-02   1.255345302165214e-01   3.623411022279212e+00 -5.56263506e+00  -2.48208685e+00  -2.25413751e+00
C     1.686948393562921e+00   1.838917014976436e+00   3.659039218377139e+00  3.97072401e+00  -1.24922483e+00  -3.18019353e+00
C     1.547460953838280e-02   1.880767497730555e+00   5.394864272864466e+00 -1.36630539e+00  -2.71858384e+00  -6.61326300e-02
C     1.727353591829941e+00   7.051258249142936e+00   5.320992407649807e+00  2.04928700e-01  -2.64773940e-01   1.87868110e+00
C     7.913092506372690e-01   9.287463369413970e-01   4.569046544860372e+00  4.49972418e+00   4.79417970e-01  -1.98855590e+00
C     2.710424840212843e+00   2.760658570099633e+00   4.329850540561062e+00  1.66311180e-01  -3.74201095e+00   2.95019357e+00
C     9.735942282616914e-01   2.648836116032865e+00   6.245216152867681e+00 -8.60510000e-02   2.02739800e-02  -1.02633265e+00
C     2.613743966084711e+00   7.311007688774166e-01   6.258204733763171e+00  1.04877259e+00   3.74927205e+00  -2.76676348e+00
C     3.499094591362853e+00   5.386265071852600e-03   3.624025616498936e+00  3.20722430e-01  -8.29495220e-01  -6.37792076e+00
C     5.323704413047790e+00   1.798281645984980e+00   3.707947014192621e+00 -2.11366130e-01  -4.01820630e-01  -6.34949682e+00
C     3.584003348958456e+00   1.705294734755557e+00   5.322656702637828e+00 -3.28786095e+00   3.83173350e-01  -1.27764900e-02
C     5.281654396870727e+00   1.076186750977520e-02   5.323483127851629e+00  3.38261196e+00  -2.29684095e+00  -3.59231290e-01
C     4.390390345899233e+00   7.516074307884975e-01   4.374526763475084e+00  2.89588459e+00   6.15090960e+00   5.77255522e+00
C     6.242510473965831e+00   2.764699068601067e+00   4.473773209495226e+00 -1.75031663e+00  -4.05375906e+00   1.35261613e+00
C     4.309631485429187e+00   2.644887742688586e+00   6.265131607269457e+00  5.23928018e+00  -1.68840748e+00  -1.23531437e+00
C     6.196889470601385e+00   8.957555788881675e-01   6.241332821590375e+00  1.56677100e-02   1.02015377e+00  -5.44498500e-02
C     1.327640092737400e-02   3.561750360862320e+00   3.573322588550774e+00 -1.18051971e+00   2.93872510e-01  -2.29977651e+00
C     1.668394344261328e+00   5.361467552795409e+00   3.515349990041817e+00  4.03851156e+00  -3.45928704e+00   6.98553240e-01
C     6.671197761489039e-02   5.346006875765361e+00   5.283300636465293e+00 -3.74266824e+00  -2.28215114e+00   3.76038790e-01
C     1.875276454509284e+00   3.538256028924053e+00   5.280957416032836e+00 -1.98194698e+00   2.00706422e+00   4.91497210e-01
C     8.738225408941575e-01   4.380244067788349e+00   4.388180834896258e+00  2.43942730e+00   2.76172212e+00   2.12085865e+00
C     2.669197979375177e+00   6.142587519364944e+00   4.355006324118301e+00 -2.29378233e+00   2.82362094e+00   1.56825279e+00
C     7.973172894356930e-01   6.154693660676387e+00   6.233763204510789e+00  3.70704784e+00   2.31711262e+00   1.70710645e+00
C     2.661234982187800e+00   4.526748800155001e+00   6.136092482532823e+00 -7.47902400e-02  -2.31009236e+00   2.39593974e+00
C     3.696026900301143e+00   3.566007808422116e+00   3.454421780491690e+00 -4.40070494e+00   7.21311060e-01   1.76393527e+00
C     5.322029953015423e+00   5.304719593335424e+00   3.562634506467795e+00  3.27631941e+00  -9.18310000e-04   6.90398740e-01
C     3.590896315288843e+00   5.357064524740354e+00   5.224780333993464e+00 -1.52954142e+00  -1.99831813e+00   2.65080218e+00
C     5.247748784826303e+00   3.432343659592006e+00   5.378468482838757e+00  2.85084014e+00   5.38383984e+00  -2.82960080e-01
C     4.480307129399077e+00   4.421706572835870e+00   4.529687422066110e+00 -3.40771450e-01  -1.05253418e+00  -4.97845391e+00
C     6.294785174155275e+00   6.206416107512483e+00   4.396096347820533e+00 -2.12555102e+00   1.86944419e+00   1.31747567e+00
C     4.511699487541974e+00   6.122187341624710e+00   6.117002031660324e+00 -2.48905190e+00   2.91334001e+00   3.09918074e+00
C     6.256842475652276e+00   4.451176600249639e+00   6.150942332807134e+00 -1.29037525e+00  -2.40875904e+00   3.11512758e+00
