64
Lattice="7.10842262195238 0 0 0 7.10842262195238 0 0 0 7.10842262195238 " PBC="1 1 1" Properties=species:S:1:pos:R:3:force:R:3 Energy="-513.81074279"
C     1.868256958256260e-02   1.661913666442900e-02   4.185439238655999e-03 -2.57584080e-01  -1.81544030e-01  -1.25107800e-01
C     1.805871166647902e+00   1.795805071544172e+00   7.066717646656913e+00 -1.84255870e-01  -6.53878460e-01   1.56744977e+00
C     7.089367782324827e+00   1.777851115280159e+00   1.759283559975588e+00  9.70674320e-01   2.91970830e-01   4.52956070e-01
C     1.741259088159185e+00   4.924963985927699e-02   1.813872051727843e+00  9.00086700e-01  -1.60716931e+00  -1.19591420e+00
C     9.250008379786928e-01   9.084503686767730e-01   8.560739469596366e-01 -1.56855621e+00   2.94510210e-01   1.06402686e+00
C     2.670897318886714e+00   2.676583701561583e+00   9.328767569889741e-01  9.27309900e-02  -2.16085470e-01  -1.74752811e+00
C     8.940329237504366e-01   2.674787545333961e+00   2.659472662051850e+00 -1.33280934e+00  -5.47812670e-01   4.67343500e-01
C     2.655645060807884e+00   9.020124124782914e-01   2.704533663882292e+00 -3.73002900e-02  -1.28264910e-01  -9.11409520e-01
C     3.532796547099214e+00   7.059499967581242e+00   1.572098746639200e-03  7.21002570e-01   7.96077030e-01   4.22096100e-01
C     5.300791265742934e+00   1.749030157935822e+00   7.054206680677259e+00  1.23273560e-01   1.08824808e+00   2.19214868e+00
C     3.542285935875783e+00   1.776539682390996e+00   1.810420343872023e+00  6.04387930e-01  -6.09252710e-01  -1.08065105e+00
C     5.382304258768736e+00   1.589628116820120e-02   1.766681437564675e+00 -2.16439633e+00  -6.17094870e-01   9.64149530e-01
C     4.438863888176859e+00   8.636734904984523e-01   9.041637765842343e-01 -3.61883880e-01   3.22377180e-01  -9.78672200e-01
C     6.214613824814772e+00   2.650051798469338e+00   8.839126624663426e-01 -2.48281640e-01   3.42214600e-01  -1.25740730e+00
C     4.461973014693347e+00   2.645654172815474e+00   2.635413921357555e+00 -3.59009060e-01   8.36248750e-01   8.46277820e-01
C     6.197559652686000e+00   8.972242500856856e-01   2.693241934550422e+00  1.92958446e+00  -2.15375400e-02  -1.15295433e+00
C     6.576001765762000e-03   3.559854118044208e+00   7.096374981006719e+00  3.66169070e-01  -9.77048260e-01   3.36159090e-01
C     1.753212753805430e+00   5.310336811058201e+00   5.558999741518599e-03  4.48351110e-01   1.65760151e+00   2.06157330e-01
C     7.078356409181090e+00   5.297733719921394e+00   1.768311043450310e+00  8.70584910e-01   1.12162390e+00   1.00912960e-01
C     1.786885422840596e+00   3.550434462893541e+00   1.787187104296589e+00 -6.48622630e-01   2.08312750e-01  -2.57166050e-01
C     8.902816669654101e-01   4.441047311268817e+00   8.698111158412389e-01 -3.46043090e-01  -5.23584940e-01   9.31735450e-01
C     2.619506622134293e+00   6.220315703850953e+00   9.143020221775570e-01  1.39479009e+00  -4.69375700e-01   1.88748810e-01
C     8.384018396525070e-01   6.230482169882076e+00   2.679754271302781e+00  1.19381010e+00  -3.09192080e-01  -1.22623074e+00
C     2.682991020458572e+00   4.411959859160456e+00   2.665150017029991e+00  1.23091540e-01   1.18867543e+00  -4.03302960e-01
C     3.538027777473725e+00   3.594617503446188e+00   2.677252319793220e-02  7.84544810e-01  -8.07785090e-01  -2.32988380e-01
C     5.382292743124092e+00   5.343875912832337e+00   7.071335064738186e+00 -1.76204703e+00   1.38557070e-01   1.41478259e+00
C     3.599916192751361e+00   5.314125813567339e+00   1.806592102870022e+00 -1.24534012e+00   1.25631476e+00  -6.75879580e-01
C     5.317420496367483e+00   3.554132619761596e+00   1.732528523497301e+00  5.94370070e-01  -6.36187530e-01   8.68380630e-01
C     4.473828726275888e+00   4.474545823949794e+00   8.784361204272160e-01 -6.22850520e-01  -5.15769570e-01  -1.89360130e-01
C     6.218557080094764e+00   6.230666349112161e+00   8.832083599531529e-01  1.04380799e+00  -1.65177090e-01  -1.41999540e-01
C     4.482068241103183e+00   6.234413554096294e+00   2.698447645687726e+00 -7.44517580e-01  -5.28720430e-01  -9.43911320e-01
C     6.202633431499476e+00   4.406103158679612e+00   2.646460552277488e+00 -8.31092200e-02   7.40151330e-01   5.72930560e-01
C     1.824490400184920e-02   2.461554343811940e-02   3.560338130540404e+00 -1.47698622e+00  -9.43886560e-01   4.02582130e-01
C     1.768751054810488e+00   1.786775597711117e+00   3.560875527290476e+00  2.18387110e-01   5.47619470e-01   2.32362170e-01
C     7.105609461748134e+00   1.776978485319328e+00   5.355765744843454e+00  1.01243934e+00  -1.49191800e-02  -9.96421920e-01
C     1.772842733954786e+00   7.086724444289354e+00   5.306862142997319e+00 -3.69459630e-01   5.31240830e-01   7.85029070e-01
C     8.941571789778341e-01   8.878731912133018e-01   4.428479051402848e+00 -1.82310190e-01   4.47223350e-01   7.72864900e-01
C     2.685476622596108e+00   2.684730949063269e+00   4.439904490164200e+00 -6.51234780e-01  -7.48144530e-01  -1.85403600e-01
C     9.296970173825957e-01   2.664606791373371e+00   6.182341728288424e+00 -8.94625080e-01   5.93409330e-01   1.02915863e+00
C     2.665944170005098e+00   8.538778708754138e-01   6.212832240853522e+00  4.60683600e-02   6.10153450e-01  -1.82169540e-01
C     3.547748758659253e+00   1.475324681090520e-02   3.558184633907675e+00  3.66897350e-01  -6.39054170e-01   2.16490460e-01
C     5.338542889845908e+00   1.776060290369503e+00   3.562098104896890e+00 -5.15969770e-01   4.58145270e-01   1.28353660e-01
C     3.511884065340757e+00   1.770077131050249e+00   5.338324519103022e+00  1.44816128e+00   2.80356750e-01  -7.53229370e-01
C     5.339981776752650e+00   2.218339663868640e-02   5.317419359019864e+00 -3.45832170e-01  -6.40737230e-01   2.25480300e-01
C     4.436294335568181e+00   9.070201540456289e-01   4.425316158758078e+00 -2.14265960e-01  -3.09809560e-01   1.02254646e+00
C     6.215434350037798e+00   2.662460189910584e+00   4.505965407351324e+00 -6.12304700e-01  -3.47007230e-01  -1.51944887e+00
C     4.390137712559318e+00   2.682335979314139e+00   6.207954085830546e+00  7.11441370e-01  -1.02760778e+00   1.22648144e+00
C     6.231133443562521e+00   8.985290010575867e-01   6.217829248702703e+00 -5.12416490e-01  -4.38832590e-01   6.23387000e-03
C     7.035678363865551e+00   3.535180996382867e+00   3.575978650662738e+00  2.78877465e+00   2.55546990e-01  -6.65676340e-01
C     1.763428410121084e+00   5.322958739514951e+00   3.501707647517966e+00  2.01853950e-01   8.05927500e-02   1.42978087e+00
C     3.292621357583999e-04   5.323530327777825e+00   5.356120952721775e+00  2.13795680e-01   4.41950230e-01  -1.12660979e+00
C     1.817694677075974e+00   3.570270871635782e+00   5.327578290123011e+00 -9.84025950e-01   7.89031800e-02  -7.80672350e-01
C     8.912125149074993e-01   4.435760421945192e+00   4.402873233609537e+00 -5.26972300e-01   2.86045510e-01   1.41027926e+00
C     2.643520437597629e+00   6.209459934078367e+00   4.435203192696011e+00  6.52415990e-01  -5.16434000e-02  -5.25355620e-01
C     8.718920354790177e-01   6.238373300916765e+00   6.225902213188011e+00  5.81168910e-01  -1.13814278e+00  -2.90448770e-01
C     2.676355876616612e+00   4.470918395886808e+00   6.243174827143896e+00 -6.96452200e-01  -4.43688330e-01  -6.19816670e-01
C     3.582742883459478e+00   3.542977798649388e+00   3.524972021984475e+00 -3.04526990e-01  -3.22782350e-01   1.17250501e+00
C     5.371445219121745e+00   5.322775626548260e+00   3.561808934264708e+00 -1.26318844e+00   1.71390700e-01   3.55529510e-01
C     3.541103734109851e+00   5.338415649081011e+00   5.321129244785242e+00  8.32646430e-01  -6.60654260e-01   6.49965300e-02
C     5.311355163682742e+00   3.530977572834982e+00   5.374950808821024e+00  1.25891240e-01   9.29249810e-01  -9.15239230e-01
C     4.446801650463933e+00   4.408462301978737e+00   4.451567136988382e+00  2.22507060e-01   1.18010850e+00  -4.89454510e-01
C     6.224224198944333e+00   6.229940650246885e+00   4.468197576044776e+00  5.85875430e-01  -3.70883250e-01  -7.18637440e-01
C     4.470586432550454e+00   6.195153522713355e+00   6.198003076089034e+00 -9.49310990e-01   1.11556398e+00   1.66465680e-01
C     6.226370942575572e+00   4.444346401290986e+00   6.243006570780481e+00  3.27607580e-01  -6.42126390e-01  -9.96882080e-01
