64
Lattice="7.10842262195238 0 0 0 7.10842262195238 0 0 0 7.10842262195238 " PBC="1 1 1" Properties=species:S:1:pos:R:3:force:R:3 Energy="-512.63739571"
C     7.104646696988482e+00   1.168567811347040e-02   2.988039665162239e-02 -4.47401620e-01  -9.70124800e-01  -6.80233960e-01
C     1.776865958989254e+00   1.781613176867568e+00   7.103214207662099e+00  4.41189630e-01  -1.19631520e-01   8.36827980e-01
C     7.096962492136262e+00   1.823392788648166e+00   1.813917829969515e+00  4.98980450e-01  -1.96772133e+00  -1.07917152e+00
C     1.775004547441980e+00   7.093213225709570e+00   1.784398327934311e+00 -2.88959870e-01   7.11558320e-01  -3.81749840e-01
C     8.876737288745845e-01   8.495245306944733e-01   8.905279027249670e-01 -6.07138000e-03   2.30811772e+00   7.72040330e-01
C     2.684867359693347e+00   2.705500267190159e+00   8.743241111942246e-01 -1.49742350e+00  -1.56241329e+00   6.65097690e-01
C     8.773001944925399e-01   2.667248707724320e+00   2.671571197351090e+00  4.22955000e-03   8.03686200e-01   6.59525620e-01
C     2.628025995560137e+00   8.907971697738125e-01   2.662334299745983e+00  4.59383780e-01   8.22479310e-01   5.70279990e-01
C     3.545454657427100e+00   3.581877290837040e-02   2.725809954710440e-02  2.74771990e-01  -1.50748397e+00   1.22635540e-01
C     5.370175441589135e+00   1.793506705258447e+00   2.814388008978260e-02 -1.40511996e+00  -1.69982110e-01   7.34059630e-01
C     3.541097478697945e+00   1.831809658619829e+00   1.793071030036067e+00  4.78374080e-01  -1.74063179e+00  -2.62224910e-01
C     5.340635040791427e+00   5.502907178624180e-02   1.764361746011090e+00 -1.92163153e+00  -2.57653524e+00   9.92150240e-01
C     4.427920116132237e+00   8.924447599686762e-01   9.064366947169794e-01  6.03012490e-01   1.61558941e+00   1.60430640e-01
C     6.283713308335042e+00   2.692246115625586e+00   8.693159431215298e-01 -1.66364205e+00  -4.93086950e-01   7.59459110e-01
C     4.495835691865146e+00   2.656365428356195e+00   2.674370920684203e+00 -1.07433847e+00   3.97472160e-01  -3.51567640e-01
C     6.181094555539745e+00   8.765016342954092e-01   2.696221003386237e+00  1.90861102e+00   1.69954374e+00  -7.49784130e-01
C     1.348695240537840e-02   3.579487510236422e+00   7.070715068117269e+00  3.35070500e-02  -1.02544018e+00   3.48044190e-01
C     1.807216862134094e+00   5.299370149892743e+00   7.091596486068876e+00 -4.52929820e-01   4.53054630e-01   5.47861720e-01
C     7.075289764578596e+00   5.379080944531697e+00   1.762388518976004e+00  3.03445380e-01  -1.18403502e+00  -8.95615070e-01
C     1.743392183618995e+00   3.566230728555480e+00   1.751108945046815e+00  7.20226980e-01  -1.46655620e-01   2.78636430e-01
C     8.279582873076554e-01   4.426387753468044e+00   8.489958773042240e-01  2.58277527e+00   1.77002795e+00   1.11303026e+00
C     2.692620516244981e+00   6.240360886965543e+00   9.297592871647469e-01 -1.11758149e+00  -1.22484303e+00  -1.53213706e+00
C     8.479807945540880e-01   6.237262325545485e+00   2.631099890753703e+00  6.86597660e-01   2.44202600e-02   9.78841900e-01
C     2.662727750938000e+00   4.467743134586680e+00   2.628800244951907e+00 -9.02461340e-01  -1.34528830e+00   6.76924940e-01
C     3.567679780506567e+00   3.510600923973621e+00   7.098020509759023e+00  1.67964410e-01   1.78295064e+00  -3.50922220e-01
C     5.340480788020573e+00   5.327733324820353e+00   7.047116171282262e+00 -1.66390157e+00  -1.82490890e-01   2.18091015e+00
C     3.539719226636154e+00   5.321350174560272e+00   1.785239183246030e+00  9.01895460e-01   6.59723320e-01  -7.97402230e-01
C     5.368570644098443e+00   3.555179192823939e+00   1.760961076629682e+00 -3.45506760e-01   4.26008090e-01   6.92904000e-03
C     4.409804585422072e+00   4.413704408239856e+00   8.706874421818326e-01  1.72319446e+00   9.34695910e-01   2.17009820e-01
C     6.160674971805760e+00   6.220883098144481e+00   8.848530356947424e-01  1.67084381e+00   7.46674780e-01  -3.95570550e-01
C     4.409347513847606e+00   6.203528168654655e+00   2.688489314270916e+00  8.53517310e-01   7.61419510e-01  -1.24360678e+00
C     6.254262686915024e+00   4.486152385319503e+00   2.637104162088138e+00 -1.64081691e+00  -8.21909500e-01   9.81222010e-01
C     7.092688837372892e+00   1.537040006277360e-02   3.554919948650987e+00 -7.52822710e-01  -8.86695930e-01   1.24565656e+00
C     1.717007495959210e+00   1.762434368301903e+00   3.579616385938523e+00  1.92004988e+00  -1.94772900e-02  -2.89328060e-01
C     1.172896840722620e-02   1.781780722388721e+00   5.395728230549701e+00  3.42001770e-01  -2.70835570e-01  -1.30637445e+00
C     1.813670314693887e+00   7.052726778172002e+00   5.381596828549593e+00 -8.37302060e-01   1.12900834e+00  -1.18557562e+00
C     8.997494461372144e-01   8.587237536596940e-01   4.510456864183771e+00 -9.44024000e-01   1.69526750e-01  -1.11730667e+00
C     2.666951575658804e+00   2.644965011242466e+00   4.428216750608170e+00  6.86346300e-02   1.44955790e-01  -2.46502610e-01
C     9.453588627727894e-01   2.682023919561121e+00   6.215702479739025e+00 -1.65136131e+00  -8.63018000e-03  -3.98324710e-01
C     2.658975214636902e+00   8.838049698636495e-01   6.249209664695597e+00  2.51516010e-01  -1.24153710e-01  -3.28613640e-01
C     3.547624005842272e+00   3.558142267708860e-02   3.546914300927891e+00 -1.87909860e-01  -1.74515969e+00  -1.33668600e-02
C     5.354652281524257e+00   1.769302668405800e+00   3.594195831816369e+00 -1.04795750e-01   2.83244060e-01  -7.80788120e-01
C     3.533053090071570e+00   1.763947964730380e+00   5.374909437801376e+00  1.31004744e+00  -1.64759800e-02  -1.48120878e+00
C     5.288616812490113e+00   7.092947441787808e+00   5.387565131265571e+00  3.07475600e-01   8.93827130e-01  -1.53416398e+00
C     4.458361082991673e+00   8.543742520269684e-01   4.411377963684783e+00 -1.01023960e+00   1.84154945e+00   2.80703291e+00
C     6.285236572218282e+00   2.694778491183961e+00   4.455595195750231e+00 -1.18451681e+00  -1.61241858e+00   9.38274900e-02
C     4.477766508070463e+00   2.648799578740598e+00   6.279475693274355e+00 -2.42812730e-01  -3.39192180e-01  -2.50673537e+00
C     6.182130537052384e+00   9.134861174292332e-01   6.282033019396127e+00  1.79152140e+00  -1.10689675e+00  -1.65798019e+00
C     2.897393059912000e-04   3.619600623417987e+00   3.579654629252219e+00  8.02550290e-01  -1.42308495e+00  -1.75403657e+00
C     1.737319173837824e+00   5.341963107389521e+00   3.493159413896284e+00  1.61072562e+00   6.80195440e-01   1.03750490e+00
C     5.450169791206400e-03   5.322267445415156e+00   5.341432392556713e+00 -2.30427470e-01   1.02795099e+00  -8.26693390e-01
C     1.793205592476264e+00   3.561427709559598e+00   5.257928970113084e+00  2.84524030e-01  -2.58830730e-01   1.56017998e+00
C     9.138608023855336e-01   4.487575562612254e+00   4.400958437808387e+00 -1.00097338e+00  -7.90513510e-01   1.10151798e+00
C     2.690859902130460e+00   6.198937051737077e+00   4.434324733828631e+00 -1.43085763e+00   4.98638950e-01  -7.50549600e-01
C     9.041129513625015e-01   6.199584842290436e+00   6.242593287089354e+00 -4.17452750e-01   1.08029650e-01  -2.37049780e-01
C     2.714117950100837e+00   4.398986490289372e+00   6.159081547791260e+00 -1.55345519e+00   5.64943810e-01   9.51891970e-01
C     3.574922978819442e+00   3.536528113553583e+00   3.521018672744362e+00 -3.54304090e-01  -2.40177660e-01   5.53312340e-01
C     5.311847066528046e+00   5.311123997779140e+00   3.531202198989774e+00 -6.53288000e-03   5.42743730e-01   9.20122250e-01
C     3.536351042746119e+00   5.270055441513220e+00   5.253926288419988e+00  1.90440146e+00   1.09212598e+00   2.08598421e+00
C     5.381680139262700e+00   3.515719343681152e+00   5.303532202420979e+00 -1.41033454e+00   9.14652360e-01   1.68472127e+00
C     4.477239773954321e+00   4.372553962945355e+00   4.427136554706834e+00 -8.95052280e-01   1.23789591e+00  -6.87846650e-01
C     6.112099423663537e+00   6.216206111481651e+00   4.474163461897064e+00  3.85510113e+00  -3.12103280e-01  -5.19138330e-01
C     4.409981727313762e+00   6.222516542578330e+00   6.235276445518136e+00 -7.08582100e-02  -6.78126620e-01  -8.46236440e-01
C     6.234127084664707e+00   4.439253785157565e+00   6.198760833940327e+00 -3.98883800e-02  -1.62680010e-01  -4.35859010e-01
