64
Lattice="7.10842262195238 0 0 0 7.10842262195238 0 0 0 7.10842262195238 " PBC="1 1 1" Properties=species:S:1:pos:R:3:force:R:3 Energy="-514.24464529"
C     9.359660063754001e-03   7.097723662030412e+00   5.337572376905600e-03 -1.02538575e+00   4.54735760e-01  -5.04519500e-02
C     1.792424945504136e+00   1.789184571052809e+00   2.435423782260820e-02 -5.43579220e-01  -7.60403980e-01  -1.30330474e+00
C     7.102003358953008e+00   1.805534227415714e+00   1.774569938482994e+00  1.03463640e-01  -1.15134469e+00   4.65385350e-01
C     1.749878974680876e+00   2.460914585776140e-02   1.748260600102981e+00  9.34105830e-01  -9.86738700e-01   1.86453553e+00
C     8.663644549654795e-01   8.932298141628289e-01   8.765948968001835e-01  8.47401620e-01   4.83890390e-01   4.63301410e-01
C     2.668880730473646e+00   2.667003964733514e+00   8.904659172797206e-01  4.30442600e-02  -1.48077300e-01   4.38023000e-01
C     8.802957548688342e-01   2.667130423571923e+00   2.674606635978282e+00  5.46726220e-01   4.55939850e-01  -8.99617400e-02
C     2.660403154572808e+00   8.792646781678032e-01   2.710554782178337e+00  1.32635390e-01   1.04222501e+00  -1.91777586e+00
C     3.526100128654269e+00   7.080080201666441e+00   2.851913371989240e-02  9.61110820e-01   7.16421800e-01  -1.59029167e+00
C     5.331775173922085e+00   1.766464772843217e+00   1.618154216794180e-02 -3.78599290e-01   4.67852240e-01  -1.12960114e+00
C     3.567735368371455e+00   1.782895820645121e+00   1.786060419311319e+00 -8.20392270e-01  -3.25888810e-01  -1.97289140e-01
C     5.318638098078063e+00   1.879765494478040e-02   1.785952371287495e+00  6.57249340e-01  -5.68864290e-01   1.42279040e-01
C     4.440186978879119e+00   8.936241894497865e-01   8.852878579064077e-01 -2.72769590e-01  -4.81912530e-01   5.51987880e-01
C     6.214298210850444e+00   2.662827411023132e+00   8.826908667864169e-01  2.78632490e-01   2.30880750e-01   1.90172900e-02
C     4.438034406341330e+00   2.685497237021706e+00   2.627567146880016e+00  8.09511520e-01  -7.52431200e-01   1.57884174e+00
C     6.236582547090334e+00   9.076529458272614e-01   2.694581730045839e+00 -8.10762360e-01  -5.76989460e-01  -6.41998700e-01
C     1.336355018869520e-02   3.543876303268556e+00   7.091445076667070e+00 -2.99895670e-01   3.05804030e-01   6.66565100e-01
C     1.765203596501977e+00   5.339228355039156e+00   7.102810164920379e+00  6.84209460e-01  -5.60672890e-01  -2.05915700e-01
C     7.090273537535068e+00   5.328051000227241e+00   1.747873404322869e+00  6.89617440e-01   4.19757430e-01   1.05411694e+00
C     1.779670587133974e+00   3.545303176941068e+00   1.786734439944147e+00 -1.22624920e-01   9.14850090e-01  -6.36568550e-01
C     8.815643239695994e-01   4.473907771935423e+00   8.632284321582141e-01  2.65967210e-01  -1.61306541e+00   7.92264310e-01
C     2.657016702036640e+00   6.197249441122862e+00   8.911256499830829e-01 -2.07436070e-01   7.64624920e-01   2.61296700e-02
C     8.860339579446029e-01   6.235577842637224e+00   2.663138333428531e+00 -6.30886940e-01  -4.30635170e-01  -3.00753420e-01
C     2.679989702259956e+00   4.445425886350059e+00   2.643684286739020e+00 -3.89217290e-01  -8.36329730e-01   9.06845530e-01
C     3.551740209044609e+00   3.550032765931285e+00   7.097331987944050e+00  2.96386110e-01  -1.59319920e-01   2.13203660e-01
C     5.336032763650334e+00   5.351348286690481e+00   7.100407304822140e+00  1.21613030e-01  -1.23319075e+00  -2.71528040e-01
C     3.580015168447505e+00   5.311338814310716e+00   1.753859264842719e+00 -1.04133544e+00   4.69828780e-01   6.78450190e-01
C     5.335333223780300e+00   3.551243685724602e+00   1.752838353186034e+00  9.31036500e-02   6.57198620e-01   2.28000520e-01
C     4.461712846425455e+00   4.438752214857498e+00   8.528975483118896e-01 -2.93239330e-01   7.92082400e-02   5.81968070e-01
C     6.212657373657069e+00   6.204271567492255e+00   8.920760460873767e-01 -2.20255820e-01   1.28054550e+00  -1.59132340e-01
C     4.422781437420239e+00   6.220028310324426e+00   2.667031758665958e+00  7.56708800e-01   7.06460500e-01  -1.24963370e-01
C     6.230251785904962e+00   4.456008834862489e+00   2.637496475932536e+00 -6.01538610e-01  -6.98504000e-01   1.30744333e+00
C     8.763263405936000e-04   7.106247371594054e+00   3.607830639412243e+00 -2.62458700e-01   2.67402610e-01  -2.36199276e+00
C     1.775233722987249e+00   1.808759887432217e+00   3.557065412766156e+00  3.21830680e-01  -1.62409272e+00   1.59465200e-01
C     3.196423074267540e-02   1.772280955315128e+00   5.352835581955264e+00 -1.54398617e+00  -3.36013810e-01  -3.78303660e-01
C     1.735951797662641e+00   7.082842108191215e+00   5.313927346407789e+00  1.86068639e+00   1.00750457e+00   4.39725690e-01
C     8.832812212850080e-01   8.828445508834614e-01   4.424103390774881e+00  3.89209210e-01   5.89693150e-01   1.49024110e+00
C     2.693892994978187e+00   2.658520204504996e+00   4.460677931176209e+00 -1.04434893e+00   3.02907340e-01  -8.70986060e-01
C     8.903349801350601e-01   2.660267596953444e+00   6.227798313837669e+00  1.04354647e+00   7.59796800e-02  -3.24766580e-01
C     2.674810647707476e+00   8.711762173211838e-01   6.205363350122461e+00 -9.58257490e-01   2.39294700e-01   8.89894060e-01
C     3.562801554399365e+00   1.059226054606200e-02   3.576508370316380e+00 -6.07193790e-01  -1.10926460e-01  -3.48365950e-01
C     5.335397910426142e+00   1.790675918118485e+00   3.554571707026834e+00  1.05418490e-01  -5.00463600e-02   2.10852280e-01
C     3.557657402201950e+00   1.787342920920419e+00   5.332035555442656e+00 -7.10681300e-02  -1.03859970e+00   2.48256440e-01
C     5.322970610580727e+00   7.099754182951815e+00   5.344841449876812e+00  1.83041350e-01   8.83377240e-01   6.90215700e-02
C     4.456376055975038e+00   9.197266016473314e-01   4.470396282245368e+00 -2.30606360e-01  -1.12378668e+00  -1.15109798e+00
C     6.212838069760070e+00   2.650212733157455e+00   4.471956367757779e+00  6.16137340e-01   7.19896840e-01  -5.66554590e-01
C     4.422436252417812e+00   2.664128821036402e+00   6.188324532186547e+00  9.69391930e-01   3.24877740e-01   1.57699344e+00
C     6.212996729752947e+00   8.937867590751060e-01   6.233611226435174e+00  5.68920580e-01  -7.75637750e-01   2.30748000e-02
C     1.453288570968520e-02   3.530401008676274e+00   3.598400748133004e+00 -1.13638731e+00   1.03530345e+00  -1.71970917e+00
C     1.756124363710582e+00   5.319627377254088e+00   3.530874713959671e+00  1.19821560e+00   7.27153620e-01  -1.23740000e-04
C     7.103590811892508e+00   5.331784557039944e+00   5.334738462059684e+00  6.81547100e-02  -4.77489170e-01   2.07666460e-01
C     1.798299559209982e+00   3.544397634983506e+00   5.315066542216870e+00 -5.53237470e-01   5.44611280e-01   9.39029420e-01
C     8.730767251928669e-01   4.450125477796820e+00   4.433936969374709e+00  1.07120348e+00  -4.51404440e-01   4.33817810e-01
C     2.670759770909017e+00   6.229979675487069e+00   4.431489468382417e+00 -6.81854660e-01  -1.09787376e+00   5.04129530e-01
C     8.763473104403290e-01   6.217893224506283e+00   6.227737607908495e+00  2.27660030e-01  -7.87904600e-02  -6.26747970e-01
C     2.679989631175729e+00   4.419508648561766e+00   6.230162361948403e+00 -7.26636320e-01   9.76033530e-01  -9.36415240e-01
C     3.583681763919127e+00   3.526491802740631e+00   3.577595816808788e+00 -9.94509960e-01   1.23243433e+00  -1.76946305e+00
C     5.314521681623048e+00   5.365506132022735e+00   3.559335914035211e+00  8.23852810e-01  -1.19256622e+00  -9.14380980e-01
C     3.572265992612538e+00   5.314139106317639e+00   5.318628928212883e+00 -1.16949300e+00   2.58958770e-01   8.38074700e-02
C     5.332637638838570e+00   3.566049250525990e+00   5.330631641975205e+00  2.56169100e-02  -4.79104540e-01  -5.50956600e-02
C     4.436225739289898e+00   4.445461926052742e+00   4.407856308950382e+00  1.01899976e+00  -3.68734900e-02   1.34265577e+00
C     6.218186944528941e+00   6.222302579057469e+00   4.460859906795282e+00 -4.63543830e-01   2.46279000e-03   3.80635400e-02
C     4.426905815308589e+00   6.201600933113921e+00   6.204162453205038e+00  5.74495410e-01   4.87342790e-01   7.71447380e-01
C     6.247531295030789e+00   4.420353129169021e+00   6.230634290126145e+00 -1.22751343e+00   1.01922459e+00  -7.57084690e-01
