64
Lattice="7.10842262195238 0 0 0 7.10842262195238 0 0 0 7.10842262195238 " PBC="1 1 1" Properties=species:S:1:pos:R:3:force:R:3 Energy="-513.01748318"
C     7.089729814288864e+00   7.063497317957373e+00   7.065414317369536e+00  1.69782884e+00   1.49890034e+00   9.71002160e-01
C     1.738504361141257e+00   1.799711363026541e+00   7.098487177704026e+00  5.24638370e-01  -3.44530660e-01   3.70817080e-01
C     1.053560641778060e-02   1.736595180993977e+00   1.762545259694775e+00 -1.01229297e+00   1.05799528e+00   1.01864000e-03
C     1.812565381481834e+00   7.073742616395354e+00   1.799354235874112e+00 -8.45263080e-01   1.10648780e+00  -4.60773790e-01
C     8.712954255685212e-01   8.654375166558316e-01   8.866331979714690e-01  1.02212817e+00  -3.58285120e-01  -3.96334930e-01
C     2.662099579631071e+00   2.701259666591972e+00   8.753664902872215e-01 -5.17813660e-01  -1.46621012e+00   8.50235020e-01
C     8.922261759731112e-01   2.627857739196721e+00   2.645095379713316e+00  3.62933600e-01   7.34980730e-01  -4.55370580e-01
C     2.701230948564587e+00   9.247974660075345e-01   2.676197856381769e+00 -1.08239947e+00  -2.16502629e+00  -4.50102240e-01
C     3.572033333940186e+00   5.866318176649060e-02   7.095548769045596e+00 -9.25011950e-01  -1.26424567e+00   7.56651860e-01
C     5.347019968157164e+00   1.831516222934076e+00   7.081711940078862e+00  4.60593800e-02  -1.61488103e+00  -2.50017490e-01
C     3.534788682538469e+00   1.819106125471401e+00   1.802052024426854e+00  9.50820180e-01  -1.00062670e+00  -6.69147370e-01
C     5.363690072211778e+00   7.074592499403801e+00   1.733011540814330e+00 -6.51631020e-01   1.30688935e+00   8.32437820e-01
C     4.442179327571052e+00   9.389260957228205e-01   8.643819869809878e-01  6.95227420e-01  -6.24744590e-01   5.86739500e-01
C     6.219841216641067e+00   2.692051629182703e+00   8.461491672975926e-01 -2.41456220e-01  -1.15563934e+00   2.44652987e+00
C     4.438703522162552e+00   2.631105364239120e+00   2.748680309311123e+00 -9.03530120e-01   1.57956243e+00  -2.63043211e+00
C     6.206960044011366e+00   8.756475573176161e-01   2.657825142941213e+00 -6.89440100e-02   1.10128410e-01  -5.12222900e-01
C     7.084992477117992e+00   3.594280493129773e+00   3.044622709217440e-02 -1.69318060e-01  -2.63129020e-01  -1.34950213e+00
C     1.772452552637174e+00   5.359190796114449e+00   7.064550075347396e+00  9.42241310e-01  -3.20046950e-01   1.78993580e+00
C     6.829559200617400e-03   5.372552213776358e+00   1.757152597042565e+00  7.48579560e-01  -2.95079614e+00   8.81044050e-01
C     1.764818248911747e+00   3.557870228375193e+00   1.728194731478566e+00  1.98863150e-01   3.27839660e-01   2.15202722e+00
C     8.811913450347280e-01   4.463930532114444e+00   8.877980551862084e-01  2.82030250e-01   3.22658450e-01  -7.06612260e-01
C     2.701281915954773e+00   6.204652507860462e+00   9.386421142391513e-01 -9.69446100e-01   1.05861493e+00  -2.46858754e+00
C     8.767212845543672e-01   6.179366711253501e+00   2.645787597908052e+00  1.15970555e+00   1.88431592e+00   1.84289712e+00
C     2.673547978597485e+00   4.424927541293443e+00   2.699841180858151e+00 -7.32614590e-01   5.29176990e-01  -8.75581570e-01
C     3.573250295892730e+00   3.534800127098887e+00   5.284408484130620e-02 -1.10089112e+00   6.51464830e-01  -2.65493629e+00
C     5.331769913689346e+00   5.307219554486652e+00   4.156579042818800e-02 -3.13406570e-01   6.14082380e-01  -7.75223830e-01
C     3.546058304675991e+00   5.306466132773158e+00   1.773365842775392e+00  1.10506289e+00  -2.34117390e-01   8.89241140e-01
C     5.301525210378449e+00   3.514400304779785e+00   1.818194825691517e+00  1.39619794e+00   6.14403730e-01  -9.71094070e-01
C     4.432117142099764e+00   4.386473391782935e+00   8.813030183540882e-01  5.37574930e-01   1.61979044e+00   2.25831950e+00
C     6.294672434572522e+00   6.181362543072519e+00   8.743504123579185e-01 -3.38299874e+00   1.35379265e+00  -4.43593630e-01
C     4.486312751333811e+00   6.199410899188925e+00   2.651692635662712e+00 -1.18824764e+00  -1.61728810e-01  -1.15065400e-01
C     6.238651951083469e+00   4.430428251969478e+00   2.644746711583806e+00 -4.90004090e-01  -1.55821680e-01   6.35470770e-01
C     7.088433095834524e+00   2.300996402094000e-03   3.520442819427916e+00  1.27038450e+00  -1.71259970e-01   1.14102550e+00
C     1.796735350812451e+00   1.764803889898054e+00   3.534172666634220e+00 -3.87554910e-01   7.07152940e-01   1.83633620e-01
C     7.689536169185000e-03   1.759218944413973e+00   5.277557599662142e+00 -8.55063720e-01   1.17753294e+00   1.85723379e+00
C     1.771542461289136e+00   4.834402681748900e-02   5.308302096167452e+00  3.43081870e-01  -9.54306170e-01   6.83363340e-01
C     9.271054286637961e-01   9.275167930808156e-01   4.439220730992383e+00 -1.36109426e+00  -1.31032201e+00  -1.76116834e+00
C     2.639273510503310e+00   2.638461657555880e+00   4.433938533227686e+00  4.62896780e-01   1.51320284e+00   6.58046550e-01
C     8.373408364922458e-01   2.702130448362922e+00   6.235841422947972e+00  4.40523010e-01  -1.07863876e+00  -3.48286850e-01
C     2.627813240471120e+00   9.207178000974642e-01   6.205456896964140e+00  1.27156361e+00  -6.88770800e-02   2.43490320e-01
C     3.562577639086835e+00   7.101657676360998e+00   3.550403541255144e+00  6.76796960e-01  -7.51830600e-02   1.81630240e-01
C     5.288076145865634e+00   1.760529311039743e+00   3.572796423108442e+00  1.41747627e+00  -9.42360150e-01  -4.92908460e-01
C     3.554847940329847e+00   1.787723363699042e+00   5.294790335367130e+00 -4.93511500e-01  -2.08721700e-01   1.70665680e+00
C     5.341152818295068e+00   1.528808452883400e-03   5.329486759428028e+00  1.60248800e-01  -5.58207010e-01   3.44384150e-01
C     4.455109335064154e+00   8.682196821850734e-01   4.451964142391708e+00 -8.25460270e-01   5.79577400e-02   2.59360700e-02
C     6.158503561948028e+00   2.635752069021589e+00   4.419638803779938e+00  2.25977803e+00   1.11564495e+00   4.00034720e-01
C     4.432092262620594e+00   2.702590789811793e+00   6.225213335951906e+00  2.94283930e-01  -9.72685190e-01  -1.16996173e+00
C     6.259993141810137e+00   8.510340042378304e-01   6.189771664863526e+00 -1.61831204e+00   1.67515057e+00   2.54443440e-01
C     3.035879349394840e-02   3.525983621607528e+00   3.522725973689234e+00 -1.30852760e+00   3.70365120e-01   8.67907710e-01
C     1.781691298432162e+00   5.337812925927061e+00   3.619726371414135e+00 -6.41219150e-01  -1.06674936e+00  -1.62007395e+00
C     7.107888066618975e+00   5.338292673369684e+00   5.357662556335375e+00 -2.23164420e-01   2.04407080e-01  -8.67253990e-01
C     1.731893101599300e+00   3.544431399990951e+00   5.370895169379409e+00  1.77453096e+00  -2.96392300e-02  -5.59479350e-01
C     8.852060399620516e-01   4.425594026998295e+00   4.493861469650894e+00 -3.02244560e-01   2.64993040e-01  -1.24755186e+00
C     2.657130223545881e+00   6.229410361919433e+00   4.475605192172852e+00  6.89662760e-01   2.40744620e-01  -8.66093400e-01
C     8.971557248916288e-01   6.260370456882807e+00   6.178019025408976e+00  1.50479290e-01  -1.25145478e+00   8.25657090e-01
C     2.683529128050906e+00   4.431902041231282e+00   6.248469677900856e+00 -6.40511430e-01   2.58872900e-01  -6.51840740e-01
C     3.542372658631747e+00   3.550655463752797e+00   3.580539627868408e+00 -1.24805770e-01  -6.06422000e-03   1.75877820e-01
C     5.335473899463950e+00   5.286909866966371e+00   3.558105161742783e+00  8.50622920e-01   1.85706391e+00  -2.97014480e-01
C     3.569069619297229e+00   5.325249926293830e+00   5.347884068010851e+00 -5.18735450e-01   8.46869550e-01   5.88584620e-01
C     5.309043078141361e+00   3.587026632182968e+00   5.303076197109907e+00  3.72165090e-01  -6.61249830e-01   1.36585301e+00
C     4.434758916282261e+00   4.471238985746970e+00   4.450551912069794e+00 -1.30439440e-01  -1.01809899e+00  -3.47632830e-01
C     6.247904060712982e+00   6.237114470354989e+00   4.457156418610261e+00 -1.06308015e+00  -1.14844161e+00  -9.08761040e-01
C     4.459347874219781e+00   6.234191771310550e+00   6.255260425113967e+00 -3.25731570e-01  -8.05441400e-02  -6.17467600e-01
C     6.178818367532595e+00   4.478969466430446e+00   6.240478460275678e+00  1.30549423e+00  -9.82962440e-01  -8.39839750e-01
