64
Lattice="7.10842262195238 0 0 0 7.10842262195238 0 0 0 7.10842262195238 " PBC="1 1 1" Properties=species:S:1:pos:R:3:force:R:3 Energy="-509.53037619"
C     7.043534237124044e+00   4.439728841041260e-02   7.094006738926639e-02  7.32367530e-01  -1.39123089e+00  -1.87689125e+00
C     1.754900577672323e+00   1.746425489719401e+00   4.124434755731159e-02  4.49578000e-03   5.04578280e-01  -1.95691555e+00
C     7.086285925697926e+00   1.799854668826560e+00   1.790143070758890e+00  9.92644290e-01   7.41315960e-01   1.40504020e+00
C     1.684546528643849e+00   3.587912341641419e-02   1.791280347293863e+00  1.89200306e+00  -7.14614720e-01   8.96942670e-01
C     8.332408404934822e-01   9.509747298952680e-01   9.076331844123778e-01  5.19620670e-01  -2.43160884e+00   7.69639030e-01
C     2.653468888306997e+00   2.646269833298593e+00   8.416270731636534e-01  1.66305383e+00   4.67180930e-01   1.19465273e+00
C     9.399798482920092e-01   2.712600799461051e+00   2.614704740486030e+00 -4.50898430e-01  -1.20227409e+00   1.09402319e+00
C     2.659995415451324e+00   8.248187102890799e-01   2.724529443459673e+00  4.96619030e-01   1.28329047e+00  -1.75804914e+00
C     3.584657963597532e+00   4.460037604466600e-03   2.948722979651020e-02 -1.31653986e+00  -2.70184660e-01  -8.11305180e-01
C     5.343458221919186e+00   1.743568614668423e+00   7.081377488794590e+00  6.19316790e-01   3.71532754e+00   2.18727905e+00
C     3.569584340179143e+00   1.720663784218033e+00   1.799437333334539e+00 -7.89257580e-01   1.93036179e+00  -4.47628910e-01
C     5.280949383515275e+00   6.021032994973360e-02   1.803704164012194e+00  1.23932256e+00  -1.32584175e+00   9.91555400e-01
C     4.506645185806475e+00   9.118774103061013e-01   8.799785770515298e-01 -2.91948271e+00  -4.56671050e-01   2.23644380e-01
C     6.281401009540982e+00   2.723613807541991e+00   9.822279051232647e-01 -2.37288208e+00  -8.37016260e-01  -3.63536576e+00
C     4.409897350337263e+00   2.700863229862455e+00   2.666774291598661e+00  4.93761860e-01  -4.84676930e-01   8.91052900e-01
C     6.166216911332990e+00   9.373874776467214e-01   2.711002186298039e+00  1.22638757e+00  -9.63776120e-01  -9.18034800e-02
C     3.803553450241740e-02   3.599089696453334e+00   2.786786003944800e-03 -1.25259048e+00  -2.09798760e+00   4.27320880e-01
C     1.790023791427326e+00   5.391524451580686e+00   6.969364671170060e+00 -1.01205236e+00  -1.35022946e+00   3.05330301e+00
C     3.631714441825860e-02   5.311958668763180e+00   1.812668809030955e+00 -1.11517250e+00   2.13998928e+00  -1.22599935e+00
C     1.812043552177300e+00   3.641235818504219e+00   1.709490196870108e+00 -8.71248590e-01  -2.74462653e+00  -1.10533250e-01
C     8.933699922568953e-01   4.494900010195675e+00   8.296846388251485e-01  1.62398239e+00   5.45016340e-01   1.82279980e-01
C     2.576825662365479e+00   6.309719472490311e+00   8.778253647557056e-01  2.41894349e+00  -2.41327456e+00  -9.93136280e-01
C     8.681989255910230e-01   6.228878936244361e+00   2.723291511660400e+00 -4.36713990e-01   1.67527640e-01  -1.40217846e+00
C     2.641558655122962e+00   4.461247457996524e+00   2.611154154471567e+00  9.78328180e-01   1.08211223e+00   1.73913147e+00
C     3.648769680218026e+00   3.488749419587063e+00   7.043369534971939e+00 -2.72200048e+00   1.45552321e+00   5.70112100e-01
C     5.337166699226676e+00   5.348306734819836e+00   3.785107093542840e-02  5.06151020e-01  -5.57284050e-01  -2.20224561e+00
C     3.531031099257311e+00   5.354501298627808e+00   1.717333488220563e+00 -7.34351900e-01  -1.31473120e-01   8.61035910e-01
C     5.323947023511810e+00   3.558319693937455e+00   1.763445541419598e+00  7.62823430e-01   9.55144600e-01   1.12451558e+00
C     4.467041320021407e+00   4.434497966087880e+00   8.203959919033683e-01 -8.54384630e-01  -1.19065860e-01   1.72070326e+00
C     6.158480743911418e+00   6.244548743067890e+00   9.816036434487765e-01  1.86547343e+00  -1.87174610e-01  -1.69002492e+00
C     4.398514491027405e+00   6.231142826680379e+00   2.656572283454437e+00  4.90583040e-01  -4.76327700e-02  -3.32603410e-01
C     6.292917009606513e+00   4.472722158126633e+00   2.678938508722910e+00 -2.82293816e+00  -1.82862044e+00  -6.86599080e-01
C     7.095395369285457e+00   7.094338773347220e+00   3.631401529062127e+00 -5.35923340e-01   9.88469510e-01  -2.71242388e+00
C     1.835379153038462e+00   1.772818209896747e+00   3.528696551100451e+00 -1.40766542e+00   6.90550230e-01   1.54385990e+00
C     7.105748573578809e+00   1.821484035006244e+00   5.340593811940231e+00 -9.71971810e-01  -2.63346545e+00   5.96275570e-01
C     1.739904507144718e+00   1.827156058667420e-02   5.341201582074241e+00  5.83936800e-02  -5.14179270e-01  -1.17887587e+00
C     8.623098107030316e-01   9.261807650493865e-01   4.415890745785090e+00  1.07051641e+00  -4.07833290e-01   1.43471808e+00
C     2.690345323416998e+00   2.616310959661245e+00   4.574947459729913e+00  9.98533140e-01  -1.78275950e-01  -5.00417906e+00
C     8.168922503939703e-01   2.602126102323036e+00   6.244223888154156e+00  3.83819429e+00   2.92552720e+00   2.21370590e-01
C     2.667039293593935e+00   8.174396700199366e-01   6.237033292168668e+00  1.49789210e-01   2.15053321e+00   1.13313448e+00
C     3.532764559197424e+00   7.036936199248160e+00   3.626483922293612e+00  1.33797300e-01   1.55099884e+00  -1.76814567e+00
C     5.304261953087149e+00   1.820720448248403e+00   3.599033753167315e+00  1.14363450e-01  -1.52643969e+00  -6.26810590e-01
C     3.632981660326327e+00   1.711434634793582e+00   5.404177017338928e+00 -2.93123546e+00   3.80803310e-01  -1.78899127e+00
C     5.349409322252424e+00   7.084795929232548e+00   5.360143680166660e+00  4.96529070e-01  -2.01193920e-01  -9.03892390e-01
C     4.459954507006172e+00   8.440315681990946e-01   4.477379667711483e+00 -2.97897580e-01   3.61813080e-01  -4.24760050e-01
C     6.217571070793144e+00   2.634601997325898e+00   4.505498170732512e+00  3.59202100e-01   1.80796274e+00  -4.07088356e+00
C     4.507552078364335e+00   2.622466213892130e+00   6.173307989401797e+00 -2.95569590e-01   9.41755320e-01   1.00221026e+00
C     6.209147305651539e+00   9.517705178075769e-01   6.281677313928221e+00  1.15130533e+00  -3.82925611e+00  -2.48791719e+00
C     2.321923598287280e-02   3.534277089362508e+00   3.547192026999655e+00 -2.68660270e-01  -8.94602550e-01  -5.02728030e-01
C     1.708174641095824e+00   5.315058296446631e+00   3.566641382130237e+00  2.96694883e+00   4.79502700e-02  -5.20646440e-01
C     4.999637965550800e-03   5.247891877373644e+00   5.278195083002704e+00 -2.63530260e-01   6.12691240e-01   3.28757950e-01
C     1.783108078144554e+00   3.481996986771872e+00   5.294381387813801e+00 -1.78577570e-01   9.83494250e-01   2.62373833e+00
C     9.106534110151633e-01   4.334107206194370e+00   4.402129763687710e+00 -2.68210860e-01   2.15958531e+00   1.14917697e+00
C     2.640002337074539e+00   6.204964780866158e+00   4.479457886148666e+00 -5.99023530e-01  -5.64277600e-01  -3.96654210e-01
C     8.071876896646939e-01   6.194383538375157e+00   6.109297354550959e+00  1.96066432e+00   1.54630368e+00   2.96963586e+00
C     2.719539401864659e+00   4.412299357424788e+00   6.143225002705505e+00 -1.26977593e+00   1.24899900e-01   1.80882957e+00
C     3.547554840890180e+00   3.622714467946678e+00   3.578917912331881e+00 -3.54175600e-01  -2.14775495e+00  -9.28371280e-01
C     5.341733292086217e+00   5.367042333235143e+00   3.480384938690109e+00  1.47060610e-01  -1.26417058e+00   1.32750120e+00
C     3.557890274126981e+00   5.353907887507491e+00   5.346244510333547e+00  5.20932920e-01  -1.68462839e+00  -1.86499451e+00
C     5.350927752408282e+00   3.570727729957570e+00   5.214680900387648e+00  2.24815330e-01  -5.90753770e-01   5.00742260e+00
C     4.481348939818265e+00   4.468478500906719e+00   4.415673725642501e+00 -1.14216875e+00   8.64631130e-01  -1.06901444e+00
C     6.242953399779283e+00   6.134336915398362e+00   4.399527583419207e+00 -1.08549228e+00   2.62716968e+00   1.98457637e+00
C     4.441423488993868e+00   6.194032453381955e+00   6.174464814098975e+00  7.14246810e-01   1.07308332e+00   3.49143600e+00
C     6.269146941954816e+00   4.413945597019353e+00   6.217129211243085e+00 -1.89337161e+00   1.15821932e+00  -4.47585710e-01
