64
Lattice="7.10842262195238 0 0 0 7.10842262195238 0 0 0 7.10842262195238 " PBC="1 1 1" Properties=species:S:1:pos:R:3:force:R:3 Energy="-510.50892012"
C     7.095846256532243e+00   7.064448069482799e+00   2.956677304562800e-02  2.98488840e-01   2.14708394e+00  -2.11080956e+00
C     1.749892622852306e+00   1.761066849958268e+00   1.057214371004740e-02  3.11034200e-01  -1.59542430e-01  -3.72230100e-02
C     7.092101752748706e+00   1.744026894674735e+00   1.802317737264390e+00 -1.19170670e-01   8.72607610e-01  -8.89075580e-01
C     1.799742995507200e+00   7.072473336452326e+00   1.735556782617647e+00  2.90235700e-01   5.09288100e-01   8.07362970e-01
C     8.737029061414627e-01   8.279821005234324e-01   8.945055627704405e-01 -4.26514800e-02   1.32459637e+00   3.64123400e-02
C     2.601786177553347e+00   2.626149229820004e+00   9.094569924039910e-01  1.49353522e+00   9.53369290e-01  -1.17270060e-01
C     8.686306200967355e-01   2.663706083143191e+00   2.704149311471228e+00  2.00246930e-01  -2.52962710e-01  -1.24744946e+00
C     2.639139516736923e+00   9.350296849478936e-01   2.644519668565323e+00 -1.12155126e+00  -4.07894614e+00   2.41700944e+00
C     3.633947552791933e+00   7.092319483733557e+00   7.056122542741802e+00 -2.33800117e+00   7.68891900e-01   1.68757689e+00
C     5.335220342029094e+00   1.858425938688574e+00   7.069951694612108e+00 -4.10958940e-01  -1.79827409e+00   1.72475648e+00
C     3.453490079538886e+00   1.758950246038937e+00   1.855326382089349e+00  4.06300097e+00   1.22251894e+00  -3.85392350e+00
C     5.305834620507598e+00   7.025057172039426e+00   1.778651097161814e+00 -1.84335320e-01   4.70974349e+00  -1.32074255e+00
C     4.364895277330342e+00   9.005430304385112e-01   9.212118354695541e-01  2.51752499e+00  -6.00113610e-01  -1.22662441e+00
C     6.189664398766190e+00   2.692891133894125e+00   9.474275559236618e-01  2.10657673e+00  -6.93596300e-01  -2.07365330e+00
C     4.447558768557190e+00   2.610477432638143e+00   2.693907638328785e+00 -9.94703100e-01   1.11356677e+00   3.48606600e-02
C     6.182033151662490e+00   8.943773268263756e-01   2.643088529839238e+00  1.59476709e+00  -2.16121573e+00   1.40580916e+00
C     6.641939493985119e-02   3.619015244815230e+00   4.855756383299380e-02 -3.55708816e+00  -1.94568876e+00  -1.40162358e+00
C     1.795315869899464e+00   5.366230835708844e+00   7.058198059978390e+00  7.60369910e-01  -2.25040090e+00   6.67444040e-01
C     6.771199050907200e-03   5.422810752058091e+00   1.776945217901467e+00 -1.38586950e-01  -3.30455386e+00  -1.07245480e-01
C     1.800994362225224e+00   3.544861033054104e+00   1.797133635731850e+00 -2.36123564e+00  -1.82405840e-01  -4.27818370e-01
C     9.270945527771876e-01   4.433003704568930e+00   8.934661692149440e-01 -2.45202480e-01   2.60734505e+00   5.35566800e-01
C     2.703969823800073e+00   6.166412677291945e+00   7.938362237944527e-01 -5.54832520e-01   1.56612615e+00   2.21448013e+00
C     9.281293969422072e-01   6.212253757420705e+00   2.674890901798856e+00 -2.66156580e-01   3.06155940e-01  -3.54686320e-01
C     2.635832252028742e+00   4.417475568608219e+00   2.670605375969711e+00  5.93573250e-01   6.59521430e-01  -1.94089180e-01
C     3.531574253829705e+00   3.522489121047536e+00   6.327846732097800e-03  8.89883100e-01  -2.72648100e-01  -2.21402110e-01
C     5.278515743947092e+00   5.232710632436788e+00   6.917490388426799e-02  2.35523608e+00   2.39961981e+00  -2.24215454e+00
C     3.500686949113959e+00   5.257916317120821e+00   1.755214912120579e+00  1.30440249e+00   1.30378521e+00  -5.07752330e-01
C     5.323491657958773e+00   3.510291849758103e+00   1.825160795522212e+00 -3.49408140e-01   1.15355562e+00  -3.03196050e-01
C     4.423405201505144e+00   4.339505768837356e+00   9.317747382301955e-01 -6.90213030e-01   1.08444925e+00  -5.33004870e-01
C     6.188693743657431e+00   6.235788038694096e+00   8.751926182699362e-01  5.88868740e-01  -1.99163337e+00   4.94814020e-01
C     4.409378861991360e+00   6.198793817021284e+00   2.556944968150316e+00 -6.87474310e-01  -6.58796820e-01   4.45031188e+00
C     6.182628837478045e+00   4.528888932953206e+00   2.658366591492177e+00  1.85484795e+00  -2.81224342e+00   9.83864100e-02
C     3.119083436161940e-02   7.050841055819368e+00   3.557813147741554e+00 -1.13162099e+00   2.32820097e+00   2.69344010e-01
C     1.746689923040865e+00   1.724269887013159e+00   3.546184976767079e+00 -7.22371640e-01   1.85147845e+00   9.41701910e-01
C     7.075899311818261e+00   1.747611885454679e+00   5.338684702877178e+00  1.54663343e+00   1.80269845e+00  -1.95564980e-01
C     1.810216687563960e+00   1.601506291018140e-02   5.292621129120411e+00  6.64183950e-01   1.13872330e+00   2.97104662e+00
C     8.814530060713702e-01   8.389615568496057e-01   4.489630181086339e+00  1.41247850e-01   1.54714900e+00  -2.22116868e+00
C     2.614791321073542e+00   2.678817878791048e+00   4.376151180212206e+00  1.07199589e+00  -7.83826190e-01   2.20779929e+00
C     8.458490496945762e-01   2.702843067730577e+00   6.247619439471277e+00  1.50351046e+00  -2.02306782e+00   8.52392600e-02
C     2.752591079099742e+00   9.521330473611969e-01   6.237879549881580e+00 -1.91918349e+00  -9.41568610e-01  -1.96052613e+00
C     3.556215956263066e+00   2.410416351483660e-02   3.582893368766343e+00  7.61002370e-01   2.10785070e-01  -2.39017519e+00
C     5.387607781801291e+00   1.780973347747542e+00   3.572204007167291e+00 -1.95930542e+00  -1.27401137e+00  -5.12264990e-01
C     3.614555989137251e+00   1.871828656285905e+00   5.258081730115188e+00 -1.81106835e+00  -2.46646641e+00   1.83190926e+00
C     5.313167171692807e+00   1.293505447316160e-02   5.365951261447200e+00  2.12683128e+00  -1.13529119e+00  -5.09154900e-01
C     4.470134123619143e+00   8.672722005340535e-01   4.474359227856018e+00 -1.28681060e-01   1.72626640e+00  -1.47421987e+00
C     6.243200915054912e+00   2.677754387682870e+00   4.422562640171996e+00 -5.33688700e-02   1.94673610e-01   2.13963770e-01
C     4.473850620217558e+00   2.724630738482008e+00   6.156847797067151e+00 -6.40637640e-01  -4.26429820e-01   1.01587815e+00
C     6.222987973166489e+00   9.078322202457378e-01   6.202054663729756e+00 -8.94231970e-01  -5.69325350e-01   2.05522604e+00
C     2.603232315051160e-02   3.594127306622312e+00   3.554002251290746e+00 -8.69639470e-01   2.33709770e-01   6.27769180e-01
C     1.795950580955203e+00   5.337171035364475e+00   3.580102530961505e+00  2.78080690e-01   1.76378900e-01   8.77440100e-02
C     8.324033972246200e-03   5.382586178809845e+00   5.329551090652739e+00  1.85508000e-03  -2.81259150e-01   1.27029700e+00
C     1.774631568507109e+00   3.541352457817324e+00   5.396059554128019e+00 -1.39398110e-01   9.39037360e-01  -2.73974197e+00
C     8.867323604670180e-01   4.504869075330642e+00   4.500348829386584e+00  7.35948670e-01  -1.81278005e+00  -1.33164389e+00
C     2.728175495589924e+00   6.299785594047314e+00   4.475600571698149e+00 -1.48187604e+00  -3.08861023e+00  -1.26872984e+00
C     9.623123085530371e-01   6.261493729825220e+00   6.215460011443457e+00 -2.47176155e+00  -9.38048840e-01  -2.11238510e-01
C     2.719279731186351e+00   4.424248829101685e+00   6.205099983064390e+00 -1.79546024e+00   7.25255830e-01   6.12597160e-01
C     3.510670657599523e+00   3.527475821683918e+00   3.504504669650483e+00  7.51367550e-01   6.96156960e-01   1.22613982e+00
C     5.290958611238045e+00   5.327008478965792e+00   3.518361757621685e+00  6.15599500e-02   1.16124748e+00   6.62835990e-01
C     3.585952762777765e+00   5.341866859347246e+00   5.330201653490922e+00 -1.96115320e-01  -4.82674410e-01  -4.68266250e-01
C     5.336361243859604e+00   3.586803214460021e+00   5.261430152590338e+00  4.80611980e-01   3.00451870e-01   1.20836467e+00
C     4.393225327008541e+00   4.440217545096385e+00   4.374840742502209e+00  1.30591675e+00   3.25031710e-01   9.28222180e-01
C     6.245206698665597e+00   6.239068931154358e+00   4.473670279535688e+00 -1.73233765e+00  -3.20003620e-01  -1.68432446e+00
C     4.497320854603143e+00   6.172077734698954e+00   6.235772115827428e+00 -9.34173390e-01   5.31229530e-01  -2.88006500e-02
C     6.223175919860561e+00   4.482597320998789e+00   6.196433109869181e+00  2.75375440e-01  -9.05384010e-01   1.39240261e+00
