64
Lattice="7.10842262195238 0 0 0 7.10842262195238 0 0 0 7.10842262195238 " PBC="1 1 1" Properties=species:S:1:pos:R:3:force:R:3 Energy="-510.34206728"
C     7.027834290588607e+00   7.103258066629665e+00   6.069697256229879e-02  2.59551645e+00  -3.49964330e-01  -1.16911117e+00
C     1.718849288260052e+00   1.718041629281968e+00   7.102517155739982e+00  9.54721220e-01   2.29357764e+00   1.24488749e+00
C     8.100971670430600e-03   1.776448410244555e+00   1.876451832189501e+00 -2.29025680e-01   2.50802920e-01  -2.75282309e+00
C     1.832556540584512e+00   7.068634006311037e+00   1.824812269561153e+00 -1.92758381e+00   2.44733178e+00  -3.14538446e+00
C     8.565205691528512e-01   8.617207357205122e-01   9.264690826708538e-01  2.01781160e-01   3.42886370e-01   2.38533700e-01
C     2.659765173642663e+00   2.677700079334054e+00   8.936627881846131e-01  7.77761500e-02  -3.41958090e-01  -1.60535025e+00
C     9.304827824190105e-01   2.673129363589394e+00   2.693037567400097e+00 -1.38422224e+00   2.13228670e-01  -2.07163830e-01
C     2.648641913926887e+00   9.824071084575150e-01   2.621223945955058e+00 -3.16096130e-01  -3.92815558e+00   3.02002780e+00
C     3.609787801412208e+00   4.927842897088800e-02   7.049433090551025e+00 -2.10886541e+00  -1.52077038e+00   2.30434710e+00
C     5.350004510478397e+00   1.815551771992949e+00   4.265608028964360e-02  3.12663510e-01  -1.45264329e+00   6.36382950e-01
C     3.514276618226197e+00   1.842662442854914e+00   1.796529846314507e+00  1.93071933e+00  -1.14757403e+00  -8.62733960e-01
C     5.300341018254183e+00   7.043682732072576e+00   1.807774731141311e+00 -5.81941900e-01   2.67097195e+00  -1.17434357e+00
C     4.418530813946157e+00   9.096073355424042e-01   9.258310306564825e-01  7.77879820e-01   1.71911420e-01  -8.24753500e-01
C     6.244670936852727e+00   2.744690636031422e+00   9.688049996056926e-01  2.15463530e-01  -2.40842500e+00  -1.90322717e+00
C     4.483493195501588e+00   2.667055074292151e+00   2.704459594118591e+00 -1.42042018e+00   8.31318630e-01  -2.59870040e+00
C     6.208197264968376e+00   8.240371392220109e-01   2.674473566306836e+00  8.77787800e-02   2.04730861e+00   2.13701550e-01
C     7.084325067318199e-03   3.593549462947533e+00   6.603155940170399e-03 -4.88796430e-01  -1.70708524e+00  -9.52272220e-01
C     1.772119238700522e+00   5.284585057348501e+00   7.083960547406246e+00 -5.05604110e-01   1.20779176e+00   3.86925010e-01
C     2.777651680878100e-02   5.426519998065434e+00   1.801981437790237e+00 -1.38442688e+00  -3.18921069e+00  -2.05681767e+00
C     1.791869351192156e+00   3.561413421630131e+00   1.728830579881925e+00 -2.00016630e-01  -7.93353220e-01   1.97085670e+00
C     9.031044794454020e-01   4.394050899211628e+00   8.571890452160359e-01 -1.88763820e-01   2.92966789e+00   1.16039594e+00
C     2.641677010359584e+00   6.223280626925754e+00   8.473187160712612e-01  1.35242005e+00  -3.35385070e-01   2.80591410e-01
C     9.171702707047270e-01   6.222023075880050e+00   2.643352110149987e+00  1.22031055e+00   7.27082920e-01   2.07555052e+00
C     2.694360942439262e+00   4.430054704360797e+00   2.658283280779071e+00 -9.10488250e-01   1.73886049e+00  -1.66020373e+00
C     3.581223813545584e+00   3.531176750836795e+00   7.084207636176518e+00 -1.00141246e+00  -4.55129000e-03   6.75984000e-03
C     5.322650802647053e+00   5.227123412257469e+00   7.097886942497992e+00  2.07224700e-02   4.16851983e+00   3.55134020e-01
C     3.506847534661809e+00   5.355113475983843e+00   1.748917205100390e+00  1.50362052e+00  -1.16474515e+00  -7.04074090e-01
C     5.355326302157086e+00   3.601918422150737e+00   1.796277994901081e+00 -4.72286770e-01  -7.67298340e-01   3.25006030e-01
C     4.455823162863655e+00   4.399645583234699e+00   8.671860464518992e-01 -1.17517474e+00   1.04614709e+00   8.21826480e-01
C     6.169949899471884e+00   6.241358411911808e+00   8.909259033074608e-01  7.25353960e-01  -2.31744537e+00   6.68318670e-01
C     4.360758246449727e+00   6.232907492595794e+00   2.635773038868317e+00  1.02925130e+00  -7.06709790e-01   1.65612482e+00
C     6.203379531537672e+00   4.530592395349862e+00   2.673757037306740e+00  1.20293375e+00  -7.65480110e-01  -1.43899363e+00
C     1.864198048940240e-02   7.102838527526633e+00   3.530132950059274e+00 -6.81368770e-01  -8.45424070e-01   1.78834145e+00
C     1.747752987643686e+00   1.687104068018299e+00   3.616226041947594e+00  1.26307250e-01   3.58766894e+00  -1.81111825e+00
C     7.053286495369100e+00   1.728303987934235e+00   5.321245183158174e+00  1.89555331e+00   1.16723633e+00   5.90685900e-01
C     1.792946490471765e+00   2.195599819907260e-02   5.386743184358021e+00 -1.81594553e+00  -1.61635778e+00  -2.20584650e-01
C     8.473960557093668e-01   8.407822371352665e-01   4.505561506778056e+00  1.12525628e+00   2.72852050e-01  -1.90592084e+00
C     2.649232694930835e+00   2.611637740462405e+00   4.396575739842025e+00  1.12456802e+00   1.19007838e+00   1.21298688e+00
C     8.727874834764592e-01   2.622396409182001e+00   6.192003140892397e+00 -7.11417850e-01   7.23007460e-01   7.29758080e-01
C     2.627372660437132e+00   9.321189991376823e-01   6.240012289920259e+00  2.46544324e+00  -1.52462923e+00  -1.07566205e+00
C     3.526371954735258e+00   7.159581937596139e-02   3.579582549846851e+00 -3.20597000e-03  -2.19315699e+00  -1.80621630e+00
C     5.322712645923847e+00   1.766772354289985e+00   3.537451213315017e+00  1.09062135e+00  -1.57070090e-01   6.10657480e-01
C     3.578859978687528e+00   1.770522829148523e+00   5.313291000414847e+00 -7.18935610e-01   5.86137780e-01   4.29704100e-01
C     5.332588164217134e+00   7.102909753921285e+00   5.305238721439363e+00 -5.18515060e-01  -5.51476610e-01   9.32388230e-01
C     4.419432801692410e+00   8.689509967042190e-01   4.397221753289731e+00  1.48673349e+00   1.52200167e+00   2.54660427e+00
C     6.280643251689690e+00   2.690462470221775e+00   4.397347785622784e+00 -1.24289464e+00  -1.11269436e+00   2.79199450e-01
C     4.515256044631438e+00   2.645237334913038e+00   6.230589720316317e+00 -1.70433831e+00   1.45499000e-01  -1.04931652e+00
C     6.217034740306466e+00   8.291514360444224e-01   6.253907194699798e+00 -1.50578384e+00   2.90994978e+00  -8.02835380e-01
C     3.729640071838980e-02   3.683210414317283e+00   3.477761646406424e+00  4.55457620e-01  -2.94797515e+00   2.96132924e+00
C     1.876480692385338e+00   5.382458511539590e+00   3.543413758208672e+00 -2.76207400e+00  -1.48091012e+00   1.11223750e+00
C     3.471824691834200e-03   5.400549731444395e+00   5.370036685179592e+00 -2.49768280e-01  -1.81627126e+00  -2.33963775e+00
C     1.783792334905955e+00   3.503753238295323e+00   5.294752163137660e+00 -5.22091950e-01   7.35408640e-01   1.36120190e-01
C     9.658630367359531e-01   4.496229427394068e+00   4.438595403054501e+00 -2.05569145e+00  -3.96396780e-01  -4.71958100e-01
C     2.669814208532104e+00   6.243714854010338e+00   4.506288271906725e+00  8.95904490e-01   4.68147570e-01  -1.94445725e+00
C     8.634682703374130e-01   6.193774062219718e+00   6.253417068960149e+00  6.48944830e-01   1.70862908e+00   8.76363930e-01
C     2.624942503996033e+00   4.428094130317975e+00   6.173652747898867e+00  1.90858112e+00  -1.28503297e+00   1.31236404e+00
C     3.540882235661011e+00   3.558870596690506e+00   3.470156487213738e+00  1.27519381e+00  -1.85326413e+00   3.66274170e+00
C     5.279494147236510e+00   5.310813288626419e+00   3.510507092795037e+00  3.43188220e-01   1.54158982e+00   2.66469856e+00
C     3.534296282103582e+00   5.285902958902248e+00   5.347683823745645e+00  1.51458026e+00   9.39431140e-01  -7.66747940e-01
C     5.390023365976020e+00   3.498667161910713e+00   5.299982540501457e+00 -8.11668850e-01   1.67834974e+00   3.86593110e-01
C     4.470463741176032e+00   4.359676771032321e+00   4.445491568175068e+00 -1.86715520e+00   2.06754226e+00  -1.05049631e+00
C     6.209137780365229e+00   6.255751759285462e+00   4.449594407542880e+00  4.57320760e-01  -1.45946202e+00  -1.39719397e+00
C     4.480576538616376e+00   6.178557061917084e+00   6.224599239321765e+00 -1.63543442e+00   5.63108280e-01  -7.53853890e-01
C     6.197183474960949e+00   4.491963591895580e+00   6.177598348958324e+00  2.06138298e+00  -2.73585440e+00   8.60228020e-01
