64
Lattice="7.10842262195238 0 0 0 7.10842262195238 0 0 0 7.10842262195238 " PBC="1 1 1" Properties=species:S:1:pos:R:3:force:R:3 Energy="-512.85751146"
C     4.253232265182940e-02   6.509992953312681e-02   7.099671369828291e+00 -1.90930837e+00  -1.87395090e+00  -5.36362410e-01
C     1.821048004362733e+00   1.750427744907140e+00   7.095620706282511e+00 -9.43834650e-01   2.09166442e+00   9.53931880e-01
C     7.106156952458327e+00   1.823102054163008e+00   1.750467694242264e+00  4.05802000e-03  -1.43660161e+00   3.06359620e-01
C     1.785618630845486e+00   7.081860363943168e+00   1.791529852927826e+00 -3.91911680e-01   2.10767179e+00  -1.87961311e+00
C     8.896114848807966e-01   9.402120093747783e-01   8.593540574934093e-01  7.21558360e-01  -1.28147220e+00   1.06926019e+00
C     2.682044107481362e+00   2.680780585360657e+00   9.264699356815682e-01 -1.35430140e-01  -4.48630050e-01  -1.72857869e+00
C     8.822388421920112e-01   2.657230381220597e+00   2.659478988547981e+00 -5.33214890e-01   8.02886600e-01   8.01760200e-01
C     2.655105460446800e+00   9.038899601449121e-01   2.619097745665190e+00  1.18176000e-03  -1.18872278e+00   2.73909670e+00
C     3.547828728413728e+00   7.077582799547356e+00   7.079282849901156e+00  1.76806480e-01   6.89889960e-01   1.25857648e+00
C     5.269791647949792e+00   1.753016277004213e+00   7.092019010709409e+00  1.23242594e+00  -3.88764020e-01   1.73523217e+00
C     3.555884774853200e+00   1.734473103589228e+00   1.762479933290898e+00 -8.54030200e-02   1.55490368e+00   2.01812250e-01
C     5.353239482528532e+00   7.090615168326186e+00   1.818115637863530e+00 -1.18641520e-01   8.02975680e-01  -1.75442956e+00
C     4.422223994918379e+00   8.106241854961067e-01   9.086867948131142e-01  4.56862100e-01   2.08418011e+00  -7.78014370e-01
C     6.210911900482728e+00   2.638317783082051e+00   8.535561436676327e-01 -3.41761960e-01   9.35506440e-01  -4.07572000e-03
C     4.431849012398537e+00   2.661412408416395e+00   2.634594178061016e+00  6.77972790e-01  -7.34236770e-01   8.06244340e-01
C     6.235319238222308e+00   9.143173052861900e-01   2.653462917231997e+00 -4.24912600e-02  -7.56582180e-01   2.58612000e-02
C     6.315975666322400e-03   3.516114216557694e+00   7.081843659150010e+00  5.56122580e-01   1.00047938e+00   3.70358450e-01
C     1.795015112538412e+00   5.313981868009285e+00   8.951110582092119e-02 -1.32337596e+00   1.04140719e+00  -3.10342995e+00
C     3.677115937099800e-03   5.303797559837385e+00   1.800466917266820e+00 -3.80062490e-01   6.12928490e-01  -1.64794593e+00
C     1.761520082984519e+00   3.560277780032360e+00   1.797819527430454e+00  1.12761767e+00  -1.61857835e+00  -1.96559000e-02
C     8.935416606631683e-01   4.378497528350616e+00   8.979411345069125e-01 -7.26465360e-01   1.97409604e+00   4.57392050e-01
C     2.684214522159926e+00   6.261839554585682e+00   8.870923309884947e-01 -5.83860460e-01  -2.32012804e+00   1.03116094e+00
C     8.936277436610965e-01   6.208957866188717e+00   2.612946898656331e+00  6.33218000e-02  -8.10225400e-02   1.99541761e+00
C     2.683151528641332e+00   4.411419832294015e+00   2.671349698902250e+00 -6.24958440e-01   2.17041518e+00  -5.87624940e-01
C     3.553604890466288e+00   3.621523736073602e+00   4.981724740548400e-03 -7.24115720e-01  -1.47074867e+00   5.10270690e-01
C     5.339366258437983e+00   5.331519128539313e+00   4.422931638390200e-03  5.63783360e-01   1.17454497e+00  -5.83128000e-01
C     3.568164290592346e+00   5.361907421987135e+00   1.813362377825988e+00  4.12790510e-01  -5.84724110e-01  -1.17472954e+00
C     5.341714739103179e+00   3.549400898244593e+00   1.732422679084490e+00 -5.06709470e-01  -1.70009590e-01   1.31232589e+00
C     4.456919708137016e+00   4.472007974906002e+00   8.901761779737294e-01 -1.21156200e-01   2.09291400e-02   1.32099410e-01
C     6.232378341615962e+00   6.283772805832371e+00   8.615570998317998e-01  5.82838350e-01  -2.48156440e+00   1.31434366e+00
C     4.481596312925441e+00   6.228947034933062e+00   2.686943587772197e+00 -1.33080654e+00  -6.15365500e-01   4.44869180e-01
C     6.203610697441274e+00   4.425899831339406e+00   2.696415418744895e+00  3.37461660e-01   5.32124730e-01  -1.80092743e+00
C     4.642795150026800e-03   2.159197587670240e-02   3.520059746532924e+00  9.98908100e-02  -1.10670105e+00   1.06840514e+00
C     1.766635232817645e+00   1.756821984306508e+00   3.560695968535095e+00 -7.22594000e-03   1.52078464e+00  -5.69134200e-01
C     7.091456165806358e+00   1.805770084878245e+00   5.361420779374568e+00  9.85668570e-01  -4.92538740e-01  -1.19589243e+00
C     1.799015021946685e+00   7.107630030877869e+00   5.313291000414847e+00 -1.26694029e+00  -1.20953628e+00   1.38486630e-01
C     8.906040339312271e-01   8.940533249233559e-01   4.448888896597844e+00 -4.77844650e-01  -3.78652770e-01  -2.08070660e-01
C     2.637176099325053e+00   2.706906668605526e+00   4.441682093408783e+00  1.67441922e+00  -1.08807894e+00  -1.66859840e-01
C     9.653940940957116e-01   2.683636038727111e+00   6.216457820726626e+00 -2.25802968e+00  -8.06586100e-01  -9.23455900e-02
C     2.637101603055995e+00   8.614536722826788e-01   6.237047011424325e+00  2.07315271e+00   4.08347930e-01  -1.48289570e+00
C     3.537537154144492e+00   1.071452541512600e-02   3.572877032620953e+00  9.31549060e-01  -7.26203990e-01  -1.05688805e+00
C     5.332474358370988e+00   1.719405664498519e+00   3.556910520237266e+00  1.03158020e-01   2.85783718e+00  -5.13302560e-01
C     3.546226845376311e+00   1.798834894517495e+00   5.353796996114619e+00 -5.42228690e-01  -6.44771220e-01  -7.61466740e-01
C     5.341979954351131e+00   3.338826104614000e-04   5.346362296896361e+00 -4.95615050e-01  -6.65692630e-01  -7.41860940e-01
C     4.465091977286325e+00   8.721335796796453e-01   4.428322168515624e+00 -1.51443084e+00   4.71727700e-01   1.40903418e+00
C     6.194181232667392e+00   2.680021334740615e+00   4.453738191424982e+00  1.75925170e-01  -1.28067925e+00   1.14788110e-01
C     4.395385007968950e+00   2.658098035285594e+00   6.274694497135917e+00  4.74987710e-01   7.14818090e-01  -1.49565281e+00
C     6.184917962814365e+00   8.923104818653844e-01   6.228575406598488e+00  1.33488641e+00   7.48936710e-01  -4.85880350e-01
C     7.068361540472013e+00   3.574320326749718e+00   3.562061851941528e+00  9.10491720e-01  -1.58887335e+00   3.54311480e-01
C     1.791732869477852e+00   5.323663397449272e+00   3.515639373926677e+00 -1.15518477e+00  -6.87508480e-01   1.02234144e+00
C     2.614875911302720e-02   5.323957828314192e+00   5.331063905154728e+00 -1.49464483e+00   9.27284500e-02  -5.03351910e-01
C     1.797507467677436e+00   3.600720724023494e+00   5.325148702355721e+00 -1.11805162e+00  -7.87535570e-01   1.99760290e-01
C     8.567185387228182e-01   4.420846027193492e+00   4.452314800879553e+00  1.21326449e+00   1.20036796e+00  -1.10331137e+00
C     2.658814066696107e+00   6.161175120421302e+00   4.416051253967850e+00  3.67922020e-01   2.86264553e+00   2.21893940e-01
C     8.859413351978643e-01   6.198516162033746e+00   6.183786586270165e+00  7.86996090e-01   1.51127759e+00   2.27003330e+00
C     2.625245393883871e+00   4.520767062520272e+00   6.214833617242182e+00  1.88709868e+00  -2.08226573e+00   9.59057150e-01
C     3.560953151265486e+00   3.587880353739630e+00   3.540676873331520e+00  2.70936000e-01  -1.94048615e+00   6.54541870e-01
C     5.338045513515187e+00   5.307852275184059e+00   3.556386558405946e+00 -4.36766810e-01   4.75545990e-01   1.05231019e+00
C     3.532786595307546e+00   5.345112351862860e+00   5.328822903839547e+00  1.18949400e+00  -1.40931760e-01   4.34238300e-02
C     5.296278910147985e+00   3.512472216228336e+00   5.360956883714388e+00  9.38660600e-01   1.51268443e+00  -4.65620870e-01
C     4.468465492493324e+00   4.436599500151257e+00   4.472228407091447e+00 -1.75863379e+00  -2.13929720e-01  -6.78521580e-01
C     6.190402039781469e+00   6.186637632414596e+00   4.450503077206394e+00  1.95038309e+00   1.40433760e+00  -5.37971620e-01
C     4.448232149431982e+00   6.229777156526625e+00   6.223859679032380e+00 -4.38371870e-01  -7.15213900e-01  -6.29506870e-01
C     6.235824220565233e+00   4.456682428989960e+00   6.195650188201815e+00 -5.02093910e-01  -1.35519715e+00   1.31949337e+00
