64
Lattice="7.10842262195238 0 0 0 7.10842262195238 0 0 0 7.10842262195238 " PBC="1 1 1" Properties=species:S:1:pos:R:3:force:R:3 Energy="-507.35191373"
C     7.086935706609621e+00   1.713215152491440e-02   4.128081376535220e-02 -8.53310070e-01  -1.06935965e+00  -1.94118621e+00
C     1.800464500403130e+00   1.789429882717425e+00   7.045405173957628e+00 -1.14445863e+00   4.32155620e-01   1.84509367e+00
C     4.950618283163279e-02   1.723051290123413e+00   1.781545860105357e+00 -8.88012190e-01   1.53010026e+00  -8.92581820e-01
C     1.850777915707490e+00   4.593434263353520e-02   1.732569468011593e+00 -3.49568248e+00  -1.55821200e+00  -1.43726354e+00
C     9.178043420024310e-01   8.964563271900470e-01   7.961367936911896e-01 -1.98338360e-01  -1.47842600e-01   3.04811822e+00
C     2.613070158704561e+00   2.630527804901245e+00   9.634333778844373e-01  2.01032400e+00   1.12133075e+00  -2.86670814e+00
C     9.204297668129018e-01   2.675510187577510e+00   2.648278957867909e+00 -9.67187200e-01  -1.35171939e+00   1.45249245e+00
C     2.679637266666456e+00   8.429076554986463e-01   2.596443558196381e+00 -1.69153372e+00   7.75476700e-01   3.80168926e+00
C     3.581225448482786e+00   2.250029011908600e-02   5.040418986121740e-02  6.67488140e-01   7.73160040e-01  -1.46019208e+00
C     5.325465240414990e+00   1.824193054866725e+00   4.609755201689040e-02 -3.67211500e-01  -1.35479570e+00   1.14723776e+00
C     3.501364950463455e+00   1.726427506531008e+00   1.838844722318391e+00  3.10977202e+00   2.66513522e+00  -2.54537006e+00
C     5.317866265549983e+00   7.041000724218049e+00   1.784447518218841e+00 -3.54429550e-01   1.52902235e+00   7.81161230e-01
C     4.471815763158356e+00   8.634473715749101e-01   9.654403699269680e-01 -1.12696391e+00   1.27331774e+00  -1.49998641e+00
C     6.258457651439992e+00   2.651030272842980e+00   9.464998356875256e-01  4.79838570e-01   4.11360990e-01  -1.93504835e+00
C     4.424077089611187e+00   2.689456415168367e+00   2.641902489525091e+00  1.02177712e+00  -9.72014820e-01   6.95752650e-01
C     6.223588848130557e+00   8.018280100934402e-01   2.626959092409101e+00  1.20616192e+00   1.64598333e+00   1.03668681e+00
C     9.366270896790600e-03   3.573653130202605e+00   7.106977762018258e+00  1.02321030e-01  -1.47404598e+00  -5.04701200e-02
C     1.813715808598655e+00   5.214455634474819e+00   7.101230531245762e+00 -6.64419560e-01   6.41095302e+00   3.61278330e-01
C     2.376118212342160e-02   5.309511309939341e+00   1.738307031329325e+00  4.16593440e-01   2.06404157e+00   3.85461900e-01
C     1.779319359972320e+00   3.549726392916364e+00   1.803863463763109e+00 -9.19878280e-01   8.55757890e-01  -5.31784630e-01
C     9.216898768907492e-01   4.486769040981788e+00   8.651930580019298e-01 -9.69962560e-01  -3.84227721e+00   7.43383530e-01
C     2.676659903852069e+00   6.334610325136503e+00   8.551215604970089e-01  3.12983460e-01  -5.44824886e+00   1.10361468e+00
C     9.812729596284939e-01   6.217569720192846e+00   2.618037808768322e+00 -3.23583390e+00   2.55408469e+00  -2.93751020e-01
C     2.566680237265310e+00   4.508903389504397e+00   2.690927289976897e+00  4.13053908e+00  -1.19695569e+00  -6.89699150e-01
C     3.589352010474649e+00   3.551336237387115e+00   3.138048707712100e-02 -1.23465632e+00  -2.43387550e-01  -1.72151120e-01
C     5.271347610577084e+00   5.259251989731118e+00   4.895321863602300e-02  3.51038940e-01   1.56359119e+00  -2.29891723e+00
C     3.549712886913385e+00   5.339173904521886e+00   1.827219252544512e+00 -8.21031360e-01   2.77792390e-01  -1.32950015e+00
C     5.430248365729623e+00   3.563727497529846e+00   1.767065150217702e+00 -3.35425742e+00  -1.21874684e+00   1.45436053e+00
C     4.430121665701877e+00   4.374107437624730e+00   9.501792974040899e-01  8.87767260e-01   2.35495873e+00  -3.95919210e-01
C     6.140480653984602e+00   6.206567445830062e+00   8.732763297000365e-01  2.59431388e+00  -9.62691750e-01   8.57712990e-01
C     4.394222070028317e+00   6.242632170161086e+00   2.730537695510776e+00  1.45884254e+00  -2.10554549e+00  -2.72259109e+00
C     6.266344446336881e+00   4.465770902730761e+00   2.659231899777711e+00 -9.57622630e-01   5.36804640e-01  -1.93066590e+00
C     7.106751287673585e+00   7.068403053660115e+00   3.528377738345943e+00  1.07553980e-01  -7.21342450e-01   1.10114062e+00
C     1.774455492878812e+00   1.645618958186848e+00   3.531728293347880e+00 -2.83760510e-01   4.42101047e+00   1.53390871e+00
C     7.017409504479472e+00   1.824939581410278e+00   5.348578560900824e+00  2.59856387e+00  -2.34459946e+00  -1.38816666e+00
C     1.897124831189890e+00   7.100243384596523e+00   5.367127918643488e+00 -4.66519815e+00   8.82181900e-01   1.63907594e+00
C     8.643654243562832e-01   8.195965786955232e-01   4.493792873372610e+00  6.59854610e-01   1.05355070e+00  -1.28014651e+00
C     2.696723497781246e+00   2.692255143322313e+00   4.481867285995715e+00 -2.05473754e+00  -9.38052890e-01  -1.81328408e+00
C     8.598800096830631e-01   2.621176035186600e+00   6.173267400308637e+00  7.06963200e-01   3.46903272e+00   6.68548550e-01
C     2.779821171461724e+00   9.797605716318629e-01   6.277671149108041e+00 -3.02740425e+00  -3.55319623e+00  -1.09968267e+00
C     3.500306008745754e+00   1.354872459794620e-02   3.505287022644040e+00  2.20306978e+00  -4.00448200e-02   3.14162255e+00
C     5.381049408923627e+00   1.739760419418211e+00   3.519032295127429e+00 -1.88060106e+00   1.87180989e+00  -6.27603280e-01
C     3.536538207513704e+00   1.800674198870419e+00   5.384225878655601e+00  3.02982464e+00   1.83531161e+00  -2.07987248e+00
C     5.286149336830258e+00   7.078935176950811e+00   5.276513585631943e+00 -1.14496313e+00   1.03948714e+00   2.49858426e+00
C     4.400348179726461e+00   9.396594006002996e-01   4.387541503365815e+00  9.97462690e-01  -1.49733057e+00   1.61988525e+00
C     6.248413379193705e+00   2.723104773398173e+00   4.341452268203390e+00  9.11428600e-02  -2.60870481e+00   2.03508566e+00
C     4.484418285621355e+00   2.706208763672695e+00   6.256784755260600e+00 -9.31223840e-01  -2.09438513e+00  -6.36062090e-01
C     6.126838453629202e+00   9.357105296664372e-01   6.283143994767406e+00  2.10838045e+00  -1.64434351e+00  -2.90508308e+00
C     2.731560668610020e-02   3.676910859107212e+00   3.517939090812700e+00  6.83962120e-01  -3.51223897e+00   8.73364810e-01
C     1.830268481511587e+00   5.482922203849180e+00   3.527434379580043e+00 -2.19557560e+00  -4.32640012e+00   2.27426453e+00
C     7.102790474589722e+00   5.315440658499361e+00   5.377124706626673e+00 -1.63463287e+00   1.25823555e+00  -1.74052452e+00
C     1.741674291124420e+00   3.605556015258070e+00   5.276964046373373e+00  1.30310450e+00  -1.33676687e+00   8.16448540e-01
C     8.851275629763268e-01   4.551142631891604e+00   4.408773935226399e+00  4.92699930e-01  -1.26812366e+00   7.91390780e-01
C     2.684622758870993e+00   6.214666995815969e+00   4.524231920957939e+00 -4.06340000e-03   2.23309908e+00  -3.91359464e+00
C     8.436170049918962e-01   6.169695346857861e+00   6.280173953628317e+00  2.10627622e+00   1.24102276e+00  -1.08894392e+00
C     2.715897685872207e+00   4.488629883855253e+00   6.205850845745741e+00 -2.30228754e+00  -3.58989891e+00   7.33721730e-01
C     3.531745140309490e+00   3.611228820845734e+00   3.535423251425756e+00 -9.63187960e-01  -2.92644861e+00  -2.30526720e-01
C     5.322091654123764e+00   5.308551317464509e+00   3.482426762003477e+00 -8.61654500e-01  -7.20779000e-03   3.20295914e+00
C     3.508453896005477e+00   5.348966112102067e+00   5.335306780448153e+00  2.90457286e+00  -1.78627058e+00   8.98258300e-02
C     5.364118354674632e+00   3.444038081065298e+00   5.275297263437435e+00 -1.87384138e+00   4.57730548e+00   8.10293040e-01
C     4.410904187317160e+00   4.354231008463138e+00   4.385147315543174e+00  1.91068195e+00   3.49286173e+00   1.96999694e+00
C     6.131290316547656e+00   6.171426745355414e+00   4.432307932162884e+00  2.98094817e+00   7.23728630e-01   2.09897700e-02
C     4.358812813347085e+00   6.174078968919162e+00   6.266653307299720e+00  2.63615666e+00   1.21110301e+00  -1.41218856e+00
C     6.183418938652259e+00   4.423842724917406e+00   6.200461524052161e+00  8.09154640e-01  -9.48452470e-01   6.72431750e-01
