64
Lattice="7.10842262195238 0 0 0 7.10842262195238 0 0 0 7.10842262195238 " PBC="1 1 1" Properties=species:S:1:pos:R:3:force:R:3 Energy="-501.65002716"
C     1.564983215596580e-02   1.373027371166100e-02   7.034348662330254e+00  7.58054780e-01  -2.04862422e+00   3.85036152e+00
C     1.793246039400972e+00   1.768606398410171e+00   1.292578509006512e-01  6.56011300e-01   2.46763317e+00  -3.24074903e+00
C     7.099106250230002e+00   1.955126218810458e+00   1.755695370405465e+00 -3.41909330e-01  -5.22823460e+00  -5.45756070e-01
C     1.700045235734914e+00   7.062878174347171e+00   1.821224435412161e+00  1.17293050e+00   1.04534067e+00  -2.62713901e+00
C     8.876128807769574e-01   9.569839771255374e-01   9.136560087298514e-01 -2.21970256e+00  -1.91482588e+00   7.84912940e-01
C     2.766163332576561e+00   2.758184128185611e+00   9.179360610735796e-01 -2.24975019e+00  -1.22640771e+00  -3.27315240e-01
C     1.007668665343340e+00   2.639841828891779e+00   2.670806117824499e+00 -4.75699942e+00   2.21240263e+00   1.26318010e-01
C     2.633558054379925e+00   9.407665374233647e-01   2.549191527261777e+00  2.11961177e+00  -2.21818094e+00   3.63470587e+00
C     3.479732101156688e+00   7.035654124144417e+00   7.424313812810179e-02  5.73438330e-01   2.24155609e+00  -1.30087313e+00
C     5.267819131756969e+00   1.641146125421665e+00   7.099116059853217e+00  4.26090690e-01   4.50799620e+00   5.38831760e-01
C     3.613454965557640e+00   1.791688228583799e+00   1.758630580273715e+00 -1.17074217e+00   7.97644800e-01  -6.69206430e-01
C     5.389537078784586e+00   7.057260885540169e+00   1.842188311066160e+00 -4.07939350e-01   2.49663477e+00  -2.72959576e+00
C     4.438826426789650e+00   9.090292075307196e-01   9.101245443722353e-01 -9.89111810e-01  -4.67231565e+00   8.49861870e-01
C     6.103245101363838e+00   2.636919343100019e+00   7.521584757099998e-01  4.51482391e+00   2.20001845e+00   1.98205025e+00
C     4.490316286037621e+00   2.614444501133912e+00   2.649339036933230e+00 -1.14093330e+00   3.10901901e+00  -1.72813750e+00
C     6.183412754324579e+00   9.604272970426654e-01   2.705397337230622e+00  1.90304519e+00  -6.42006660e-01  -1.61077207e+00
C     7.088103407193409e+00   3.526632265171603e+00   6.947957016691894e+00  1.09485306e+00   3.94377100e-02   3.95832874e+00
C     1.792890476101520e+00   5.258332728517900e+00   8.583526939989300e-02 -3.42222990e+00   2.84057533e+00  -8.93903520e-01
C     7.042195507892020e+00   5.301361858826642e+00   1.823789509714588e+00  2.02795350e-01  -1.07761908e+00  -2.53714590e+00
C     1.880041941033732e+00   3.556783848146178e+00   1.917614575055135e+00 -1.56880026e+00  -1.20153468e+00  -5.69141375e+00
C     8.690094990223816e-01   4.406829568387150e+00   9.239480095044446e-01 -4.87980600e-02  -8.21147630e-01   7.02810630e-01
C     2.601176772482134e+00   6.162174777894354e+00   9.190926725180798e-01  2.28689001e+00   9.23764280e-01   2.34337026e+00
C     7.742787495558205e-01   6.148165640763310e+00   2.614545227482438e+00  2.33799459e+00   3.71178806e+00   1.51777475e+00
C     2.806643098196865e+00   4.334358844355119e+00   2.672143283203547e+00 -2.72283510e+00   7.14838706e+00  -1.00094339e+00
C     3.508185624135798e+00   3.726207059134651e+00   7.048254869501760e+00  2.37583311e+00  -4.56418518e+00   2.68347595e+00
C     5.353641605996145e+00   5.302476957083041e+00   7.081077086854670e+00  9.16577440e-01   3.39378433e+00  -3.15891859e+00
C     3.671525944635658e+00   5.354870154677561e+00   1.811502885552823e+00 -2.70597978e+00  -1.08820870e+00  -1.24681892e+00
C     5.353343123330331e+00   3.620187708042172e+00   1.605249088780248e+00 -3.76142980e-01  -3.13181201e+00   4.74032543e+00
C     4.530388525789120e+00   4.527067826162187e+00   8.143480748540463e-01 -3.62687194e+00  -1.39974961e+00   1.56253375e+00
C     6.247660952659378e+00   6.196288026963507e+00   8.276138842317163e-01 -4.89900060e-01   5.29018380e-01   2.03820043e+00
C     4.550711648228153e+00   6.184977389227468e+00   2.687389356954697e+00 -3.04580606e+00   1.44774171e+00   1.27929801e+00
C     6.184726746245887e+00   4.397998206292514e+00   2.808412953260793e+00  1.37840679e+00  -8.14422900e-02  -6.27105784e+00
C     7.094246221684707e+00   7.384876284114419e-02   3.524247958056402e+00 -4.65308420e-01  -2.57196144e+00   9.60741850e-01
C     1.803655258064569e+00   1.739437483778584e+00   3.485970808269131e+00  1.85564900e-01   1.49557538e+00   2.42500110e+00
C     8.893766936816580e-02   1.806702354504858e+00   5.380062333358613e+00 -2.93585263e+00  -1.78411384e+00  -1.78971491e+00
C     1.789708817221034e+00   3.959391399340000e-05   5.264658513807437e+00 -3.10787273e+00  -2.40688570e-01   3.31937051e+00
C     8.943499593992886e-01   8.908926358895991e-01   4.409101633509181e+00  4.72536850e-01   2.89387310e-01   7.31267270e-01
C     2.732497274374431e+00   2.718033624701065e+00   4.419521159385576e+00 -8.70815530e-01  -1.80838552e+00  -3.20853400e-01
C     1.010067189303780e+00   2.697791822616805e+00   6.186760039452111e+00 -3.33340534e+00  -1.76709405e+00   1.95289713e+00
C     2.513505681856400e+00   8.104171882294124e-01   6.370945951453574e+00  4.41734425e+00   1.43193259e+00  -3.82614276e+00
C     3.576791569873560e+00   1.431123087554836e-01   3.558175250789817e+00 -1.21931962e+00  -5.12396435e+00  -9.42578730e-01
C     5.303366576173934e+00   1.837811015500990e+00   3.547776197170566e+00 -3.58569940e-01  -4.13809424e+00   9.22385530e-01
C     3.554242018385718e+00   1.814993902985731e+00   5.324735347580368e+00 -1.17642719e+00  -9.92898420e-01   2.05439597e+00
C     5.384148325764817e+00   6.974158733553440e-02   5.294759058307602e+00 -7.69776140e-01  -3.54600263e+00   2.95165368e+00
C     4.425480292236374e+00   8.410747487260793e-01   4.563150392633986e+00 -7.25489250e-01   4.33673714e+00  -4.45314054e+00
C     6.067540134301614e+00   2.567622743020496e+00   4.481457769768577e+00  6.45600479e+00   3.80068953e+00   1.35352260e+00
C     4.364903380932128e+00   2.658969385730354e+00   6.265748049679063e+00  1.10276696e+00   6.10030190e-01  -7.86221500e-01
C     6.235753633928616e+00   8.709680116226440e-01   6.310123799568937e+00  1.65337090e-01   5.41192500e-01  -5.09025319e+00
C     7.097334831313098e+00   3.483494873586359e+00   3.553160116462954e+00 -2.44292380e-01  -2.60666340e-01   1.83961350e+00
C     1.672671268899103e+00   5.325648424465907e+00   3.440535050398162e+00  3.47840682e+00  -1.47278489e+00   4.33826905e+00
C     4.344774531683300e-02   5.257109511153451e+00   5.354305745921532e+00 -8.41390090e-01   2.47869035e+00  -3.84218534e+00
C     1.790889881639347e+00   3.582767691854421e+00   5.345249188998295e+00  2.18644030e+00   1.32662010e-01  -1.78904450e+00
C     8.570989815014406e-01   4.336656286545903e+00   4.441179456845323e+00  7.92632840e-01   2.85999943e+00  -8.55224420e-01
C     2.571605307877578e+00   6.277771875456567e+00   4.381031894267324e+00  2.81078537e+00  -9.42667300e-01  -1.50730646e+00
C     8.718094356081734e-01   6.124881078376559e+00   6.216984768095447e+00  1.12488342e+00   2.63683875e+00   1.24125760e-01
C     2.606634263948640e+00   4.560716255476220e+00   6.251952236310847e+00  1.74408706e+00  -2.50139973e+00  -3.20564712e+00
C     3.651482751879401e+00   3.567203231854121e+00   3.463174807769053e+00  3.49159330e-01  -2.38387747e+00   5.83225598e+00
C     5.317082419787677e+00   5.267898461753408e+00   3.619210726437280e+00  1.57394634e+00   1.72071753e+00   8.78982800e-01
C     3.484312413271885e+00   5.444114268144874e+00   5.282901356366727e+00  4.37727370e-01  -2.73079662e+00   7.41742910e-01
C     5.307578956334320e+00   3.530771286410550e+00   5.435140666513612e+00 -5.86136750e-01  -1.22105090e+00  -3.92225306e+00
C     4.494785422423041e+00   4.403692976906075e+00   4.533131168488596e+00 -3.40132420e+00   1.86047043e+00  -2.47191584e+00
C     6.244164106319921e+00   6.218085009748570e+00   4.430561321640925e+00 -3.91423000e-02   6.71949620e-01   7.47270000e-01
C     4.351187395149933e+00   6.255007080931790e+00   6.196962047596336e+00  2.84277647e+00  -1.20254960e-01   6.28004470e-01
C     6.252749588076131e+00   4.436425414881294e+00   6.073184577283025e+00 -1.49705207e+00  -1.06966320e+00   5.95698291e+00
