64
Lattice="7.10842262195238 0 0 0 7.10842262195238 0 0 0 7.10842262195238 " PBC="1 1 1" Properties=species:S:1:pos:R:3:force:R:3 Energy="-510.35073803"
C     7.081620312511290e+00   3.723988875856080e-02   2.137154369125620e-02  4.69254720e-01  -2.36831647e+00  -5.76939850e-01
C     1.722191526407524e+00   1.764147427069097e+00   6.986298142282744e+00  1.66852030e+00   8.30517910e-01   3.93949438e+00
C     2.350954396267360e-02   1.725460974307366e+00   1.799482827239308e+00 -4.29309100e-02   6.54518320e-01  -6.40204720e-01
C     1.819491615230084e+00   3.538103624343080e-02   1.722671131681695e+00 -8.65291010e-01  -1.15698161e+00  -1.66448680e-01
C     9.032388997171462e-01   8.698237688335027e-01   8.265481184282998e-01 -4.14964100e-01   1.55082204e+00   1.12656784e+00
C     2.641049052305334e+00   2.665717979997329e+00   9.334487006729794e-01  5.10966050e-01  -4.06012700e-01  -2.51995281e+00
C     9.327986354243805e-01   2.619967958762331e+00   2.681954683524802e+00 -2.14159317e+00   1.28094766e+00  -3.87123950e-01
C     2.683612509848239e+00   8.953630517910909e-01   2.633233199466191e+00 -1.43335933e+00  -8.34553930e-01   1.76700433e+00
C     3.651157825881441e+00   2.108813088139680e-02   7.042024265991103e+00 -1.86757809e+00  -6.50144930e-01   2.11067275e+00
C     5.369288736951516e+00   1.816659406405597e+00   2.200326920949560e-02 -1.37329139e+00  -1.80136316e+00  -4.49640000e-02
C     3.511518621333863e+00   1.760914018871938e+00   1.801553297495835e+00  2.30870870e+00   5.22572990e-01  -2.05563363e+00
C     5.371145101518729e+00   7.035879105720340e+00   1.785009510111178e+00 -2.37814194e+00   8.34494420e-01  -4.13517630e-01
C     4.487000988811879e+00   8.384462672938821e-01   8.751002798601024e-01 -2.67505050e-01   1.72335053e+00   5.87165430e-01
C     6.188619318472599e+00   2.650268321022343e+00   1.007584928124876e+00  1.10230658e+00   1.11772879e+00  -2.72100603e+00
C     4.407725016384592e+00   2.670910540552787e+00   2.656272450188326e+00 -3.68955800e-01   4.79961680e-01  -4.28472340e-01
C     6.240944133041515e+00   7.946059948799725e-01   2.624862036651975e+00  3.99656930e-01   2.27747689e+00   3.72647540e-01
C     7.077132054469022e+00   3.526088755178077e+00   6.922338332653641e-02  9.91974900e-01   4.54663320e-01  -1.74480064e+00
C     1.727775903217796e+00   5.315693576176180e+00   7.086120015113976e+00  1.24085091e+00   1.81310294e+00   1.26113489e+00
C     3.951884905053279e-02   5.290766399490400e+00   1.818116135453113e+00 -2.16623080e-01  -9.43601200e-02  -1.23498334e+00
C     1.782336103448022e+00   3.543563461589049e+00   1.769497225932909e+00  2.67796650e-01  -9.12032880e-01   1.87318467e+00
C     9.810004227052431e-01   4.384284281952880e+00   8.641548017940526e-01 -4.49247175e+00   1.20204444e+00   1.74501129e+00
C     2.660832147877925e+00   6.243051567095666e+00   8.198199253342435e-01  8.46905390e-01  -9.37389590e-01   1.56418699e+00
C     9.479640285787931e-01   6.215090799972574e+00   2.638538926109759e+00 -4.45658200e-02  -2.96877720e-01  -6.32656300e-02
C     2.645229089142799e+00   4.392672647149836e+00   2.742805908857955e+00  1.74651330e-01   2.21900181e+00  -2.86118484e+00
C     3.516207194725563e+00   3.592885749527503e+00   3.503641991481320e-02  1.33128551e+00  -1.12152167e+00   2.25133280e-01
C     5.361222454383471e+00   5.288334181606741e+00   7.089602573523966e+00 -8.46985850e-01   2.69380214e+00   1.67302359e+00
C     3.519226710486087e+00   5.313667675729480e+00   1.799324096162203e+00  7.11953000e-01   1.01533393e+00  -5.36114340e-01
C     5.287724136777493e+00   3.626854128943661e+00   1.819613951183374e+00  2.99038270e-01  -3.06270990e+00  -2.11661930e-01
C     4.452509216238210e+00   4.481685097123965e+00   9.234895162454546e-01 -1.17940963e+00  -8.80127460e-01  -1.27088163e+00
C     6.217575264762490e+00   6.165925750342475e+00   9.306649002065349e-01  1.34340520e+00   3.16406350e-01  -1.35138403e+00
C     4.405449254882798e+00   6.211620823470621e+00   2.682983627699047e+00  4.65254180e-01  -3.74473930e-01  -1.31717320e-01
C     6.161665530497856e+00   4.414871682318287e+00   2.733716368853761e+00  2.74409193e+00   1.23738295e+00  -1.90023652e+00
C     1.606354235244980e-02   7.033834225785244e+00   3.487878779984565e+00  4.13701600e-01   1.24750628e+00   1.72259508e+00
C     1.765677941543409e+00   1.744785718789420e+00   3.571790439139260e+00  3.26763430e-01  -1.20100500e-02  -4.72975170e-01
C     7.007755840056156e+00   1.761089170405295e+00   5.258116277049121e+00  3.69649209e+00   8.14522450e-01   4.68176100e-01
C     1.781424021741650e+00   3.767577723361920e-02   5.339277616407911e+00 -5.82205700e-01  -5.07533970e-01   1.51231488e+00
C     8.600967454887470e-01   8.312592255197048e-01   4.407433428888718e+00  2.82201220e-01   1.58461165e+00   2.67060520e-01
C     2.638051003981122e+00   2.634443052996115e+00   4.463212723598275e+00 -5.75646070e-01   6.03869220e-01   9.16921300e-01
C     8.104996459318043e-01   2.667783190021118e+00   6.163248576215331e+00  4.21812060e-01  -7.76165400e-01   1.12737186e+00
C     2.745666124867565e+00   9.376667675714612e-01   6.238840395367125e+00 -2.25602067e+00  -9.76718810e-01  -2.00683289e+00
C     3.534709423626256e+00   2.981770036411400e-02   3.571434520418677e+00  1.12495582e+00  -4.32146140e-01  -5.32153920e-01
C     5.357996510030063e+00   1.809852238736233e+00   3.426665309434697e+00 -5.64939350e-01  -7.30072710e-01   2.67838423e+00
C     3.558639999460712e+00   1.808861111370326e+00   5.337740704353241e+00  1.34262127e+00  -4.37207060e-01  -1.00806468e+00
C     5.380417043647352e+00   3.931433973175540e-02   5.191974821433711e+00 -1.30752226e+00  -3.93163150e-01   4.03682951e+00
C     4.463314729462872e+00   9.306157099220046e-01   4.344330681774907e+00  2.10785530e-01   3.71497660e-01   1.86312274e+00
C     6.232996916552354e+00   2.736535782517532e+00   4.379913099631163e+00 -1.55960411e+00  -3.20134209e+00   1.36003101e+00
C     4.460737357589313e+00   2.680281503008507e+00   6.211581371725080e+00 -6.86889800e-01   7.98765200e-02   1.45549995e+00
C     6.260070907953600e+00   8.850103450873230e-01   6.192119434686460e+00 -2.62503055e+00   1.18522286e+00  -2.24239000e-02
C     1.701863001567300e-02   3.581276842378328e+00   3.572647146233423e+00  3.54151060e-01  -2.85847420e-01  -8.60753510e-01
C     1.863316249114229e+00   5.396559134069753e+00   3.569666940049987e+00 -2.29779232e+00  -1.55325489e+00   1.10390753e+00
C     7.093941412522762e+00   5.351457329893472e+00   5.360542391591416e+00  4.84856040e-01   5.34141350e-01  -1.19951905e+00
C     1.739084763848180e+00   3.552835688054577e+00   5.381965044841309e+00  3.70746640e-01   8.41290720e-01  -2.19148418e+00
C     9.030545072343834e-01   4.486984994860984e+00   4.427110537880045e+00  9.45769700e-02   1.05582100e-02   1.47087297e+00
C     2.696028649470140e+00   6.288315940897265e+00   4.567226646501199e+00 -2.09900970e-01  -1.47677300e+00  -3.57682010e+00
C     8.388224450189324e-01   6.243538707297814e+00   6.268352788979710e+00  1.15041491e+00  -3.56659500e-01  -1.49704562e+00
C     2.624345041074822e+00   4.476548479854527e+00   6.278076329197382e+00  9.97102100e-01  -1.25776532e+00  -1.64745425e+00
C     3.462234079119522e+00   3.516610597709248e+00   3.581215070185761e+00  2.89332606e+00   3.09367130e-01   6.90066450e-01
C     5.303136405449497e+00   5.302102840800550e+00   3.545362958775303e+00 -7.24691140e-01   1.18081714e+00   1.96949452e+00
C     3.554470269836046e+00   5.355241427591003e+00   5.413441922129158e+00  1.33372110e-01  -2.89399940e-01  -1.49143057e+00
C     5.329510359391127e+00   3.522195756446008e+00   5.350039910423044e+00 -1.40954340e-01   2.61800225e+00  -1.53486024e+00
C     4.379763893840368e+00   4.447206119711011e+00   4.460139468162745e+00  8.49754320e-01  -7.01521120e-01   6.27386210e-01
C     6.236348253480779e+00   6.238038138790231e+00   4.428831558080573e+00 -1.14233340e-01  -2.02547081e+00  -1.33025870e+00
C     4.516317616465509e+00   6.227703416395692e+00   6.214162937567985e+00 -6.70216000e-01   4.76013400e-02  -1.28400281e+00
C     6.219733310785696e+00   4.488307232552530e+00   6.223057991129296e+00  2.06338730e-01  -3.33692605e+00   4.32599320e-01
