64
Lattice="7.10842262195238 0 0 0 7.10842262195238 0 0 0 7.10842262195238 " PBC="1 1 1" Properties=species:S:1:pos:R:3:force:R:3 Energy="-512.58242783"
C     7.076660055207054e+00   7.090490202256526e+00   7.090082889640399e+00  8.60269410e-01   5.94651530e-01   1.32866310e+00
C     1.758497794939174e+00   1.755709658334931e+00   6.965152362093900e-02 -3.05684670e-01  -5.36682900e-02  -2.70223083e+00
C     7.104258292776525e+00   1.794153642801093e+00   1.800854894973420e+00  4.57353690e-01  -3.94709900e-01  -3.09539180e-01
C     1.798840439087138e+00   7.081168785506468e+00   1.709613030412981e+00 -5.56103270e-01  -4.95695000e-02   3.66293321e+00
C     8.573526811047484e-01   8.497284002552150e-01   9.397025487256030e-01  5.80145670e-01   8.28457180e-01  -1.78752719e+00
C     2.668145648490512e+00   2.650507519443506e+00   8.389697315356188e-01  1.08381900e-02   3.84550730e-01   1.92092829e+00
C     9.103155476880348e-01   2.653493909954620e+00   2.668383496311377e+00  6.53759070e-01   5.92370940e-01  -5.86196490e-01
C     2.653141616529573e+00   8.527354051919274e-01   2.666633260493880e+00  1.23004494e+00   1.00168686e+00  -1.46505586e+00
C     3.543436860582188e+00   5.146121230481140e-02   1.244293837517900e-02  8.16450430e-01  -1.14237728e+00  -1.16520571e+00
C     5.363743669718333e+00   1.758584446610911e+00   6.782714695551599e-02 -1.20799850e-01   1.80245369e+00  -2.83570597e+00
C     3.547999757061965e+00   1.794786861088083e+00   1.747141592214140e+00  2.55959260e-01  -7.58478930e-01   1.08027505e+00
C     5.292987781559150e+00   5.698182656418200e-03   1.766117952903587e+00  1.31486181e+00  -2.13789760e-01   9.35855850e-01
C     4.461318755475403e+00   9.082339882922202e-01   8.638310842279378e-01 -9.59800490e-01  -5.40751890e-01   1.66427353e+00
C     6.238858308592127e+00   2.690439083511356e+00   8.984494578084687e-01 -5.10839090e-01  -6.70179980e-01   8.78169450e-01
C     4.419107449189092e+00   2.655070487007510e+00   2.691584463648117e+00  6.14185200e-02   1.07429517e+00  -8.73133580e-01
C     6.220780452521848e+00   9.381126789224139e-01   2.663396582422316e+00 -8.10149070e-01  -2.30638150e+00   1.24928800e-02
C     9.311038453033198e-03   3.556488919691674e+00   7.102929799673074e+00 -9.11543690e-01   3.62515600e-01   7.64966700e-01
C     1.803132149243963e+00   5.361282022965026e+00   7.072024937153456e+00 -3.70248380e-01  -1.79763029e+00   1.22977207e+00
C     5.156734105452800e-03   5.366679306091941e+00   1.766521711308403e+00  5.85272280e-01  -1.13575565e+00   1.23754677e+00
C     1.806124439745852e+00   3.529508332963654e+00   1.760302694526618e+00 -1.29430100e+00   1.58425652e+00   1.92271480e-01
C     8.526734197466810e-01   4.454014069306864e+00   9.026717186762965e-01  2.15798449e+00  -1.06806410e-01  -1.18086341e+00
C     2.712231943411299e+00   6.228388312915129e+00   8.676094241031465e-01 -2.14480502e+00   6.90129600e-01  -9.27188070e-01
C     9.355359468068899e-01   6.195248775576463e+00   2.686979485306428e+00 -1.65605698e+00   1.05886071e+00  -8.66849170e-01
C     2.628974401306097e+00   4.509472631987807e+00   2.651220352063839e+00  7.76211280e-01  -2.87540066e+00   6.29697590e-01
C     3.554509223992004e+00   3.525981773417646e+00   7.073467520439960e+00  4.56270670e-01   2.41433200e-02   4.40581470e-01
C     5.281720291948415e+00   5.352079814462305e+00   2.434862216873840e-02  1.07979534e+00  -1.80586651e+00  -2.46660860e-01
C     3.513851108048164e+00   5.355070683279671e+00   1.737322728049134e+00  7.45328250e-01  -1.50237184e+00   1.41747877e+00
C     5.337080474060296e+00   3.552576514965852e+00   1.817240519954782e+00 -2.32077370e-01   7.46557010e-01  -1.04870597e+00
C     4.383424233900086e+00   4.411302756573463e+00   8.887442573211566e-01  1.68012340e+00   8.32372780e-01   2.58470510e-01
C     6.219439804015717e+00   6.196663280593617e+00   9.399699675845675e-01 -1.43241852e+00   1.62867288e+00  -2.57510254e+00
C     4.389057232321078e+00   6.179495160450245e+00   2.654883961997961e+00  1.59725422e+00   1.90254780e+00  -5.22447580e-01
C     6.266784244444381e+00   4.505274468672661e+00   2.658066900394519e+00 -1.64881883e+00  -2.15973415e+00   6.10684240e-01
C     2.841307605440200e-03   7.094698033026435e+00   3.571081871572499e+00  4.11984200e-02   1.12128824e+00  -1.13024046e+00
C     1.796156014368921e+00   1.765245891616566e+00   3.513455737582039e+00 -2.78679240e-01  -4.06594550e-01   1.82046451e+00
C     7.108162878237465e+00   1.817950367037615e+00   5.337101301738572e+00 -6.37957550e-01  -1.66765968e+00  -2.36797220e-01
C     1.772077583343969e+00   7.085120855230508e+00   5.344212780980299e+00  5.16602570e-01   2.15217499e+00  -2.60376620e-01
C     8.866121570405138e-01   8.888764739818885e-01   4.437843758446662e+00  2.16431850e-01   8.00895600e-02   6.72210180e-01
C     2.679262439541704e+00   2.662813194177893e+00   4.457598420328774e+00 -7.48450220e-01  -2.38040180e-01  -3.60125010e-01
C     8.596620654455339e-01   2.653040392591464e+00   6.269631878545953e+00  1.29082842e+00   2.30544990e-01  -1.23549928e+00
C     2.680283990956424e+00   9.010010261079179e-01   6.221092938780223e+00 -1.46085516e+00  -4.26804700e-02   7.66576450e-01
C     3.577672729941536e+00   7.084714751046228e+00   3.545625899328016e+00 -1.49749073e+00   7.96022060e-01   6.84521930e-01
C     5.314784408923082e+00   1.781918270366419e+00   3.510300024444116e+00  5.40946560e-01  -6.24712010e-01   2.47965006e+00
C     3.575783382293367e+00   1.771702827303443e+00   5.344647532107738e+00  1.39109360e-01  -8.78790300e-02  -7.98057800e-02
C     5.323795898446908e+00   7.059774708115506e+00   5.344980917128616e+00  4.46623180e-01   1.95250325e+00   1.63270610e-01
C     4.463158770670590e+00   8.486777043077528e-01   4.483913516531109e+00 -3.71356350e-01   8.97425920e-01  -2.16474054e+00
C     6.216674201111179e+00   2.659370585103027e+00   4.398056068852640e+00  8.88170070e-01   1.28374665e+00   4.30319720e-01
C     4.503325054853351e+00   2.657091056137245e+00   6.218786255640033e+00 -1.17875803e+00   2.85645700e-01  -3.35335650e-01
C     6.208448334455315e+00   9.263778105244129e-01   6.234906665373443e+00  5.62296480e-01  -2.15437660e+00  -3.47023000e-01
C     8.487712511494321e-02   3.573934765906809e+00   3.553448931674005e+00 -2.91315293e+00  -6.85489890e-01  -8.62536340e-01
C     1.755675751159034e+00   5.306848708078567e+00   3.598178538841903e+00  1.49806342e+00   1.63820119e+00  -1.24903395e+00
C     7.090988289429509e+00   5.330572855320138e+00   5.283011252580432e+00  8.99084830e-01  -6.95767380e-01   2.10145041e+00
C     1.746764134973018e+00   3.535169480738222e+00   5.337016427172490e+00  1.37208280e+00  -1.74308150e-01   7.84313700e-01
C     8.969943636981547e-01   4.429649026681873e+00   4.448243949413532e+00  4.63710600e-02   1.53863280e-01   6.43975150e-01
C     2.679280423850932e+00   6.264183556944627e+00   4.465430124950358e+00 -4.72649300e-01  -2.49222945e+00  -3.50056540e-01
C     9.038838469014587e-01   6.226068265940414e+00   6.230855646406532e+00 -1.07491495e+00  -3.67256170e-01  -1.25787814e+00
C     2.689833801325263e+00   4.401001301596786e+00   6.208159590328490e+00 -1.05460933e+00   1.53092785e+00  -5.17755110e-01
C     3.536339527101475e+00   3.577532622931696e+00   3.599334439444140e+00 -2.38559100e-02  -2.32353520e-01  -2.10682547e+00
C     5.282933841858100e+00   5.343913303135318e+00   3.534042227079143e+00  2.01110950e+00  -4.41791570e-01  -3.39541460e-01
C     3.583908664769157e+00   5.340961033052780e+00   5.339975734593422e+00 -1.64877645e+00  -4.34457340e-01  -3.96470070e-01
C     5.361212929097160e+00   3.585835687057213e+00   5.264959697673848e+00 -6.04632070e-01  -1.55192538e+00   1.72107610e+00
C     4.431023724532356e+00   4.459805869889188e+00   4.410471142211150e+00  7.58767180e-01   7.51567000e-02   1.34737644e+00
C     6.219547852039541e+00   6.204935209828059e+00   4.421106266545610e+00 -1.01731374e+00   4.28818580e-01   5.93516650e-01
C     4.388941933706182e+00   6.233454485716403e+00   6.233520025372960e+00  2.34351943e+00  -2.90338960e-01   3.68562010e-01
C     6.234164617136141e+00   4.404227601371325e+00   6.209546799002784e+00 -9.75029580e-01   2.35711047e+00  -5.47303250e-01
