64
Lattice="7.10842262195238 0 0 0 7.10842262195238 0 0 0 7.10842262195238 " PBC="1 1 1" Properties=species:S:1:pos:R:3:force:R:3 Energy="-511.69320591"
C     7.078615937690947e+00   4.788510705314180e-02   7.104911983320660e+00  1.04815725e+00  -2.12878351e+00   5.54925610e-01
C     1.782537982650430e+00   1.805877706396712e+00   7.053458377028052e+00  2.16010060e-01   2.30069300e-02   2.23552217e+00
C     3.823194021940800e-03   1.790795695039632e+00   1.738513886427568e+00  7.49613820e-01  -2.40361510e-01   2.50444127e+00
C     1.772736036531260e+00   9.471262298888001e-03   1.789084057956962e+00 -5.60008720e-01   4.14979950e-01  -1.07559386e+00
C     9.099125001254809e-01   9.237049725350667e-01   9.048625345277803e-01 -1.04383440e+00  -4.08903710e-01  -1.87695493e+00
C     2.660714574567790e+00   2.669540392092782e+00   8.830193469956872e-01  5.51695450e-01  -6.25431570e-01  -2.41654600e-02
C     9.094835779045899e-01   2.694200576424955e+00   2.681490858948847e+00 -1.15712974e+00  -8.12812210e-01  -1.13973253e+00
C     2.597837022282580e+00   9.005443099545828e-01   2.663796999868500e+00  2.59439093e+00  -1.26020670e+00   1.57397916e+00
C     3.564658203303483e+00   1.477940580614680e-02   4.394405538416140e-02  2.77643000e-02  -7.57322500e-01  -1.07936992e+00
C     5.390224818673071e+00   1.797924518832551e+00   3.057353894129860e-02 -3.06106155e+00  -1.63535416e+00  -8.96065370e-01
C     3.560239536718665e+00   1.712253596163633e+00   1.798847618593984e+00 -2.26112290e-01   2.83262504e+00  -4.67135920e-01
C     5.306174900698417e+00   7.102512819602184e+00   1.838344431534395e+00  1.31189017e+00   3.78385320e-01  -2.33538945e+00
C     4.481075834221204e+00   9.051281762810898e-01   8.815534480829907e-01 -1.15653690e+00  -1.07180537e+00   1.66785153e+00
C     6.232351258525779e+00   2.615647459493895e+00   8.856390850680620e-01  1.30285071e+00   3.54802366e+00  -8.26163890e-01
C     4.469332364631833e+00   2.638036360630525e+00   2.703130390172877e+00 -7.45768210e-01   5.86775490e-01  -1.53547756e+00
C     6.215853746972378e+00   9.315017037173614e-01   2.660184925998374e+00  6.83708470e-01  -2.13377762e+00   8.40706790e-01
C     2.667364503928800e-02   3.515333853922470e+00   7.018570167724866e+00 -7.28215140e-01   1.76813628e+00   2.06527328e+00
C     1.823473327076450e+00   5.326202526009136e+00   7.097933858087285e+00 -1.90683141e+00   1.08970050e-01  -6.41419130e-01
C     7.094658012607084e+00   5.317918583540466e+00   1.759808303733397e+00  1.10907547e+00   1.28468370e+00  -5.74952770e-01
C     1.733544388173926e+00   3.564502102342748e+00   1.735492024887579e+00  2.07472056e+00  -3.78904370e-01   1.40607145e+00
C     8.705783989788418e-01   4.414215717078913e+00   8.154172527003203e-01  4.70341120e-01   1.11661491e+00   1.75379874e+00
C     2.685581045324395e+00   6.235812136246778e+00   8.956797320188119e-01 -5.98247010e-01  -7.94992600e-01   6.76133730e-01
C     8.810875620644759e-01   6.258766441318604e+00   2.637421410989669e+00 -6.65669280e-01  -4.82958750e-01   1.02057145e+00
C     2.672663051065522e+00   4.434845425785546e+00   2.706332450226283e+00 -9.38905700e-01   1.08548785e+00  -1.78711195e+00
C     3.565037366566034e+00   3.514876000421515e+00   7.091953399968626e+00 -5.07289210e-01   8.89263540e-01   6.47062140e-01
C     5.350814728488625e+00   5.305092785522974e+00   7.074964838580636e+00 -7.01255440e-01   1.39795050e+00   3.17523540e-01
C     3.537512487918001e+00   5.335339194855301e+00   1.791212817278973e+00  7.33533060e-01   5.36400400e-02   4.31538660e-01
C     5.410041821421559e+00   3.608211082190866e+00   1.748550268324745e+00 -2.79543046e+00  -2.01035985e+00   1.24693553e+00
C     4.429527188318167e+00   4.477862613944286e+00   9.110507007553952e-01  1.21693543e+00  -1.63062354e+00  -1.80073895e+00
C     6.226906491135765e+00   6.208988219153303e+00   8.727349522332974e-01 -6.29054600e-01   4.71461440e-01   6.15058440e-01
C     4.437814329577015e+00   6.221011334088546e+00   2.685307726474656e+00 -1.10417945e+00  -9.93326700e-02   6.29140470e-01
C     6.233348854556270e+00   4.492473336881660e+00   2.678083436565950e+00  8.64799910e-01  -1.92780792e+00  -1.53222187e+00
C     7.073425509662275e+00   1.014208414153740e-02   3.624799652638028e+00  6.03290440e-01  -1.56934400e-01  -2.35114540e+00
C     1.767148034425452e+00   1.767140001907891e+00   3.581204336467605e+00 -6.58630230e-01   4.58441230e-01  -5.16767400e-01
C     7.076794191141893e+00   1.791035675387283e+00   5.336255399446793e+00  6.77974380e-01  -6.40436600e-02  -3.87934100e-02
C     1.739680876169093e+00   4.117496935254040e-02   5.387015365860141e+00  1.56012039e+00  -2.59591623e+00  -2.85262580e-01
C     8.543906013989944e-01   8.598977096553870e-01   4.522517938095804e+00  2.90200290e-01   1.82558818e+00  -2.02904081e+00
C     2.666848432446588e+00   2.663490342516674e+00   4.432719154411452e+00 -8.41906300e-02  -1.35066043e+00   9.98627460e-01
C     9.185316758049094e-01   2.731895830736553e+00   6.171880262718570e+00 -9.99754710e-01  -3.29181839e+00  -5.72879640e-01
C     2.659437475359881e+00   8.636482555981514e-01   6.276450846196866e+00  2.71301060e-01   1.18607932e+00  -1.52963751e+00
C     3.518521697130635e+00   7.095217658719957e+00   3.640284142883853e+00  5.52687940e-01   1.74320840e-01  -2.24216206e+00
C     5.370488567605546e+00   1.757980159603985e+00   3.549580528084201e+00 -1.91078170e+00   1.54074383e+00   7.43672430e-01
C     3.575234612067103e+00   1.716430007705561e+00   5.352042708496229e+00 -8.77608850e-01   2.32891123e+00   5.40473530e-01
C     5.280009934381817e+00   2.673662566370120e-02   5.309537753271487e+00  8.95015850e-01  -2.09815569e+00   2.30120321e+00
C     4.427463399978902e+00   8.786651538040324e-01   4.491617838219343e+00  1.62655420e-01   1.31035390e-01  -2.54221557e+00
C     6.213384494206870e+00   2.684050388681630e+00   4.418016661738053e+00  1.48361181e+00  -8.60202010e-01   7.44407490e-01
C     4.477210771590032e+00   2.632374573097922e+00   6.224619782663137e+00 -3.22905480e-01   7.05496970e-01   6.89815400e-01
C     6.163360676040048e+00   8.800317480527274e-01   6.236969245280862e+00  1.96381856e+00   1.08697980e+00  -6.95090670e-01
C     4.344930916980939e-02   3.583796209523309e+00   3.537255873861419e+00 -1.48720442e+00   1.17689490e-01   8.01079300e-02
C     1.761849700541408e+00   5.435728604148513e+00   3.544320366429627e+00  6.56998670e-01  -3.24686942e+00  -4.92359200e-02
C     7.092279605482658e+00   5.307922364231091e+00   5.294513817727212e+00  9.55953620e-01   1.61308600e+00   4.69563020e-01
C     1.767261342682014e+00   3.575598207884116e+00   5.263759440514461e+00  1.56794950e-01  -1.74356200e-01   4.78472390e-01
C     9.039994298532600e-01   4.501974525639778e+00   4.386248054785880e+00 -5.59163160e-01  -8.18708760e-01   6.15868330e-01
C     2.651109460670968e+00   6.190247502673710e+00   4.488293939802231e+00  2.09098480e-01   1.53476673e+00  -4.10650340e-01
C     8.929402881095164e-01   6.226153140506496e+00   6.216749479306725e+00 -9.36140550e-01  -7.52942400e-02   7.78714450e-01
C     2.620792677954703e+00   4.388885848251710e+00   6.164679643857188e+00  2.98321080e+00   1.18977837e+00   1.61600107e+00
C     3.535714696753177e+00   3.514297516988700e+00   3.585514599607468e+00  1.87464313e+00   7.71684220e-01  -1.12060900e+00
C     5.325850374752542e+00   5.302896780522977e+00   3.518415994886275e+00 -1.18397590e-01   1.23215145e+00   2.02089577e+00
C     3.576354544050883e+00   5.243651987617719e+00   5.320966959496827e+00 -1.14659629e+00   2.44066160e+00   4.59440380e-01
C     5.378531961052754e+00   3.530978141508792e+00   5.365702182318595e+00 -1.72319589e+00  -3.15313880e-01  -2.92575510e+00
C     4.499294437059359e+00   4.408032100241774e+00   4.446301146427260e+00 -1.89967827e+00  -3.18166650e-01  -1.02210620e-01
C     6.175406324674995e+00   6.207277648334028e+00   4.473405135371962e+00  4.75633220e-01   5.23139660e-01  -1.49135014e+00
C     4.403987905360579e+00   6.226434491873796e+00   6.218037667653921e+00  1.06267892e+00  -1.14192101e+00   3.03240600e-02
C     6.252359193505841e+00   4.417637214138598e+00   6.124824566416731e+00 -5.09980420e-01   9.22523200e-02   3.70001868e+00
