64
Lattice="7.10842262195238 0 0 0 7.10842262195238 0 0 0 7.10842262195238 " PBC="1 1 1" Properties=species:S:1:pos:R:3:force:R:3 Energy="-506.69617435"
C     4.745021375725020e-02   7.063248878586805e+00   1.836397008073420e-02 -2.96629115e+00   4.44879620e-01  -6.23093800e-01
C     1.754655905765742e+00   1.759610263079204e+00   6.132222941595399e-03  1.21114776e+00   2.35841425e+00  -1.07710848e+00
C     7.101263656495171e+00   1.712505234324381e+00   1.756861791473181e+00  1.26492805e+00   8.48123190e-01  -5.05024190e-01
C     1.826994697473946e+00   7.090485013108013e+00   1.716961006875275e+00 -1.18920829e+00   3.19163220e-01   1.16560284e+00
C     9.052045918242548e-01   8.557566269738798e-01   7.908951139354278e-01  2.88755900e-01  -7.50034100e-02   4.04026927e+00
C     2.539870110511719e+00   2.712211471154153e+00   9.554256687187809e-01  2.23845910e+00  -2.20921892e+00  -7.95656980e-01
C     8.097536880620616e-01   2.643766317936055e+00   2.699511350048583e+00  9.13672730e-01   1.26575704e+00  -2.18413720e-01
C     2.689014768870986e+00   8.323797261772954e-01   2.598837177345214e+00 -7.37068880e-01   2.51878283e+00   1.39673115e+00
C     3.577420523106979e+00   3.442573532752900e-02   4.195817535681200e-03 -4.27027990e-01  -1.21767914e+00  -1.52140554e+00
C     5.282551906310728e+00   1.862399475848928e+00   3.616623260603600e-03  9.54315820e-01  -2.00780625e+00  -1.38793376e+00
C     3.533893589962159e+00   1.766407194619995e+00   1.814431768924941e+00  7.13919570e-01   1.67972170e-01  -2.60227899e+00
C     5.336075840691411e+00   3.432955836948040e-02   1.688135571224687e+00  1.58542900e-02  -2.59113731e+00   2.70778510e+00
C     4.438153827841346e+00   8.760400844146926e-01   8.247232441732933e-01  6.22278340e-01   2.47902994e+00   2.10150379e+00
C     6.255334352709216e+00   2.647564063805016e+00   8.827424028504121e-01 -1.29718414e+00   1.21497127e+00   1.17995063e+00
C     4.502474461002643e+00   2.645805297880376e+00   2.620325085914760e+00 -1.32722527e+00  -7.35370370e-01   1.82473683e+00
C     6.289952228700163e+00   8.016429067684154e-01   2.637534008403970e+00 -1.52686521e+00   1.71518485e+00  -4.51222690e-01
C     3.043037530973180e-02   3.623266223710442e+00   4.997413029270740e-02 -1.11212142e+00  -2.76940542e+00  -9.12743320e-01
C     1.819464603224128e+00   5.332216535882560e+00   3.123035719138660e-02 -2.55294840e-01   3.40774600e-02   4.59125230e-01
C     7.098801298899604e+00   5.323472394133472e+00   1.740269737898934e+00 -3.91279490e-01  -2.50495500e-01   3.12823987e+00
C     1.687265358127547e+00   3.574873219861102e+00   1.888417724322651e+00  1.56562323e+00  -8.93402600e-01  -2.56048898e+00
C     9.099801012245969e-01   4.462936703547941e+00   9.623614277533412e-01 -7.58323000e-01  -3.42705320e-01  -1.70054549e+00
C     2.700400542634119e+00   6.214589300756733e+00   8.963642731171181e-01  6.76694500e-02  -3.09223820e-01  -2.79818890e-01
C     9.732222445059867e-01   6.208134781933547e+00   2.659989515460550e+00 -2.56857453e+00  -1.18158736e+00  -1.41683581e+00
C     2.695338137296833e+00   4.393183316230857e+00   2.664935200498415e+00 -2.19091995e+00   1.46638815e+00   5.45093120e-01
C     3.479433760659327e+00   3.550870777873957e+00   5.949095758058959e-02  8.93603690e-01  -1.42883970e-01  -1.07674820e+00
C     5.219192900561466e+00   5.269190133227688e+00   1.626712757628660e-02  2.44099380e+00   7.85609620e-01   4.76935000e-03
C     3.571670804386565e+00   5.276107054942305e+00   1.830957145495013e+00 -1.72375120e-01   8.87753950e-01  -2.16528021e+00
C     5.354782223489751e+00   3.515688990716565e+00   1.825002562034691e+00 -2.83485610e-01   7.25270450e-01  -2.17874081e+00
C     4.424704123570496e+00   4.331259501008573e+00   9.271670586879116e-01  7.95165400e-02   2.75044659e+00   1.19834890e-01
C     6.161009280921578e+00   6.125564979716829e+00   9.053022615510535e-01  1.09189186e+00   2.79908236e+00  -1.43301763e+00
C     4.422585102787475e+00   6.230984451024406e+00   2.655602339187938e+00  2.72013229e+00  -6.47607890e-01  -1.19661364e+00
C     6.128760002431840e+00   4.432853077093612e+00   2.728804733160246e+00  3.67709851e+00   4.16143130e-01  -4.47458240e-01
C     3.874943338614400e-03   6.957619993148843e+00   3.554233630447027e+00  1.25803577e+00   3.91959697e+00  -9.61977940e-01
C     1.714187158200499e+00   1.773453773963201e+00   3.504511991325782e+00  1.30159209e+00  -2.32662063e+00   1.17962737e+00
C     1.602245566970620e-02   1.706832357652490e+00   5.384840757212230e+00  4.14385770e-01   7.91761850e-01  -8.22133940e-01
C     1.926708877702484e+00   2.365839433233640e-02   5.365143033795306e+00 -2.07879476e+00  -4.60761220e-01  -2.38781955e+00
C     9.335037198640582e-01   7.468254527235710e-01   4.376592897593812e+00 -5.41807100e-01   3.22465961e+00   3.23179817e+00
C     2.588790914740594e+00   2.667852994731246e+00   4.426624535025516e+00 -3.04418250e-01   7.08292300e-01  -1.75444883e+00
C     8.512477545060138e-01   2.688731853650710e+00   6.218058921837555e+00  1.22651938e+00  -1.10115933e+00   7.47521100e-01
C     2.794563258049116e+00   9.789984776427725e-01   6.200321417042321e+00 -4.84097526e+00  -1.71657229e+00   1.17359563e+00
C     3.631808059751765e+00   1.396570466883540e-02   3.486798086493646e+00 -9.01190250e-01   2.38557979e+00  -1.42423080e-01
C     5.480471646235162e+00   1.852103210020762e+00   3.478524877743133e+00 -2.56691392e+00  -3.43602238e+00   2.70542264e+00
C     3.478559993350876e+00   1.889445388980825e+00   5.272528888248075e+00  3.28440014e+00  -2.56330014e+00   5.47352750e-01
C     5.290979367832096e+00   9.734771525411400e-03   5.275685098975583e+00 -5.68804650e-01   1.58074107e+00   2.67380234e+00
C     4.413704052818725e+00   9.457314862865297e-01   4.383661370878689e+00  2.64777562e+00   9.02682910e-01   2.22404220e-01
C     6.350022309471605e+00   2.626976010454936e+00   4.525772529392371e+00 -4.57171109e+00   2.17101188e+00  -2.35829749e+00
C     4.363036211562532e+00   2.737487458137897e+00   6.162711534886389e+00  9.46867120e-01  -9.18552770e-01   1.90931276e+00
C     6.214345979450450e+00   9.229184966563899e-01   6.291713766909626e+00 -5.57317350e-01  -1.98090456e+00  -2.51501324e+00
C     2.008129390150000e-03   3.651704321412466e+00   3.665655880320288e+00 -1.25459472e+00  -3.30663338e+00  -2.67167866e+00
C     1.841566963844946e+00   5.358898568860540e+00   3.535688040168352e+00  3.82790090e-01  -2.36756900e-02   6.93016040e-01
C     7.578076102503399e-03   5.408568245412433e+00   5.430795287766006e+00 -1.11133455e+00  -1.89600390e+00  -2.68342324e+00
C     1.687710416467785e+00   3.540254704112118e+00   5.310152276406986e+00  2.55896722e+00   1.72437566e+00   7.18824780e-01
C     8.818222886264792e-01   4.515182970046905e+00   4.437330103828141e+00  1.12047920e+00   7.07470690e-01   2.17565251e+00
C     2.847550719774667e+00   6.334198676382579e+00   4.354700377608737e+00 -6.23310285e+00  -4.92332760e+00   4.20017334e+00
C     9.239613733389703e-01   6.201622613802912e+00   6.283264837951946e+00  1.34897741e+00   1.26005283e+00  -1.55911712e+00
C     2.725012318608250e+00   4.491162543750533e+00   6.271322332529214e+00 -4.08322312e+00  -1.75081472e+00  -1.88034497e+00
C     3.531936783383325e+00   3.508675536622768e+00   3.471332149230860e+00  9.06457130e-01   6.23242880e-01   2.89860133e+00
C     5.323907785018948e+00   5.344087246236830e+00   3.593385400553462e+00 -1.81394454e+00   4.15172830e-01  -1.63215242e+00
C     3.524205236436456e+00   5.299855797326142e+00   5.286591267464543e+00  1.01581959e+00   2.26488161e+00   7.13128630e-01
C     5.258528352308403e+00   3.568798788395406e+00   5.308158292777850e+00  2.65139612e+00   2.64810440e-01   7.95335420e-01
C     4.365835295137609e+00   4.484961155856843e+00   4.383957863186168e+00  2.38245737e+00  -2.79581655e+00   1.21807698e+00
C     6.153287259261019e+00   6.261058978697780e+00   4.437830821117494e+00  2.22668616e+00  -2.38301954e+00   1.58472352e+00
C     4.348949521540704e+00   6.190016976528144e+00   6.214236936247460e+00  3.22584938e+00   3.46512220e-01  -5.75198600e-01
C     6.209886012930210e+00   4.455948910859802e+00   6.282878921687907e+00 -1.03419017e+00   4.62580070e-01  -1.55165390e+00
