64
Lattice="7.10842262195238 0 0 0 7.10842262195238 0 0 0 7.10842262195238 " PBC="1 1 1" Properties=species:S:1:pos:R:3:force:R:3 Energy="-503.45332777"
C     4.513642219444020e-02   7.037123292931519e+00   7.007034903834035e+00  9.51272270e-01   1.83658317e+00   3.91680239e+00
C     1.836146009670708e+00   1.785486556353206e+00   1.214155547293624e-01 -2.27908729e+00  -1.69460109e+00  -4.50577904e+00
C     7.087553997209109e+00   1.712643635312792e+00   1.752073842333253e+00  3.50221280e-01   1.51189870e+00  -8.96977900e-02
C     1.762996999952276e+00   7.024492123525362e+00   1.799436338155373e+00  2.37366670e-01   5.80909900e-01   2.95733953e+00
C     9.338068940888012e-01   7.783059553069553e-01   9.945847605005156e-01 -1.37474437e+00   3.07492993e+00  -4.16694053e+00
C     2.691068676502809e+00   2.729176148242141e+00   8.222197288107556e-01 -1.65717079e+00  -2.00675087e+00   5.65714635e+00
C     8.082961770880568e-01   2.657609331230469e+00   2.659247040717891e+00  2.74313318e+00  -2.42434355e+00  -3.72138200e-02
C     2.665925830274738e+00   8.876318602653528e-01   2.688166378631289e+00 -5.98163800e-01   8.54426130e-01  -2.63152545e+00
C     3.433360732700475e+00   3.934327101181880e-02   3.529537975085980e-02  2.27040978e+00  -1.73476483e+00  -8.91280170e-01
C     5.283865187389773e+00   1.692230804580295e+00   7.082414678739075e+00  9.58430630e-01   3.27572058e+00  -2.00505562e+00
C     3.550837368287643e+00   1.861892076642312e+00   1.801013199545167e+00  6.90972210e-01  -3.01942110e+00  -1.40982299e+00
C     5.351573552603309e+00   4.328368292276340e-02   1.707556421580563e+00 -5.55527720e-01  -7.29176170e-01   1.10603820e+00
C     4.360347237453839e+00   9.322824217737161e-01   8.191850010258253e-01  1.52644416e+00  -1.56149291e+00   2.89613116e+00
C     6.184366207050600e+00   2.633055488900692e+00   6.972339688204982e-01  6.56617590e-01  -4.39475680e-01   6.10949708e+00
C     4.534867756134661e+00   2.580150484877532e+00   2.708424672256027e+00 -3.06726583e+00   4.30119136e+00  -2.15711499e+00
C     6.209266442814650e+00   9.320947594165480e-01   2.660253522276657e+00 -5.05887530e-01  -9.91739730e-01   7.38162790e-01
C     2.590529563829220e-02   3.573667347047845e+00   7.091523482568569e+00 -2.33630726e+00  -5.57792870e-01   7.09246080e-01
C     1.743536697850860e+00   5.288803621836566e+00   5.042132115973160e-02  2.41318894e+00  -8.18592400e-02   1.26041350e+00
C     7.038109728738496e+00   5.407968010206400e+00   1.727676314216889e+00  5.82021290e-01  -4.51109285e+00   2.34178000e+00
C     1.742270190192654e+00   3.440751501866941e+00   1.802845679812377e+00 -1.55215690e-01   5.49641699e+00  -7.74684800e-01
C     7.526447629014339e-01   4.414827467929591e+00   1.011669783183459e+00  4.25561433e+00  -4.25317460e-01  -4.42695003e+00
C     2.668039875161926e+00   6.140917324386148e+00   1.069935604125492e+00 -1.24644528e+00   2.51249640e+00  -6.46327896e+00
C     7.944039735091122e-01   6.148805825304467e+00   2.611493084062088e+00  2.45393053e+00   3.12047211e+00   3.87406184e+00
C     2.667945972899116e+00   4.500850826192009e+00   2.677190547600652e+00  1.89632200e-01  -4.58817458e+00  -2.53395850e-01
C     3.492591237676268e+00   3.583974559846845e+00   1.526882070353380e-02  3.92867523e+00   8.36629070e-01  -2.06126630e-01
C     5.303556797563245e+00   5.404915653533372e+00   4.714540459530460e-02 -9.33195600e-01  -3.38816121e+00  -1.19268476e+00
C     3.611657458729721e+00   5.346469136488340e+00   1.821623217921143e+00 -1.34460847e+00  -8.72652790e-01   5.36785110e-01
C     5.316090155074150e+00   3.500215447441575e+00   1.760454885854912e+00  1.12141516e+00   1.60487025e+00  -1.07260801e+00
C     4.430916316266567e+00   4.497891874192207e+00   9.390714629653993e-01 -4.51414400e-02  -2.79959778e+00  -1.10493382e+00
C     6.265726724411203e+00   6.183478080728457e+00   8.508703683491180e-01 -2.54423336e+00   4.53449265e+00  -2.12823909e+00
C     4.513152022620145e+00   6.226400726866351e+00   2.608871782136737e+00  1.07335090e-01   7.99342710e-01   1.56673404e+00
C     6.180766430751606e+00   4.496352260936941e+00   2.587252012327590e+00  9.57910990e-01  -2.87654442e+00   2.59891051e+00
C     7.088165321554428e+00   7.956663582821979e-02   3.594157943923804e+00  1.75338911e+00  -1.86435160e-01  -1.81985454e+00
C     1.829277140893002e+00   1.802934535095127e+00   3.557728131007019e+00 -1.77951195e+00  -1.09548981e+00  -5.63164650e-01
C     1.532514073595206e-01   1.813013141022668e+00   5.382891912066731e+00 -4.86302983e+00  -1.31401687e+00   9.91922400e-02
C     1.795867910000133e+00   7.019576507115179e+00   5.277570750243989e+00  2.15961757e+00   4.21355701e+00   3.97186200e-02
C     9.854293965028604e-01   9.419490235262015e-01   4.522270564988628e+00 -1.49911660e+00  -1.30401799e+00  -2.95053108e+00
C     2.742257351884370e+00   2.708084107728303e+00   4.285592932655133e+00 -2.45557526e+00  -6.30781310e-01   5.22092226e+00
C     9.444221859241519e-01   2.694622816728583e+00   6.283047533472453e+00  6.91956660e-01   4.32166430e-01  -1.09326348e+00
C     2.646274595941748e+00   8.803020813649660e-01   6.154864831493076e+00 -8.10678990e-01   6.48757990e-01   2.33766356e+00
C     3.570139152564634e+00   7.100462252928993e+00   3.416252252222885e+00 -2.66734300e-01  -4.78804300e-01   3.72568141e+00
C     5.326527736344001e+00   1.799921416914962e+00   3.627956076618213e+00 -5.71606810e-01  -4.52115800e+00  -8.12104880e-01
C     3.507961211233685e+00   1.791368562818577e+00   5.267688976538797e+00  5.90212400e-01  -2.78132280e-01   1.22640649e+00
C     5.257963019457434e+00   7.033568228610805e+00   5.390495791743345e+00  2.27161559e+00   3.11369606e+00  -1.92194829e+00
C     4.333431479540113e+00   7.814608865183900e-01   4.481263141157242e+00  3.57682395e+00   2.78089730e+00  -1.42132836e+00
C     6.139177040360320e+00   2.573769467144236e+00   4.520109249091017e+00  4.57568644e+00   4.61617475e+00   1.87600930e-01
C     4.363113124695280e+00   2.699498199466736e+00   6.252170322716827e+00  2.07172915e+00  -1.37651927e+00  -2.10082154e+00
C     6.293134171917554e+00   8.689173738652264e-01   6.223646070932649e+00 -2.20198885e+00  -5.70844630e-01  -6.11686010e-01
C     7.093030610332462e+00   3.512344620042307e+00   3.519113970903333e+00 -1.29187776e+00   2.13324861e+00   1.32268008e+00
C     1.697043846452071e+00   5.233694367043171e+00   3.571775795788663e+00  3.23782141e+00   4.75815438e+00  -4.12866150e+00
C     3.854840719445040e-02   5.393724010791992e+00   5.316691101122445e+00  2.88040370e-01  -1.29470630e+00   1.20772653e+00
C     1.809346687719498e+00   3.597527122993005e+00   5.309973357409641e+00  9.04732760e-01  -7.01558550e-01   6.28494880e-01
C     9.074158799328843e-01   4.496684366441747e+00   4.432855209620398e+00 -2.89804030e+00  -4.49716321e+00   2.40652665e+00
C     2.653421048622765e+00   6.221789919618114e+00   4.293731152460092e+00 -3.68072450e-01  -1.04930695e+00   2.65700060e+00
C     1.047851369982355e+00   6.237509627568435e+00   6.228045971281750e+00 -4.88837200e+00  -2.75827025e+00  -3.93470250e-01
C     2.731553631271626e+00   4.441676122333782e+00   6.269612614720653e+00 -3.90621816e+00   1.84189226e+00  -3.41593324e+00
C     3.608858375154643e+00   3.542824541057700e+00   3.492423265649757e+00  7.36831000e-01   2.37754485e+00   7.22486660e-01
C     5.424243028131795e+00   5.327230688256892e+00   3.587211237918409e+00 -1.75509837e+00   1.80585483e+00  -1.90624381e+00
C     3.560124380272221e+00   5.406678400174680e+00   5.252947316456762e+00 -7.53644390e-01  -2.52587931e+00   1.71639392e+00
C     5.348839084589847e+00   3.612711140214683e+00   5.409562500484292e+00 -2.50309146e+00  -2.53586960e+00  -1.92259341e+00
C     4.467949776432243e+00   4.494407396508110e+00   4.421633640419788e+00  9.39355370e-01  -1.02552220e+00   9.56432120e-01
C     6.315087468916031e+00   6.320161887487544e+00   4.460056939376127e+00 -3.95842703e+00  -3.45093519e+00   1.08407930e+00
C     4.326344382187973e+00   6.231970460326026e+00   6.248310520318394e+00  2.91997258e+00   3.22062860e-01   4.60828960e-01
C     6.176744271980532e+00   4.434905136535554e+00   6.280580981907539e+00  2.29352388e+00   2.89547534e+00  -1.67235128e+00
