64
Lattice="7.10842262195238 0 0 0 7.10842262195238 0 0 0 7.10842262195238 " PBC="1 1 1" Properties=species:S:1:pos:R:3:force:R:3 Energy="-512.86098863"
C     2.913962793039220e-02   7.666575964122399e-03   2.753312441827220e-02 -7.93282580e-01  -1.07937124e+00  -2.94470840e-01
C     1.782705954676941e+00   1.726931280442087e+00   7.098475235554025e+00  3.33020980e-01   2.01699062e+00   9.32573290e-01
C     7.080509479308462e+00   1.755226498849449e+00   1.760515094194503e+00  1.78614418e+00   4.50569630e-01   4.70584890e-01
C     1.813373182628371e+00   7.107993342357978e+00   1.812543771877069e+00 -2.41946017e+00  -1.12240680e+00  -1.08336687e+00
C     9.324855804921957e-01   8.649257102271916e-01   9.030449108638463e-01 -1.31204637e+00   1.24758880e-01  -3.18847100e-02
C     2.631562791234717e+00   2.668918120776627e+00   9.123608541284873e-01  1.08196675e+00  -7.94965530e-01  -9.07168400e-01
C     8.749955017106835e-01   2.679081956691382e+00   2.633458252126341e+00 -8.84867710e-01   1.31637750e-01   6.24109310e-01
C     2.649070480726647e+00   8.346989912255228e-01   2.648897177383171e+00  1.42298536e+00   2.62458078e+00   1.02751172e+00
C     3.544389247044815e+00   3.683087012100600e-03   2.879181281159560e-02  6.19024120e-01   4.11011790e-01  -1.39444541e+00
C     5.318608029450380e+00   1.846488480245903e+00   7.090226124356192e+00  8.29700120e-01  -1.58889051e+00  -3.45770310e-01
C     3.540973863228583e+00   1.767676048057665e+00   1.812809058209248e+00  7.37535980e-01   4.96246710e-01  -1.76161034e+00
C     5.326399358231484e+00   7.543678445445219e-02   1.691070354587580e+00  1.46238000e-02  -2.14166402e+00   2.87613028e+00
C     4.475632346347261e+00   9.348931321493633e-01   8.130723262464348e-01 -1.89282492e+00  -2.64019520e-01   2.40895926e+00
C     6.237895330579796e+00   2.656832522806555e+00   8.831049324040320e-01 -8.97489530e-01   1.28552421e+00   3.76458620e-01
C     4.458437427450612e+00   2.669898514424378e+00   2.674009741730881e+00 -1.59166820e-01  -6.86532140e-01   7.17375670e-01
C     6.212893302203827e+00   8.880195536350476e-01   2.653111903323021e+00  7.79782900e-02   1.63656300e-02   2.78367150e-01
C     1.406692860694420e-02   3.566434455947769e+00   1.273509454486100e-02 -6.22799290e-01  -4.99783000e-01  -1.16115094e+00
C     1.785429617888020e+00   5.329859880531352e+00   7.065062023944488e+00 -1.68250950e-01   1.47243400e-02   1.62315064e+00
C     7.087369462557894e+00   5.300700917691434e+00   1.794147103052283e+00  7.17164820e-01   1.83598533e+00  -5.02212430e-01
C     1.728248542237799e+00   3.542136872253442e+00   1.758787036655581e+00  1.32978250e+00   1.29765417e+00  -2.02349760e-01
C     8.720701014656488e-01   4.449119280574958e+00   8.288150654860440e-01  5.94358890e-01   2.12180360e-01   2.53344749e+00
C     2.651612736992463e+00   6.238557124725718e+00   9.047573298730045e-01  5.39598910e-01  -7.90535250e-01  -4.62097380e-01
C     9.064425236235277e-01   6.213675868450062e+00   2.726257856419726e+00 -1.04133298e+00   6.57923300e-02  -1.80180813e+00
C     2.660808761167505e+00   4.439641762864165e+00   2.677126003123263e+00 -1.69670510e-01  -1.62207290e-01  -7.98680770e-01
C     3.550411644856931e+00   3.555837788179682e+00   7.101480179048177e+00 -5.77482900e-02  -2.13556130e-01   8.87036130e-01
C     5.315791530239884e+00   5.351979372450685e+00   7.089733439584401e+00  3.59340820e-01  -9.18551120e-01   1.02619003e+00
C     3.556420892087201e+00   5.363662562616239e+00   1.775627245263492e+00 -5.07674110e-01  -1.78650867e+00   2.01842880e-01
C     5.342901063754231e+00   3.552426313995892e+00   1.802698890885274e+00 -4.90060090e-01   2.64827460e-01  -5.46083000e-01
C     4.436830452802181e+00   4.439749739803763e+00   9.218770416583338e-01  3.94593490e-01   2.20884250e-01  -1.53139967e+00
C     6.193830645263773e+00   6.224794934196493e+00   9.159709376402805e-01  1.09562923e+00   3.50900580e-01  -1.43564640e+00
C     4.420969358325949e+00   6.232554417244259e+00   2.649507435465098e+00  1.42494523e+00   6.57606580e-01  -9.82966720e-01
C     6.195495295672925e+00   4.471627176706248e+00   2.686845491540041e+00  9.91170670e-01  -1.18909642e+00  -3.29947900e-01
C     7.078619847323388e+00   7.101604363191348e+00   3.605470927439308e+00  1.38923094e+00   9.11401980e-01  -2.21092558e+00
C     1.775790241394169e+00   1.822159477323596e+00   3.492568775060789e+00 -2.67787010e-01  -2.23315177e+00   2.09241924e+00
C     7.080698989855511e+00   1.776954387766646e+00   5.397658380543709e+00  2.24326403e+00   7.14561510e-01  -1.92427400e+00
C     1.784418018264968e+00   4.958266945902400e-03   5.333320260662768e+00  2.64495300e-02  -4.10639760e-01  -4.14249650e-01
C     8.634633655258052e-01   9.068956144813265e-01   4.437623041924311e+00  7.40994800e-01   1.42429400e-01   8.00434730e-01
C     2.693169570808150e+00   2.632609719718191e+00   4.448518903200473e+00 -1.35413758e+00   7.59946100e-01  -4.36775890e-01
C     8.948866453070985e-01   2.675186896516753e+00   6.235745388158377e+00  1.72741340e-01  -9.40327530e-01  -1.65734910e-01
C     2.711057987415606e+00   8.871053394018894e-01   6.229457704014082e+00 -2.68617314e+00  -8.04893810e-01   3.40498260e-01
C     3.560268894504086e+00   7.079024529823144e+00   3.504111858216502e+00 -1.37317166e+00   2.70904780e-01   2.20835767e+00
C     5.378385101041425e+00   1.778481276945422e+00   3.568615675428715e+00 -1.82894199e+00  -3.05155540e-01   1.96030650e-01
C     3.525500533206272e+00   1.749647097935012e+00   5.359071872204016e+00  1.50867113e+00  -4.02467300e-02  -1.72147203e+00
C     5.309653691644419e+00   7.069836253828758e+00   5.308222268581430e+00 -1.50092160e-01   1.53629904e+00   1.76637848e+00
C     4.375885183037766e+00   8.200133455137337e-01   4.447082930747007e+00  2.76374202e+00   2.08054355e+00  -4.77204030e-01
C     6.261580168244278e+00   2.667538873535668e+00   4.507801797250975e+00 -1.26965889e+00  -1.65190630e-01  -2.10532854e+00
C     4.437045269333757e+00   2.663402055907733e+00   6.178689847251626e+00 -1.72342130e-01   5.61236540e-01   1.22233805e+00
C     6.245889889163605e+00   9.317493611614421e-01   6.255257794997598e+00 -1.60687517e+00  -1.93204124e+00  -4.51884080e-01
C     7.105349293480243e+00   3.598405013186576e+00   3.578450746797295e+00  2.47626150e-01  -1.55897841e+00  -5.94878150e-01
C     1.785059269069518e+00   5.323916812715675e+00   3.553066782873953e+00  5.39831340e-01   9.43093000e-03   3.47057700e-01
C     2.397571431809320e-02   5.342376106743743e+00   5.328511270591886e+00 -6.96518700e-01  -8.82051690e-01  -6.30552660e-01
C     1.788282370053878e+00   3.529147651599915e+00   5.319972562256515e+00  1.01709840e-01   6.31430600e-01   1.50469830e-01
C     9.261519048535493e-01   4.452274069617941e+00   4.398203355369327e+00 -9.83134000e-01  -4.86680660e-01   2.11533102e+00
C     2.671157273901927e+00   6.186990494513452e+00   4.451593367067850e+00 -8.06265900e-02   7.77690040e-01  -6.09843710e-01
C     8.812480702472355e-01   6.177071330505278e+00   6.220001369402696e+00  7.02205010e-01   2.54190129e+00  -2.47630510e-01
C     2.687019576810005e+00   4.442105755396936e+00   6.221229420494527e+00 -5.46562430e-01  -5.54198410e-01  -6.11707310e-01
C     3.560338201624630e+00   3.542621240170769e+00   3.578446552827949e+00  8.35209500e-02   1.30294180e-01  -1.23619638e+00
C     5.348926162766943e+00   5.373298029477648e+00   3.535017147241476e+00 -1.17296624e+00  -8.04123960e-01   3.00033600e-01
C     3.565731504034876e+00   5.310582762480853e+00   5.328817217101451e+00 -4.19173640e-01   2.60768310e-01  -9.83364800e-02
C     5.331853153318226e+00   3.522163839628444e+00   5.316222940408692e+00  8.79366300e-02   1.77891211e+00   4.74469100e-02
C     4.440731341883358e+00   4.433668128831222e+00   4.404953158068149e+00  9.51765390e-01   5.83955610e-01   1.41272104e+00
C     6.225239210610243e+00   6.242099251717264e+00   4.444928581103563e+00 -6.60815850e-01  -1.24938699e+00   6.66551910e-01
C     4.395479123484439e+00   6.220540969763780e+00   6.231973019358168e+00  1.79567790e+00  -5.90355850e-01  -4.38020160e-01
C     6.237320045937159e+00   4.443966313933495e+00   6.202888481703082e+00 -1.02647518e+00   8.07496000e-03   3.40123390e-01
