64
Lattice="7.10842262195238 0 0 0 7.10842262195238 0 0 0 7.10842262195238 " PBC="1 1 1" Properties=species:S:1:pos:R:3:force:R:3 Energy="-512.41846726"
C     7.069547012112350e+00   4.172217572582800e-03   7.101497594683596e+00  1.59772374e+00   5.34489280e-01   1.05962811e+00
C     1.775571799567056e+00   1.766562584738468e+00   7.092344149960048e+00 -2.31358790e-01   4.23572890e-01  -2.93154840e-01
C     1.429503788882000e-02   1.807888750240136e+00   1.791014989877459e+00 -1.47967250e+00  -1.49629957e+00  -1.97652770e-01
C     1.802230588003068e+00   2.321099021263360e-02   1.774627445621989e+00 -9.90784880e-01  -6.33015820e-01  -2.42401160e-01
C     8.577752768295074e-01   9.444297208521291e-01   9.021183279753293e-01  1.67023558e+00  -2.30167925e+00  -6.06434100e-01
C     2.705941060476825e+00   2.653235092287026e+00   8.300281178061470e-01 -1.21451429e+00   8.26902800e-02   1.93376442e+00
C     8.724934080326698e-01   2.650458897832785e+00   2.669476913878785e+00  1.70605593e+00   9.82558660e-01   5.48666360e-01
C     2.671777768112427e+00   9.058453450392215e-01   2.664159031832537e+00  3.48683080e-01   1.99571380e-01   4.23206000e-03
C     3.565851991798286e+00   7.065176185211765e+00   7.060287012133729e+00  3.07159780e-01   1.69591545e+00   3.60908460e-01
C     5.319524376210325e+00   1.726938673201612e+00   1.470597580048220e-02  2.62472150e-01   6.65396400e-01  -1.05975510e+00
C     3.569976725107767e+00   1.781517852920234e+00   1.768114495564867e+00 -4.71121340e-01  -7.91527950e-01  -4.50103530e-01
C     5.359180559985876e+00   7.082010920334259e+00   1.815786705360540e+00  1.96907660e-01  -7.72303600e-01   9.10624100e-02
C     4.469832797584282e+00   8.103284751151149e-01   9.172176127993761e-01 -7.94692190e-01   1.58881670e+00  -9.01351540e-01
C     6.198059232627733e+00   2.629455357180566e+00   8.643861809503336e-01 -7.20748520e-01   6.32935460e-01   1.91872087e+00
C     4.387827830628949e+00   2.720699496436243e+00   2.639861163801306e+00  1.39246292e+00  -2.25856401e+00   1.08731334e+00
C     6.229459410035511e+00   8.631819430742793e-01   2.696008745886804e+00 -5.87642500e-02   1.20324834e+00  -1.30072497e+00
C     7.089944701904667e+00   3.531565155048752e+00   5.526386298538040e-02 -3.91361390e-01  -1.42225680e-01  -1.71728392e+00
C     1.713667461422751e+00   5.375700178733624e+00   2.410750447346800e-03  9.32099520e-01  -1.89618341e+00   5.59884830e-01
C     1.985389546188620e-02   5.293440232658913e+00   1.780230304331073e+00 -6.70227840e-01  -1.70740440e-01   8.92956370e-01
C     1.823687574934217e+00   3.508751738913254e+00   1.802510162264713e+00 -1.10833394e+00   1.24540890e+00  -1.15264831e+00
C     8.573321377633766e-01   4.395912381843128e+00   9.428136209694722e-01  1.86331553e+00   5.29363060e-01  -1.44492995e+00
C     2.648088167804789e+00   6.212022520432877e+00   8.581385883096156e-01  4.36129510e-01   1.02411417e+00   1.47919490e-01
C     9.117617562700737e-01   6.181059439932002e+00   2.644405009708462e+00  4.29284340e-01   4.72510560e-01   1.00073748e+00
C     2.712059848499669e+00   4.445571111424186e+00   2.648081983477109e+00 -1.47227226e+00  -6.75968070e-01   1.06091645e+00
C     3.561072786018181e+00   3.587071486329700e+00   7.106008457509795e+00 -6.25806700e-01  -1.44835310e-01  -7.41738330e-01
C     5.386395582491903e+00   5.398017355886020e+00   2.799382128827440e-02 -1.34342361e+00  -2.76153241e+00  -1.68185477e+00
C     3.567953170440531e+00   5.346124662328174e+00   1.724151958281893e+00 -3.97398570e-01  -3.47901480e-01   1.95791222e+00
C     5.256072676630097e+00   3.540533638615727e+00   1.757341894336935e+00  1.87948530e+00   8.72774580e-01  -7.81146720e-01
C     4.434967121980800e+00   4.477284841353732e+00   8.363980464001551e-01  6.06838220e-01  -4.91850500e-02   1.32000807e+00
C     6.282311882815509e+00   6.171498469339650e+00   9.215284446130489e-01 -1.65627116e+00   2.46696557e+00  -4.17436420e-01
C     4.464305074902291e+00   6.184483567108057e+00   2.718422526502605e+00 -5.45749940e-01   1.04400596e+00  -1.37558681e+00
C     6.175641897800622e+00   4.396214347636024e+00   2.627947660742864e+00  8.03826760e-01   8.41340600e-01   1.83779426e+00
C     2.879010679016680e-02   7.082101979228021e+00   3.520517813286557e+00  4.80788320e-01   8.20249740e-01  -8.14397900e-02
C     1.801433804911593e+00   1.818646068359435e+00   3.569245481672847e+00 -6.09132070e-01  -1.31444754e+00  -5.89334370e-01
C     1.174034188341820e-02   1.775775526959345e+00   5.267451341970610e+00 -1.64574795e+00   6.18192510e-01   1.89879781e+00
C     1.704204373809876e+00   5.121689581936200e-03   5.327462778255436e+00  2.34730997e+00   9.71653730e-01  -5.96456300e-01
C     8.985418673025288e-01   9.359920232021891e-01   4.399816043209127e+00 -1.81924290e-01  -1.99818762e+00   6.22576440e-01
C     2.675012242572979e+00   2.675908401412682e+00   4.485446021363754e+00 -1.03372655e+00   9.75649900e-01  -1.42572718e+00
C     8.136211675569249e-01   2.631661669393361e+00   6.234281621772467e+00  2.84883512e+00   1.26676583e+00  -4.10519490e-01
C     2.666546679906369e+00   9.032248961245847e-01   6.159612049371391e+00 -5.19967180e-01  -1.00025588e+00   1.80170369e+00
C     3.567890616321475e+00   3.484449250407320e-02   3.561215096639033e+00 -4.95890920e-01  -9.42313540e-01  -6.76108500e-02
C     5.319822219118103e+00   1.797462613530703e+00   3.555078608643866e+00  1.22838920e-01   2.21369870e-01  -1.63110271e+00
C     3.551457080571655e+00   1.814947556070249e+00   5.314908948487385e+00  6.73583490e-01  -1.22216674e+00   6.63498660e-01
C     5.423900188908833e+00   7.102855587740921e+00   5.267209158011947e+00 -2.18286725e+00   1.12667082e+00   6.20372490e-01
C     4.468732769183837e+00   9.440862418711308e-01   4.398021593002934e+00 -5.63385020e-01  -1.56341924e+00   1.62994387e+00
C     6.171728853316764e+00   2.680320386080238e+00   4.409721345793192e+00  1.25621216e+00  -2.53558480e-01   9.12660820e-01
C     4.423587745798025e+00   2.682940906079101e+00   6.234040575161422e+00  6.59289180e-01  -8.11701230e-01  -2.77658990e-01
C     6.242176520271143e+00   8.826344259108142e-01   6.201316098619539e+00 -9.32202230e-01  -2.18135000e-02  -6.11089850e-01
C     7.088913909540540e+00   3.527229728092813e+00   3.536117388894599e+00 -2.18742890e-01   9.20554000e-01   5.95329710e-01
C     1.795488035895320e+00   5.272154914134037e+00   3.597701137178743e+00 -1.83093790e-01   1.86737362e+00  -1.40397694e+00
C     1.409991168790100e-02   5.345755877362649e+00   5.348034411149263e+00 -6.82861600e-01  -1.11117542e+00  -2.25684550e-01
C     1.761398102452360e+00   3.558204110985654e+00   5.371308453070537e+00 -2.41437300e-01  -4.90470060e-01   3.46355220e-01
C     8.744851880507938e-01   4.415747724321975e+00   4.514170304160460e+00  4.86639710e-01   3.23937990e-01  -2.46899112e+00
C     2.647265652223429e+00   6.247723080273077e+00   4.470338846190599e+00  1.80018220e-01  -5.15931840e-01  -6.50743370e-01
C     8.356915402759534e-01   6.249391142725086e+00   6.212993175541638e+00  1.06294305e+00  -1.76964830e-01   7.46838280e-01
C     2.632824749502446e+00   4.473250882601108e+00   6.253723299806619e+00  2.01042960e-01   1.05344040e-01  -5.68110660e-01
C     3.543711316779545e+00   3.557494192818595e+00   3.582206197551667e+00  1.40308110e-01   9.44275550e-01  -4.60990490e-01
C     5.331662150002427e+00   5.284094291850816e+00   3.621155875203017e+00 -3.95886600e-02   8.48705320e-01  -2.32803817e+00
C     3.550099371851235e+00   5.370623272214195e+00   5.350023845387923e+00 -2.46050900e-01  -4.10771160e-01   3.29824410e-01
C     5.310815350068979e+00   3.556650423053600e+00   5.336810851590320e+00  2.25236710e-01   3.47353740e-01   1.11285782e+00
C     4.389077633493998e+00   4.463710810771258e+00   4.504805241695514e+00  1.71890927e+00  -9.87950490e-01  -1.30129833e+00
C     6.290472494151722e+00   6.211591678937879e+00   4.389683981943484e+00 -1.41250018e+00  -7.70741580e-01   1.68921137e+00
C     4.523498758248912e+00   6.247000366945302e+00   6.158353645314973e+00 -1.32914502e+00  -3.59376660e-01   1.58120380e+00
C     6.227949865407928e+00   4.440013106861834e+00   6.261471480462419e+00 -1.58163440e-01   5.43964260e-01  -8.73582050e-01
