64
Lattice="7.10842262195238 0 0 0 7.10842262195238 0 0 0 7.10842262195238 " PBC="1 1 1" Properties=species:S:1:pos:R:3:force:R:3 Energy="-513.96499012"
C     3.628067821021800e-03   1.431010774477440e-02   2.921490612593800e-03 -6.37517190e-01  -6.20842020e-01   2.47864000e-03
C     1.776067469876349e+00   1.779246640808918e+00   7.078696405035005e+00 -2.46213690e-01   3.59471450e-01   1.33931596e+00
C     7.094312258930847e+00   1.778831722180588e+00   1.771825589762090e+00  1.36542283e+00  -6.66362700e-01   4.52316780e-01
C     1.810067268520488e+00   7.092903724988695e+00   1.769328685232589e+00 -8.16252950e-01   7.11284220e-01  -7.46569960e-01
C     9.053894108123748e-01   8.881148775823817e-01   8.847995092724138e-01 -7.03667580e-01   1.03842490e-01  -1.81068990e-01
C     2.650480791774454e+00   2.655079656872690e+00   8.866238859378368e-01  2.82498220e-01   5.42368600e-01  -3.34741120e-01
C     9.101742322463492e-01   2.646762375901933e+00   2.670653357822395e+00 -1.75366193e+00   1.05292833e+00  -3.17303330e-01
C     2.656596665344024e+00   8.736633833116956e-01   2.633765762488882e+00  5.00542430e-01   4.99941900e-01   1.11748645e+00
C     3.558933364062240e+00   1.626648781825080e-02   7.093847225923047e+00  1.12194744e+00  -3.35527860e-01   6.52014710e-01
C     5.355251948056480e+00   1.781329479720804e+00   7.107886716018678e+00 -1.27169016e+00  -1.66240720e-01   1.07998630e+00
C     3.542166514375767e+00   1.764478253057832e+00   1.757171434362508e+00  4.96051320e-01   5.99347390e-01   4.35986300e-01
C     5.328353392525496e+00   7.099630496398227e+00   1.776229044322502e+00 -4.06826910e-01  -6.22693930e-01  -1.67245850e-01
C     4.461529804542990e+00   8.832018202043426e-01   9.000518384354691e-01 -6.88531290e-01   3.47170040e-01  -8.44118030e-01
C     6.237340589278531e+00   2.638797885945806e+00   9.290004630500620e-01 -9.98468690e-01   1.71812161e+00  -1.88976875e+00
C     4.432676859296863e+00   2.662242174588828e+00   2.666762918122469e+00  1.25172460e-01  -7.82266800e-02  -3.30233500e-02
C     6.200255024375050e+00   8.701185551195539e-01   2.628966653125441e+00  1.46155883e+00  -6.92524200e-02   9.20839860e-01
C     7.061325410510059e+00   3.538900549603008e+00   7.092418717313332e+00  2.52424269e+00   5.33285190e-01   9.78018160e-01
C     1.801686722588412e+00   5.326229466930866e+00   4.019571305240920e-02 -9.79441870e-01   5.39185690e-01  -1.80037072e+00
C     1.655558736620620e-02   5.302173214184488e+00   1.795017458317876e+00 -9.38270500e-02   1.52263071e+00  -5.60898400e-01
C     1.768577182793203e+00   3.561440362551861e+00   1.799135509710095e+00  4.74723970e-01  -1.17659080e+00  -7.72534650e-01
C     9.061091386026497e-01   4.433341070306475e+00   8.910693512759325e-01 -1.09255542e+00  -4.01509900e-02   4.57170230e-01
C     2.698303273624314e+00   6.258849752031710e+00   8.534499438336898e-01 -7.57863940e-01  -1.80855552e+00   1.58491229e+00
C     9.459887401011475e-01   6.215620448541990e+00   2.666110436010180e+00 -1.43499145e+00  -3.41918550e-01  -7.31585970e-01
C     2.655622242771274e+00   4.431959121864921e+00   2.683603197814607e+00  3.30847810e-01   8.74260190e-01  -5.33913170e-01
C     3.524938967819292e+00   3.567474204924396e+00   7.096691092560630e+00  1.05329205e+00  -6.15963870e-01   1.31627573e+00
C     5.339270507985291e+00   5.314361315608740e+00   6.145515691894800e-03 -4.98366530e-01   1.18031492e+00  -3.83552300e-02
C     3.540073439335308e+00   5.334750546378139e+00   1.787047139455201e+00  9.36141900e-02   3.17296270e-01  -8.55740300e-02
C     5.351813604035186e+00   3.574828294630144e+00   1.798019984948338e+00 -1.25393735e+00  -8.17528920e-01   2.66452200e-02
C     4.406833762356495e+00   4.471788111394365e+00   9.357772777548390e-01  1.48388814e+00  -1.39779239e+00  -2.01386081e+00
C     6.203013874278099e+00   6.213769983965552e+00   8.970594768493539e-01  1.27973775e+00  -2.32644170e-01  -1.06648530e-01
C     4.422558730539555e+00   6.194429032279925e+00   2.670423329266412e+00  2.75675270e-01   9.38528360e-01  -3.01499900e-02
C     6.221607659662137e+00   4.468657562072517e+00   2.698000668073381e+00  1.48421460e-01  -6.69654490e-01  -1.27799977e+00
C     2.942282748757300e-02   7.087010558299810e+00   3.516300172893433e+00 -9.56059770e-01  -8.29752000e-03   9.07503280e-01
C     1.748972011038790e+00   1.757671796230730e+00   3.539724273616214e+00  9.65420950e-01   2.88202000e-01   5.23181980e-01
C     7.060824124546896e+00   1.773028477037847e+00   5.333246119814842e+00  1.88482752e+00   3.52323850e-01  -9.97896900e-01
C     1.797568102522384e+00   2.031075378367360e-02   5.354283638727184e+00 -5.84631900e-01  -9.06724790e-01  -3.66218980e-01
C     8.948293514207815e-01   8.550809003196226e-01   4.433744828711291e+00 -7.54461850e-01   1.13814099e+00   4.31758300e-01
C     2.621602469459573e+00   2.683374662027374e+00   4.433639624056515e+00  1.23471726e+00  -1.17108802e+00   6.21625250e-01
C     8.795458873666504e-01   2.693448505311759e+00   6.207573785220376e+00 -8.41509020e-01  -1.62038209e+00   1.61284890e-01
C     2.682647683646026e+00   8.835142353784916e-01   6.254081635390893e+00 -3.56963150e-01   9.83900280e-01  -1.80638985e+00
C     3.542680666583871e+00   7.107427156496295e+00   3.537491660239724e+00  5.91118980e-01  -8.85872200e-02   8.22329540e-01
C     5.341375809512657e+00   1.736122257637069e+00   3.522112232480223e+00 -2.81682710e-01   1.95214374e+00   4.21598050e-01
C     3.559197370878346e+00   1.770304387321410e+00   5.342113166191029e+00  1.10366480e-01   6.59940050e-01  -5.62863570e-01
C     5.335454991059780e+00   2.332785268050640e-02   5.301620036736200e+00 -2.21870980e-01  -1.43945865e+00   7.67388490e-01
C     4.470747296154344e+00   8.834491222272924e-01   4.419876225095445e+00 -1.38682813e+00   3.80350250e-01   2.07272900e-01
C     6.234231649561448e+00   2.689542355997843e+00   4.399608335100170e+00 -9.09367340e-01  -1.17884082e+00   1.23674418e+00
C     4.464061611427556e+00   2.684765140576072e+00   6.239655162767829e+00 -9.57196450e-01  -7.94564850e-01  -1.60379850e-01
C     6.182483114814336e+00   8.876417409727946e-01   6.220328499011668e+00  1.55737114e+00   3.92727620e-01  -2.99738900e-01
C     6.350735852934200e-03   3.605553029720570e+00   3.542722037603520e+00  2.30504220e-01  -1.89695329e+00   7.21109500e-01
C     1.801818299491108e+00   5.347774100712919e+00   3.548872244854344e+00 -2.57998400e-01  -4.67707900e-01   1.26539196e+00
C     1.459046393290720e-02   5.338036699071139e+00   5.319369910186792e+00 -5.68457280e-01   2.18411560e-01   3.39927500e-01
C     1.754631310623477e+00   3.565286445694638e+00   5.341535393600476e+00  5.15229800e-02  -5.81450000e-03  -8.27074370e-01
C     8.903014994645200e-01   4.459374530804606e+00   4.441751329445102e+00  2.94679730e-01   3.27268690e-01  -1.43937290e-01
C     2.679348309286953e+00   6.229390955925680e+00   4.480192257289539e+00 -9.11384900e-02  -1.34878390e-01  -1.13963956e+00
C     8.790277544418786e-01   6.239981652618766e+00   6.223016904446552e+00  6.97065920e-01  -5.66162950e-01   3.03088230e-01
C     2.649135736046298e+00   4.427278509906555e+00   6.220228412421180e+00  3.79558780e-01   9.93294310e-01   3.27879920e-01
C     3.536024552895182e+00   3.565255310803563e+00   3.566084863723317e+00  3.27813430e-01  -8.70607240e-01   1.39374800e-02
C     5.312954416603790e+00   5.326799988930347e+00   3.550993966837962e+00 -2.80743600e-02  -1.70246760e-01   8.40668290e-01
C     3.556626325500919e+00   5.326386065481184e+00   5.349443300512547e+00 -1.54278700e-02   2.88370430e-01  -1.17161930e-01
C     5.318663404062590e+00   3.536102816628229e+00   5.349834974598910e+00  9.16320010e-01   1.03856374e+00  -1.32546534e+00
C     4.432498793310232e+00   4.429439612551489e+00   4.470053443022405e+00 -7.13844200e-02   2.45103680e-01  -5.77857380e-01
C     6.197274320602031e+00   6.193363124308056e+00   4.429003226486847e+00  1.23692295e+00   1.22844206e+00  -8.33950200e-02
C     4.453993668133945e+00   6.238072685724164e+00   6.216516820634371e+00 -1.39832610e-01  -7.04797860e-01  -1.00471740e-01
C     6.244713942809578e+00   4.451857729305088e+00   6.204232186830940e+00 -1.45354984e+00  -6.66730280e-01   7.00128300e-01
