64
Lattice="7.10842262195238 0 0 0 7.10842262195238 0 0 0 7.10842262195238 " PBC="1 1 1" Properties=species:S:1:pos:R:3:force:R:3 Energy="-508.33803171"
C     8.552811445848280e-02   7.066557493895283e+00   7.068229537063960e+00 -2.73728832e+00   2.83936477e+00   1.56460826e+00
C     1.834266400561527e+00   1.790806855263145e+00   2.626860711840040e-02 -1.59728492e+00  -3.18871410e-01  -4.79509820e-01
C     7.088332014064868e+00   1.795420363711977e+00   1.730459119504167e+00  3.53372020e-01  -4.92773750e-01   1.91536345e+00
C     1.734255656941283e+00   8.020433242146000e-03   1.796310977982037e+00  7.97852270e-01  -2.83315870e-01   5.96556700e-01
C     8.667065833461801e-01   8.793854502681170e-01   8.977883034205827e-01  1.82496111e+00   2.42890340e-01  -5.17521600e-01
C     2.643601331447045e+00   2.724808093626377e+00   9.241348899351243e-01  1.15244736e+00  -1.94982911e+00  -5.37316110e-01
C     8.062820766229060e-01   2.653509264147479e+00   2.742922060483566e+00  1.86001966e+00   5.06861190e-01  -2.05729576e+00
C     2.641004980085090e+00   9.558572210560412e-01   2.693992370726415e+00  1.25181520e+00  -1.42731798e+00  -1.12714483e+00
C     3.461174000054202e+00   7.063682634535077e+00   4.473735534855340e-02  2.26603583e+00   1.56997570e+00  -2.18989776e+00
C     5.289399378736348e+00   1.740755456416558e+00   4.676631241698000e-03  4.31465410e-01   9.47216920e-01  -1.22809379e+00
C     3.610429976311698e+00   1.833085193974762e+00   1.833989385332026e+00 -3.25124097e+00  -9.57968190e-01  -2.30555825e+00
C     5.343475068880796e+00   4.016969622562000e-02   1.778932661781792e+00  4.93412750e-01  -3.50528580e-01  -1.39876740e-01
C     4.388898785580878e+00   9.217886128809409e-01   9.223496095941115e-01  9.67435310e-01  -1.98819657e+00  -2.46585870e-01
C     6.232934220264845e+00   2.651981806294894e+00   7.980528690084105e-01 -1.28938830e-01   5.59344030e-01   1.40776791e+00
C     4.508641373046624e+00   2.694066156153211e+00   2.592871575829832e+00  1.34365540e-01  -2.01579741e+00   3.18718693e+00
C     6.268768205197623e+00   9.284501289708217e-01   2.711927560754711e+00 -2.00396086e+00  -1.49461264e+00  -1.13514859e+00
C     5.649454419358099e-02   3.610930053843016e+00   7.050458907019317e+00 -1.97357446e+00  -2.24102224e+00   5.84560980e-01
C     1.766524412508999e+00   5.238982251545962e+00   8.595568607907579e-02  6.93669720e-01   2.03225635e+00  -2.41117232e+00
C     6.974704020652620e+00   5.370535980784421e+00   1.686238830816992e+00  3.22711319e+00  -9.52100390e-01   2.22413240e+00
C     1.719693626698856e+00   3.511129079774287e+00   1.833658772595970e+00  2.69403300e-01   2.02606930e+00  -1.07222602e+00
C     8.179511210274456e-01   4.455212904781727e+00   8.957751270503724e-01  1.32664515e+00  -1.28995392e+00   1.17875023e+00
C     2.649859657805919e+00   6.143289333930215e+00   9.101840418695647e-01  2.59028180e-01   1.23729974e+00   1.19645832e+00
C     8.178388790342758e-01   6.237064924649327e+00   2.702897660416299e+00  4.73955260e-01  -1.95226600e-02  -1.97128495e+00
C     2.687394119597852e+00   4.425552158389063e+00   2.605312452762451e+00 -8.04817020e-01  -7.78165710e-01   2.20637967e+00
C     3.562835888080620e+00   3.569978075708065e+00   7.089312478796844e+00 -6.09661480e-01  -3.85405610e-01   3.95512050e-01
C     5.253412918138372e+00   5.390900047737745e+00   7.048958247920009e+00  3.36238653e+00  -3.56023990e+00   2.11901655e+00
C     3.630917161144800e+00   5.251397182736019e+00   1.797434037671771e+00 -1.12137770e+00   2.35322521e+00  -6.06235960e-01
C     5.358578405505736e+00   3.509499473888653e+00   1.709494106502549e+00  1.16856594e+00   8.58376480e-01   3.68448290e-01
C     4.519218350484052e+00   4.369383037783026e+00   8.872284572816678e-01 -2.85114512e+00   3.12221616e+00  -1.93216470e+00
C     6.209987023615640e+00   6.259066701090073e+00   7.669258682819188e-01 -1.49896168e+00   3.72429310e-01   2.64372735e+00
C     4.516537906482503e+00   6.259607225546098e+00   2.722128218298637e+00 -1.31045268e+00  -6.79907500e-01  -1.87478900e+00
C     6.170518360028804e+00   4.450035911671807e+00   2.562734067532043e+00  5.58527850e-01   1.27983120e-01   3.68129266e+00
C     7.086716838277152e+00   1.315321196336940e-02   3.639393315361115e+00  4.84273970e-01   1.19759540e-01  -2.01266142e+00
C     1.736052239674261e+00   1.789176467451022e+00   3.570194527176844e+00  3.99695780e-01  -1.14865983e+00   5.55827700e-01
C     1.162912350310568e-01   1.752350644310076e+00   5.398431705840539e+00 -3.19676104e+00   3.16702320e-01  -9.78509920e-01
C     1.805337110856461e+00   7.023830471547892e+00   5.314389322793863e+00  4.99164410e-01   1.75706805e+00  -1.31426340e-01
C     8.933448284408205e-01   8.331168696029894e-01   4.495167997728450e+00  8.21702350e-01   6.21393490e-01  -4.00903720e-01
C     2.674967743847378e+00   2.662374675586465e+00   4.402409195780902e+00 -3.45903130e-01   1.36472816e+00  -1.66953923e+00
C     9.737767725545730e-01   2.640967234360978e+00   6.220834192196856e+00 -1.68884850e-01   2.12236214e+00   4.32371700e-02
C     2.648623432028075e+00   9.421541726030148e-01   6.139399960493683e+00 -1.02083630e-01  -3.02938096e+00   3.25746282e+00
C     3.609832726643166e+00   6.572795867160379e-02   3.532717430355453e+00 -1.93709068e+00  -4.81281790e-01   4.63726090e-01
C     5.365117088052743e+00   1.738015372749227e+00   3.621332377336671e+00  5.58693510e-01   2.57536591e+00  -8.92674350e-01
C     3.478388609281508e+00   1.855235323195587e+00   5.293948627044696e+00  2.44721868e+00  -2.79528244e+00   9.92826190e-01
C     5.283023550151565e+00   7.074972942182423e+00   5.379453425876984e+00  5.67936610e-01   3.25886617e+00  -3.41986880e-01
C     4.419785024033231e+00   9.779665479310271e-01   4.512380474428970e+00  3.77125310e-01  -3.39056890e+00  -2.07789945e+00
C     6.278445611752490e+00   2.630418832782481e+00   4.543773685582581e+00 -1.07309205e+00   3.62648590e-01  -1.74996697e+00
C     4.376050951453264e+00   2.632955402310202e+00   6.181645742629700e+00  2.02143926e+00   1.74856050e+00   2.19426752e+00
C     6.229983869456414e+00   9.323842854698605e-01   6.225626050969224e+00  3.45874170e-01  -3.18067086e+00   5.16224340e-01
C     7.054494571793369e+00   3.535509618760590e+00   3.624412954447501e+00  5.26539950e-01   1.36246738e+00  -2.19640286e+00
C     1.758493885306732e+00   5.346757098688675e+00   3.484271255504915e+00 -2.04544240e-01  -1.21176615e+00   5.29855550e-01
C     7.081530177712469e+00   5.401139801606081e+00   5.414623413052828e+00  1.52805139e+00  -1.54679231e+00  -2.56321095e+00
C     1.865485384276722e+00   3.566447606529616e+00   5.256060592311643e+00 -3.66197069e+00   4.15358790e-01   1.90446712e+00
C     8.077427153028636e-01   4.475499276675815e+00   4.449818251771183e+00  2.99838260e+00  -1.70472250e-01  -1.82768610e-01
C     2.710330084939319e+00   6.195558205213112e+00   4.286937561877932e+00 -7.43729810e-01   8.58134080e-01   4.10420290e+00
C     9.562066711120404e-01   6.168656237639269e+00   6.302540321065242e+00 -4.95346420e-01   6.11706810e-01  -2.64277928e+00
C     2.640996734314850e+00   4.447198016109225e+00   6.195517900456856e+00  1.64485780e+00  -1.33686450e-01   1.14505070e-01
C     3.639611899356680e+00   3.494101635314566e+00   3.488615425820676e+00 -2.37864127e+00   1.77314779e+00   8.85314990e-01
C     5.346600571222583e+00   5.364978118390522e+00   3.616634349742887e+00 -2.02511700e-02  -1.80439874e+00  -1.93650862e+00
C     3.558590809176182e+00   5.327104371586935e+00   5.250312721781111e+00 -8.01543040e-01  -1.62618020e+00   8.55396750e-01
C     5.372123789145051e+00   3.517337505006369e+00   5.366364260801421e+00 -1.09628605e+00   3.02492340e-01  -4.33773500e-01
C     4.463749836011442e+00   4.335287133265064e+00   4.426935741767820e+00  7.26375520e-01   3.09139740e+00   2.49746580e-01
C     6.203784356205881e+00   6.274888628157669e+00   4.505457012965542e+00 -1.29017040e-01  -1.42893823e+00  -1.48485800e-01
C     4.394660019945936e+00   6.154624282471615e+00   6.201757602748466e+00 -1.27656062e+00   3.12816586e+00  -3.89889480e-01
C     6.231642690959017e+00   4.498726971681605e+00   6.205826037350797e+00 -1.31628448e+00  -1.42181736e+00   6.73640350e-01
