64
Lattice="7.10842262195238 0 0 0 7.10842262195238 0 0 0 7.10842262195238 " PBC="1 1 1" Properties=species:S:1:pos:R:3:force:R:3 Energy="-501.37464902"
C     8.325185536710640e-02   7.079336589576162e+00   7.104540141733408e+00 -2.79343166e+00   3.53675765e+00   1.86022481e+00
C     1.790594029089902e+00   1.757176339174116e+00   1.931159390020640e-02  1.48315526e+00   1.13060289e+00  -9.25658100e-02
C     7.106954233139386e+00   1.836735795495489e+00   1.808411787976516e+00 -1.36233900e-01  -3.17552422e+00   5.03714850e-01
C     1.749575373950776e+00   7.015711089062876e+00   1.781568607057741e+00  2.10517744e+00   5.31024032e+00  -9.08570250e-01
C     9.466656041030239e-01   9.663991539699536e-01   9.427991908715535e-01 -1.80064048e+00  -3.26905671e+00  -1.59592366e+00
C     2.711238754602833e+00   2.693028184282238e+00   9.962425157397257e-01 -1.75053034e+00  -1.68626820e-01  -5.38027645e+00
C     9.467175666723762e-01   2.674676440688410e+00   2.680769354052917e+00 -1.89410380e+00   1.28811178e+00  -1.21966000e+00
C     2.706265773222107e+00   8.556971294765504e-01   2.653700836137089e+00 -1.92929010e+00   1.03711832e+00  -3.74045810e-01
C     3.480061434376672e+00   7.058155907032253e+00   7.031387933224797e+00  2.46678801e+00   4.99400390e-01   1.20308714e+00
C     5.230213159233478e+00   1.771714769453444e+00   7.089629798782601e+00  2.12345979e+00  -4.04292799e+00   1.55811850e+00
C     3.566278639323938e+00   1.755468896060792e+00   1.754801344092547e+00 -1.95179008e+00  -2.67308915e+00  -1.03027722e+00
C     5.368054217195101e+00   7.048286430898193e+00   1.777464346005405e+00 -1.40513882e+00   2.40072133e+00   8.16191260e-01
C     4.391570201885700e+00   7.351805769559394e-01   8.492104094988956e-01  1.08002829e+00   4.37613305e+00   2.72325230e-01
C     5.997581313570813e+00   2.580119989744492e+00   1.000227852881629e+00  5.69814099e+00   1.99415452e+00  -2.94045308e+00
C     4.318178937124380e+00   2.647158741547224e+00   2.550382614555984e+00  4.64247127e+00   1.56604596e+00   4.71731577e+00
C     6.308003996859426e+00   8.884432156231996e-01   2.724762102132026e+00 -2.63704380e+00  -3.68922190e-01  -2.08002573e+00
C     7.022992459605221e+00   3.443278119602994e+00   1.786941579379294e-01  2.18063232e+00   3.04279114e+00  -5.28893880e+00
C     1.659959489980436e+00   5.365420759867069e+00   1.328495946820848e-01  3.39096414e+00   1.10177100e-02  -6.87953628e+00
C     7.744747287674539e-02   5.199623270920154e+00   1.852895728058666e+00 -4.66834290e+00   1.84981584e+00  -1.89200952e+00
C     1.785816244994322e+00   3.610985854960583e+00   1.744773563386740e+00  1.04790879e+00  -3.59455888e+00   2.40688282e+00
C     9.287229502309773e-01   4.414008861980672e+00   8.830530409189059e-01 -4.20383865e+00  -1.30228752e+00   3.14302515e+00
C     2.631336459058497e+00   6.207685458539737e+00   8.777937322750465e-01 -5.73550630e-01  -2.45771090e-01  -1.01091830e-01
C     8.473536895105517e-01   6.212736632569283e+00   2.550308829129188e+00  2.79169941e+00  -2.30887591e+00   5.42244834e+00
C     2.707186527204076e+00   4.335972385205633e+00   2.636740281934221e+00 -2.30987291e+00   5.48452841e+00  -4.09010050e-01
C     3.547765605620862e+00   3.670947887708199e+00   7.089983300639493e+00  7.31737800e-02  -3.39780092e+00   1.83629491e+00
C     5.385750706391817e+00   5.399340873093638e+00   1.184755111337304e-01 -6.19695720e-01  -8.66213760e-01  -5.70976807e+00
C     3.544933112459471e+00   5.329303148871754e+00   1.692280705707088e+00  8.64163460e-01  -1.00173921e+00   2.53482133e+00
C     5.213828458347057e+00   3.575294109564432e+00   1.734837765669635e+00  7.17925450e-01  -1.43927341e+00   2.27114695e+00
C     4.515280426521025e+00   4.496008071113681e+00   8.252749288528315e-01 -3.60735789e+00  -1.93983820e-01   1.55019600e+00
C     6.205343659791803e+00   6.268621700607425e+00   9.040485490535642e-01  3.71409378e+00  -2.29961300e+00   7.14361170e-01
C     4.390519434854013e+00   6.185830826447225e+00   2.638136305052563e+00  2.29570890e+00   1.84463575e+00  -3.60577400e-01
C     6.125083313000098e+00   4.317938388102919e+00   2.698479846842195e+00  2.66251961e+00   2.96364858e+00  -3.88480470e-01
C     1.341742492373218e-01   7.108172403523776e+00   3.517799481392443e+00 -3.11153939e+00   6.95445590e-01   1.87691110e-01
C     1.907978113014558e+00   1.902014430773283e+00   3.524476351675183e+00 -2.93981665e+00  -4.61760998e+00  -4.31384340e-01
C     3.472912280495060e-02   1.797738491412586e+00   5.314992685705849e+00 -3.19869140e-01  -5.77804360e-01   3.35886060e-01
C     1.746398335544993e+00   7.099373384752061e+00   5.191495998086029e+00  2.07625274e+00   1.13645062e+00   3.74344507e+00
C     9.496771584302133e-01   9.852346257230723e-01   4.353663898506515e+00  5.87544060e-01  -1.94134342e+00   1.27389643e+00
C     2.756240401104398e+00   2.689188854140950e+00   4.397136878723649e+00 -2.23081045e+00   2.89333196e+00   3.28611409e+00
C     9.276947168989941e-01   2.642734103887405e+00   6.248156196463314e+00 -1.62434901e+00   3.90533240e-01   8.35589430e-01
C     2.690564902591730e+00   8.795008910514658e-01   6.183646763597229e+00 -2.24399581e+00   6.33067350e-01  -6.33029800e-01
C     3.543680750562280e+00   1.217743879032200e-02   3.494507526246168e+00  7.98785440e-01  -1.27442330e+00   1.65660053e+00
C     5.282015220402918e+00   1.760125197213796e+00   3.509261341730882e+00  1.93696497e+00   1.73358867e+00  -1.22342840e-01
C     3.518729191986913e+00   1.891513442373661e+00   5.361087963027500e+00  1.14819598e+00  -5.48271520e+00  -2.44612436e+00
C     5.467600922986711e+00   7.028802173412546e+00   5.252155153839989e+00 -3.17245736e+00   4.32703596e+00   3.10713090e+00
C     4.454259452055707e+00   9.228623401176919e-01   4.325623801386984e+00 -2.31283900e-01  -2.25457662e+00   3.70126746e+00
C     6.168180826334443e+00   2.686997327447204e+00   4.444745041631515e+00 -1.13911329e+00  -2.75443465e+00   2.50618407e+00
C     4.367458645611340e+00   2.601338204759835e+00   6.255335418972608e+00  1.30628430e+00   5.43150908e+00  -3.16993810e-01
C     6.336155482961413e+00   8.493657996173687e-01   6.241718880022868e+00 -3.08093101e+00   1.61394760e+00  -1.98390420e+00
C     7.035099525011605e+00   3.383385251807470e+00   3.559702495389724e+00  1.83022307e+00   5.95552631e+00   7.02730390e-01
C     1.823805290412804e+00   5.270846893287731e+00   3.525555765650030e+00 -1.33536466e+00  -2.01038400e-01   7.00137140e-01
C     7.077445962411921e+00   5.373017104615705e+00   5.311041895497878e+00  3.03563734e+00  -3.71073643e+00   3.17940881e+00
C     1.796938225194026e+00   3.626791503740379e+00   5.404842294611934e+00 -1.43609942e+00  -2.23119605e+00  -5.48298060e-01
C     8.456761017722316e-01   4.383449326631934e+00   4.546523152367770e+00  7.79460340e-01   1.42645404e+00  -3.74809155e+00
C     2.693550724429035e+00   6.139089535677868e+00   4.438762308817618e+00 -2.28109969e+00   4.32035996e+00  -2.27275468e+00
C     8.616266912892496e-01   6.282800729039087e+00   6.190821863221406e+00  1.42086049e+00  -2.26933019e+00   2.76615200e-02
C     2.588683506474806e+00   4.503389883667647e+00   6.306026149349638e+00  2.15376035e+00   5.07835450e-01  -1.80965829e+00
C     3.535278452856987e+00   3.595445279260286e+00   3.551451749254690e+00  2.68049926e+00  -9.41427910e-01  -1.02783058e+00
C     5.307914971471567e+00   5.431048205442826e+00   3.580938126040486e+00  2.01579080e+00  -3.44673872e+00  -2.12007726e+00
C     3.559137873381017e+00   5.422883329053041e+00   5.327783439199824e+00  9.18920100e-02  -3.00229732e+00   1.12266450e+00
C     5.263376723040599e+00   3.586399242802527e+00   5.471639004624455e+00  2.23083384e+00   8.74513570e-01  -4.39650160e+00
C     4.435550794562129e+00   4.604240274167766e+00   4.375964797371109e+00 -1.22590899e+00  -5.02150018e+00   4.34104623e+00
C     6.339771537548207e+00   6.192016860148054e+00   4.454682829706954e+00 -2.81522596e+00   2.25441999e+00  -3.95475818e+00
C     4.477718099712422e+00   6.222696883260200e+00   6.199675474678841e+00  1.18120910e-01   4.77106910e-01  -7.85845500e-02
C     6.251886625570063e+00   4.523866476951045e+00   6.284472772207763e+00 -2.08875576e+00  -2.93317374e+00   1.02840554e+00
