64
Lattice="7.10842262195238 0 0 0 7.10842262195238 0 0 0 7.10842262195238 " PBC="1 1 1" Properties=species:S:1:pos:R:3:force:R:3 Energy="-505.89821328"
C     8.444806072560000e-04   8.516778851587500e-02   3.343972602590880e-02  4.57875210e-01  -1.33498032e+00  -5.87919500e-01
C     1.802427064804285e+00   1.637274025452099e+00   2.525238702064520e-02 -6.67007030e-01   5.33996714e+00  -2.38014764e+00
C     7.070988813472365e+00   1.809675239012995e+00   1.891974850085926e+00  1.71092543e+00   5.23658160e-01  -4.63729673e+00
C     1.806917597541791e+00   8.687914126164000e-04   1.770179918841334e+00 -1.15470469e+00  -3.03632340e-01   1.11187151e+00
C     9.247590805253867e-01   9.190724135136128e-01   9.170074167425029e-01 -1.78380423e+00  -1.18190284e+00   1.92990700e+00
C     2.690366008926822e+00   2.659124349343470e+00   7.471001221736078e-01  1.24721860e-01  -1.42297498e+00   4.53462907e+00
C     8.858455136609468e-01   2.710502819608984e+00   2.690847675643553e+00  1.17323573e+00  -1.96940908e+00  -5.30233300e-02
C     2.720190177955520e+00   8.174938362003009e-01   2.696320663471370e+00 -2.17968870e+00   3.51965262e+00  -2.37947838e+00
C     3.601426519305433e+00   4.328496243883500e-02   6.968457920780653e+00 -2.40414913e+00  -2.29043793e+00   3.52112694e+00
C     5.299222365786473e+00   1.660445421750739e+00   4.072507728492060e-02  4.52122340e-01   4.89068518e+00  -1.43247796e+00
C     3.554714941742627e+00   1.708776369070607e+00   1.723203054946350e+00  4.29446670e-01   1.36313868e+00   1.45264487e+00
C     5.365390620155161e+00   1.805518020212140e-02   1.777671485440552e+00 -1.97643106e+00  -1.30638001e+00   1.77650087e+00
C     4.399125673204273e+00   8.136575626807393e-01   8.856818066880081e-01  2.06363385e+00   6.53867490e-01  -1.10685307e+00
C     6.138981132232912e+00   2.645648130656248e+00   8.540578561361521e-01  1.12233624e+00  -6.36733010e-01   2.90165297e+00
C     4.445751665358734e+00   2.613781072050787e+00   2.677687995015600e+00 -2.54359420e+00   3.37792187e+00  -1.90245186e+00
C     6.212369482540959e+00   9.103819403553055e-01   2.672501121198238e+00 -8.36815030e-01   2.50130260e-01   3.67436210e-01
C     7.072101281612395e+00   3.501010311258943e+00   1.009069024599480e-02  6.51766310e-01  -2.83380580e-01   2.61274563e+00
C     1.655524118602461e+00   5.331371842022627e+00   7.059528472355949e+00  2.20340746e+00   1.13240490e-01   2.58717565e+00
C     2.924234463725120e-02   5.340724606916439e+00   1.840203710554882e+00  2.96301570e-01  -1.67516864e+00   2.40025640e-01
C     1.887577011179384e+00   3.483535391595293e+00   1.769465095862667e+00 -4.09712492e+00   2.33603655e+00  -9.50342300e-02
C     8.478351429746042e-01   4.341017161654820e+00   1.006624082639331e+00  9.04081320e-01   2.38513888e+00  -4.06214783e+00
C     2.549844862384781e+00   6.276295953667976e+00   8.150228063291366e-01  3.54435259e+00  -1.29815336e+00  -3.12187200e-02
C     9.734002394083915e-01   6.167732142698669e+00   2.704357161748637e+00 -2.37956981e+00   9.73219390e-01  -7.48581880e-01
C     2.635606062020974e+00   4.509881153035778e+00   2.678816741443430e+00  2.61563359e+00  -2.98409714e+00  -2.19988194e+00
C     3.517653474391828e+00   3.604461531427268e+00   7.019361619499377e+00  2.62964976e+00  -7.99353570e-01   2.48987779e+00
C     5.413549614731850e+00   5.399182070932307e+00   7.074557810301415e+00 -1.10144986e+00  -1.67515395e+00   1.39993591e+00
C     3.513022905728707e+00   5.472591248918630e+00   1.754414006143984e+00 -4.81093900e-01  -3.52808036e+00  -1.31335913e+00
C     5.272382028236747e+00   3.544649983986516e+00   1.782162657936094e+00  9.32719940e-01   1.23201545e+00  -1.68144646e+00
C     4.431073767827600e+00   4.567186199576491e+00   7.922845262207330e-01 -6.20527590e-01  -2.35416289e+00   3.09599617e+00
C     6.303887793657090e+00   6.248242279461242e+00   1.017524066800613e+00 -1.85724103e+00   4.27847520e-01  -4.89295890e+00
C     4.386361149789765e+00   6.192600959234739e+00   2.707956866963405e+00  3.22076814e+00   1.14230233e+00  -1.38426036e+00
C     6.206293771559193e+00   4.452032738669992e+00   2.678484991359754e+00 -5.74558200e-01  -1.29555379e+00   6.30078500e-02
C     1.818597517832940e-02   3.220954240729160e-02   3.480840872916956e+00  1.68851220e+00  -1.00275947e+00   2.18843837e+00
C     1.826120361491686e+00   1.823137951697239e+00   3.579491562037316e+00 -5.20574760e-01  -5.88697860e-01  -3.82023680e-01
C     7.027280544466509e+00   1.842669409109082e+00   5.341254824159664e+00  3.57412954e+00  -9.56573680e-01  -1.06895519e+00
C     1.808358403722639e+00   7.098297382820072e+00   5.315284202117494e+00 -2.60915235e+00   1.22759097e+00  -1.48182953e+00
C     9.177951721372511e-01   9.566795233847228e-01   4.388573006572204e+00 -1.23460193e+00  -1.45278088e+00   1.92409678e+00
C     2.693718127781735e+00   2.732586413994086e+00   4.496430809006893e+00 -1.32849960e-01  -2.35557732e+00  -7.19779650e-01
C     8.320961001147574e-01   2.649618753363327e+00   6.267043346448880e+00  1.11917997e+00  -2.14625662e+00   7.82861000e-02
C     2.661840193289667e+00   8.684706805877855e-01   6.140521811751571e+00  9.57197210e-01   5.74066580e-01   2.20459633e+00
C     3.530867889873956e+00   7.064410750264044e+00   3.555250490302818e+00  1.27158369e+00   8.97841610e-01  -2.86061300e-02
C     5.276838653798356e+00   1.840415754801637e+00   3.551826292042538e+00  1.64893109e+00  -4.21941270e+00   1.58514770e+00
C     3.612097470089898e+00   1.755390845580424e+00   5.384883407747950e+00 -1.93044153e+00   1.05029459e+00  -3.01852771e+00
C     5.404001226047536e+00   7.071454201901297e+00   5.300640993688748e+00 -2.93064090e-01   1.29738967e+00  -1.43356990e+00
C     4.400621285323520e+00   7.912758410509551e-01   4.444562639507086e+00  2.63489611e+00   3.55485225e+00   2.24942860e-01
C     6.199495631586555e+00   2.676264320133266e+00   4.455845341142229e+00 -1.68054973e+00   9.15346930e-01  -1.52981758e+00
C     4.465459553820005e+00   2.664278240079875e+00   6.239766054160701e+00 -4.97756780e-01  -4.44056420e-01  -8.14076340e-01
C     6.241123123123085e+00   9.777028254518252e-01   6.182093715423213e+00 -2.17539223e+00  -4.42571674e+00   2.15089916e+00
C     7.057396087738402e+00   3.559159909491139e+00   3.568376477007552e+00  2.14698284e+00  -7.25783660e-01  -2.93321380e-01
C     1.771892622187397e+00   5.184293175613635e+00   3.628077061971206e+00  1.62529870e-01   4.92888794e+00  -1.51311868e+00
C     4.851413137078560e-02   5.287312772360473e+00   5.292766212026085e+00 -6.83216370e-01   4.88585860e-01   6.97603740e-01
C     1.721936049698561e+00   3.467367568683007e+00   5.443033858990860e+00  2.53945053e+00   2.24468139e+00  -2.95628033e+00
C     9.159457027399796e-01   4.302163163371936e+00   4.467857509106636e+00 -1.27076380e+00   3.11825770e+00   1.20816863e+00
C     2.660215918720997e+00   6.271335980700645e+00   4.396053697284813e+00 -1.07490558e+00  -4.38499562e+00   2.82757529e+00
C     8.004939724203447e-01   6.282521652367024e+00   6.190937659425885e+00  2.64742578e+00  -2.21314409e+00   2.67194150e-01
C     2.651320296485876e+00   4.454662357449808e+00   6.244909424431628e+00 -2.44019919e+00   1.32493688e+00  -2.27748737e+00
C     3.523731815489964e+00   3.636728012299746e+00   3.526907147874318e+00  1.48039267e+00  -1.44238270e+00   2.30364763e+00
C     5.364671745375600e+00   5.266235304113007e+00   3.588828688401364e+00 -1.57434916e+00   3.35506635e+00  -1.03300344e+00
C     3.559361717609321e+00   5.386644732704735e+00   5.316621580749222e+00 -1.05794695e+00   2.57782400e-01   1.25706874e+00
C     5.335008013445434e+00   3.574037766950573e+00   5.306295814967184e+00 -5.36517710e-01  -5.02421390e-01   2.62387566e+00
C     4.429449848680061e+00   4.551488740988971e+00   4.530888034646628e+00  1.55186472e+00  -4.22041265e+00  -3.55791875e+00
C     6.336896038429964e+00   6.185411713849549e+00   4.355302176667746e+00 -2.87565957e+00   3.33593830e-01   2.19418731e+00
C     4.482276873307080e+00   6.264710717566127e+00   6.156273223266777e+00  1.16890979e+00  -1.09878601e+00   1.28240406e+00
C     6.279836232469641e+00   4.356439950792304e+00   6.249121520255110e+00 -1.88249213e+00   4.43494166e+00  -2.09098033e+00
