64
Lattice="7.10842262195238 0 0 0 7.10842262195238 0 0 0 7.10842262195238 " PBC="1 1 1" Properties=species:S:1:pos:R:3:force:R:3 Energy="-512.95815087"
C     7.080271418234918e+00   5.934182287402200e-03   3.768061096100080e-02  1.15733394e+00   1.35867231e+00  -7.62482110e-01
C     1.786585091984901e+00   1.786879380681369e+00   7.081162956599919e+00  3.13746290e-01   9.84790000e-02   1.40897690e-01
C     1.682208213023000e-02   1.794436273684465e+00   1.840890952853784e+00 -1.02330644e+00   1.23641620e-01  -2.26347348e+00
C     1.747897572959777e+00   5.381083031762620e-02   1.788258912259232e+00  2.68546110e-01  -1.65341679e+00  -2.74531980e-01
C     8.852971699400399e-01   9.524189481189733e-01   9.036219015279119e-01 -8.71640000e-04  -1.16901888e+00  -1.77449870e-01
C     2.719987232489720e+00   2.661854054713776e+00   8.403326294045514e-01 -1.71852283e+00  -2.63803350e-01   1.98779971e+00
C     8.974288304886893e-01   2.684561697520687e+00   2.650684376998291e+00  6.45073000e-01  -2.38088900e-02   9.95834110e-01
C     2.649253949114469e+00   8.595007753362862e-01   2.720159114148671e+00 -8.56343300e-02   1.35249313e+00  -1.80571760e+00
C     3.622802754555618e+00   7.072767340811890e+00   7.076869113916308e+00 -2.82543638e+00   9.88502100e-01   1.52840354e+00
C     5.342463256005065e+00   1.769687305153768e+00   2.086585050606940e-02  3.77458430e-01   4.46184410e-01   9.08179400e-02
C     3.552175244508953e+00   1.765742130599668e+00   1.784918309048963e+00  2.11173030e-01  -4.40784260e-01   1.42999600e-01
C     5.328746701549060e+00   5.719579008504400e-03   1.794620026409192e+00 -3.15536230e-01  -5.94901630e-01   1.19639906e+00
C     4.449861968570295e+00   8.646226781709009e-01   9.218082321273721e-01  2.28627850e-01   4.29189290e-01  -1.04716668e+00
C     6.224098237695507e+00   2.716256519046065e+00   8.866257341277179e-01 -9.55443040e-01  -2.43564334e+00   1.60145450e+00
C     4.437815040419277e+00   2.692984822904256e+00   2.675552767029004e+00 -5.53442600e-02  -1.15193779e+00  -1.27603991e+00
C     6.218423299581056e+00   8.665634907988395e-01   2.699590893297701e+00 -6.26670370e-01   2.16152927e+00  -1.05336515e+00
C     2.828583528950400e-03   3.518257548146076e+00   1.136914005420180e-02  4.07303700e-02   1.23133447e+00  -9.42503320e-01
C     1.727514171096927e+00   5.344877418495269e+00   7.035086943103567e+00  1.09353120e+00  -9.77327470e-01   2.95528832e+00
C     2.190517297733960e-02   5.335072557922825e+00   1.753995106798987e+00 -1.11792621e+00  -6.83093250e-01   5.86477260e-01
C     1.803700609800885e+00   3.542942043283609e+00   1.751262913480764e+00 -3.13721490e-01   3.26058080e-01  -6.34991800e-02
C     8.846567010619780e-01   4.407083978832720e+00   8.738927010254168e-01  4.55206550e-01   1.18912775e+00  -6.24137830e-01
C     2.582515883588563e+00   6.203559161377279e+00   9.021691531970624e-01  2.48770985e+00   8.81030900e-01  -1.34662335e+00
C     8.486237513800670e-01   6.231691667990869e+00   2.641550480436949e+00  1.60635474e+00   3.69555700e-02   9.25828030e-01
C     2.686765308532888e+00   4.432950817904637e+00   2.640279352304040e+00 -5.15959510e-01  -3.78520660e-01   8.33647410e-01
C     3.583532273791429e+00   3.557442443501921e+00   2.610283870290200e-02 -1.56722890e-01   2.89294660e-01  -2.08974883e+00
C     5.397210834255555e+00   5.380750428668230e+00   7.088016684437445e+00 -1.56678057e+00  -1.60165864e+00   2.35809720e-01
C     3.533968939241931e+00   5.332928941997538e+00   1.752469994725866e+00 -1.51161080e-01   3.77333110e-01   6.68286170e-01
C     5.267564081553363e+00   3.585600682605396e+00   1.792968739834566e+00  2.21089705e+00   2.78286540e-01  -1.71439428e+00
C     4.447705202063162e+00   4.490233757251002e+00   8.356933884658345e-01  6.56903400e-02  -2.29413860e-01   1.88377514e+00
C     6.236631879543317e+00   6.240780354984349e+00   9.218444850827342e-01 -5.71088560e-01  -3.81918940e-01  -8.74222900e-01
C     4.388522750024280e+00   6.213879098252768e+00   2.725706313908640e+00  1.48627346e+00  -5.27597130e-01  -1.97539295e+00
C     6.199301855985935e+00   4.438259885506836e+00   2.639148331180972e+00  1.94641030e-01   7.31624750e-01   8.24625710e-01
C     7.079157457326138e+00   3.927332413323800e-03   3.545555170522948e+00  1.20108638e+00  -5.43363610e-01   5.09806200e-01
C     1.784271442590543e+00   1.804139839234574e+00   3.567483801294933e+00 -6.42973100e-02  -1.40272769e+00   2.01768820e-01
C     7.095748942226575e+00   1.774697961174380e+00   5.298547705395609e+00  1.76465690e-01   3.65347560e-01   9.95367110e-01
C     1.742627672766214e+00   1.715482739307220e-02   5.397597390277631e+00  3.37528660e-01  -1.91929070e-01  -2.40471935e+00
C     8.763520730834844e-01   9.169880818329764e-01   4.450956594569550e+00  1.47665160e-01  -1.04870366e+00  -3.48284480e-01
C     2.722476673175469e+00   2.605119103667187e+00   4.455721583504415e+00 -2.03094219e+00   1.82542591e+00  -3.16161890e-01
C     8.724556623085575e-01   2.666164886527449e+00   6.173167953476184e+00  5.63240460e-01  -3.95902010e-01   1.15772157e+00
C     2.679721430390277e+00   8.756921982116698e-01   6.211706764300096e+00  2.81074020e-01  -2.03103540e-01   1.00571552e+00
C     3.518049768952893e+00   7.079829416516407e+00   3.590811156385855e+00 -2.07704440e-01   4.60064180e-01  -1.57943700e-02
C     5.323056551410203e+00   1.842994121854363e+00   3.545141744663368e+00 -3.48400700e-02  -2.89373248e+00   1.81376820e-01
C     3.586690119456137e+00   1.731225976136412e+00   5.341165613455783e+00 -5.11312780e-01   1.07598619e+00   6.67806200e-02
C     5.370259605312955e+00   2.575736936357000e-03   5.326024744359410e+00 -1.07378581e+00   8.00097900e-02  -1.50462214e+00
C     4.410441073583466e+00   8.778864261060114e-01   4.411822382266985e+00  1.98897979e+00   3.14525540e-01   1.37974487e+00
C     6.225433412716222e+00   2.659686767741164e+00   4.435349768370435e+00 -2.23195450e-01   1.16122415e+00  -3.50260940e-01
C     4.487854354947411e+00   2.654899031853915e+00   6.249150664787852e+00 -1.02797344e+00  -1.20341560e-01  -8.94143250e-01
C     6.230560860120479e+00   9.049588536542813e-01   6.213049616417241e+00 -4.34729180e-01  -6.32466050e-01   5.54283830e-01
C     7.104623381362289e+00   3.573414002865668e+00   3.521276992822373e+00  4.52899280e-01  -2.63755080e-01   4.60173450e-01
C     1.798636996031754e+00   5.327694726085527e+00   3.573790464927623e+00 -9.73019340e-01   4.98839320e-01  -1.79194020e+00
C     9.821778618280199e-03   5.312242436994171e+00   5.319261435657610e+00 -3.78066200e-02   8.17386760e-01  -4.01234700e-01
C     1.761961942534578e+00   3.536465346181849e+00   5.310940458307091e+00  1.55379876e+00   3.13467110e-01  -1.05645670e-01
C     9.190129871005096e-01   4.460884786274452e+00   4.402873091441085e+00 -1.10230706e+00  -1.17775762e+00   1.05010509e+00
C     2.599679667594136e+00   6.210066566864758e+00   4.484196645004062e+00  2.01801220e+00  -5.47980200e-02   9.23730200e-02
C     8.482848217895455e-01   6.251382780574757e+00   6.227045247545306e+00 -4.99977600e-02  -8.90676140e-01  -1.02469300e-02
C     2.672346868427384e+00   4.435930099993132e+00   6.217109947417785e+00 -7.80058820e-01  -4.22659550e-01   1.65343140e-01
C     3.554841187328358e+00   3.499658929034655e+00   3.534868367956039e+00 -9.29651500e-02   2.00238937e+00   1.50230206e+00
C     5.341069791918866e+00   5.315107060225804e+00   3.585204174791652e+00 -1.54543322e+00  -2.31377500e-02  -1.14597039e+00
C     3.554436789165506e+00   5.284646403035711e+00   5.355861139875014e+00 -6.20129100e-02   1.56489761e+00  -7.52184670e-01
C     5.348208140998096e+00   3.555161990441199e+00   5.327131810098249e+00 -2.12638600e-01  -7.60246610e-01   1.04908278e+00
C     4.426408083556737e+00   4.410656387704627e+00   4.485281887885458e+00  7.20189200e-01   2.20245980e-01  -1.67646610e+00
C     6.225501084899564e+00   6.201926854291048e+00   4.394410158890843e+00  1.32882800e-01   3.29544140e-01   2.38193548e+00
C     4.487960128275995e+00   6.230658387678826e+00   6.177650595864582e+00 -2.58410580e-01  -9.05304700e-01   1.08311034e+00
C     6.238695454629903e+00   4.418790413540241e+00   6.224169748427064e+00  3.56397220e-01   1.09150109e+00  -4.20489820e-01
