64
Lattice="7.10842262195238 0 0 0 7.10842262195238 0 0 0 7.10842262195238 " PBC="1 1 1" Properties=species:S:1:pos:R:3:force:R:3 Energy="-509.04808082"
C     2.444273768422720e-02   2.402597086601660e-02   6.996788254795757e+00  8.40161680e-01  -5.68017930e-01   4.72464868e+00
C     1.830297554960103e+00   1.753766713180206e+00   7.088516051126499e+00 -4.61918560e-01   1.34752316e+00   7.61070300e-02
C     7.087646691040073e+00   1.792373409440141e+00   1.767670716740700e+00  1.06613976e+00   3.76225400e-01  -1.21702794e+00
C     1.770458569008038e+00   3.954379961392900e-02   1.850444246349707e+00 -1.88305770e+00  -2.36592897e+00  -2.92561367e+00
C     9.025043864078215e-01   8.903654041838739e-01   9.118159224504382e-01 -1.68348130e-01   1.01257327e+00  -2.15048803e+00
C     2.733864579465388e+00   2.725933214758671e+00   8.667468881024356e-01 -2.75384159e+00  -1.93048374e+00   1.07241880e+00
C     9.029531411278221e-01   2.642163652972150e+00   2.644359515803694e+00 -1.13157982e+00   2.24481760e-01   1.35107650e+00
C     2.584664404325458e+00   9.089196667381454e-01   2.678546337046964e+00  3.39340338e+00   4.14678680e-01   1.75867830e-01
C     3.549597232877358e+00   7.084007676248217e+00   7.038758301218345e+00  3.65157930e-01  -3.11007910e-01   2.43662421e+00
C     5.246200641463894e+00   1.720893244100207e+00   7.108040684452628e+00  1.67979352e+00   8.67040520e-01  -7.34522900e-02
C     3.506032198587295e+00   1.779712668995885e+00   1.791858190968643e+00  2.06047051e+00  -3.19397040e-01  -7.58553370e-01
C     5.476386506839675e+00   7.075390490927122e+00   1.829915761581183e+00 -3.73078743e+00   8.93234250e-01  -1.83473198e+00
C     4.448577334434410e+00   8.046723743206070e-01   8.895922210554964e-01 -6.09849950e-01   1.57197065e+00   8.34188570e-01
C     6.158953596184101e+00   2.690338499331283e+00   7.944498939192374e-01  1.38477146e+00  -2.50925938e+00   2.13943094e+00
C     4.467917148772417e+00   2.643396893212493e+00   2.697952046462660e+00 -2.79503966e+00   9.07313720e-01  -3.19986501e+00
C     6.267485561420070e+00   9.516997890025081e-01   2.690484790668803e+00 -1.79332597e+00  -1.17277976e+00  -1.11640105e+00
C     1.029896702876080e-02   3.522280773180543e+00   7.061421587468107e+00 -6.00930470e-01   6.75453920e-01   8.85139750e-01
C     1.750712721569976e+00   5.343033991257224e+00   7.641156244833280e-02 -5.27437220e-01  -6.93667450e-01  -5.92916360e-01
C     7.090703383850900e+00   5.284089102702303e+00   1.779050661597284e+00 -4.52399590e-01   7.64210910e-01  -7.44080230e-01
C     1.782783791904630e+00   3.507307733942228e+00   1.799032295413652e+00  9.63029600e-02   1.49880057e+00  -1.42335906e+00
C     7.961118431277934e-01   4.365738976011109e+00   9.157914499691256e-01  3.40366203e+00   1.34828864e+00  -3.07977670e-01
C     2.622410839279920e+00   6.187155978592045e+00   9.941267648311090e-01  1.44917598e+00   2.03138743e+00  -2.67760156e+00
C     8.128390278160463e-01   6.212764284333273e+00   2.610057253777074e+00  2.41508965e+00   2.54160830e-01   2.91365147e+00
C     2.708450475830138e+00   4.456125412993456e+00   2.648079708781871e+00 -1.27005627e+00  -8.01017330e-01   7.79807670e-01
C     3.507138766736551e+00   3.681674781778685e+00   2.239160233722620e-02  1.29745261e+00  -2.54644864e+00   9.24692500e-02
C     5.417591463833583e+00   5.347546204683722e+00   7.102130528633681e+00 -2.77431055e+00   1.38039696e+00   1.59549664e+00
C     3.590060080451826e+00   5.385344175702179e+00   1.832654992237800e+00  7.01878400e-02  -1.12434569e+00  -9.77181060e-01
C     5.306398816010947e+00   3.525196719223493e+00   1.733978428459103e+00 -4.66876810e-01   9.34981330e-01   7.73350960e-01
C     4.455576074093383e+00   4.507494002551530e+00   9.171306057065073e-01 -1.79986060e-01  -2.46879020e-01  -9.62831160e-01
C     6.315699006514030e+00   6.257712759833642e+00   8.666549051137328e-01 -1.48664152e+00  -1.76374770e+00  -1.06018320e-01
C     4.495101747229631e+00   6.226169987468106e+00   2.705663618741967e+00  6.12626600e-01  -3.13548000e-02   3.05292700e-02
C     6.160333269930415e+00   4.379549290561471e+00   2.654807333202118e+00  2.48581522e+00   1.03501275e+00  -2.35870370e-01
C     7.085110476933483e+00   8.878576237677639e-02   3.566244376726910e+00  1.91644789e+00  -3.06835568e+00   8.89870300e-02
C     1.779169869844622e+00   1.772139639873442e+00   3.585912244768831e+00 -7.01225830e-01   7.55016070e-01  -1.36284255e+00
C     3.867977084446800e-03   1.813698535131689e+00   5.367288355742022e+00 -7.22436300e-02  -7.86050390e-01  -1.96886980e+00
C     1.769128156630479e+00   7.065986474306219e+00   5.361641922402277e+00  4.70862000e-03   3.75032190e-01  -3.38315192e+00
C     9.193081288076921e-01   9.201162853753598e-01   4.455577424693681e+00 -1.85341963e+00  -9.66670270e-01   1.02872037e+00
C     2.700478948535618e+00   2.665912750777117e+00   4.359583579611773e+00 -2.00822133e+00   1.09337190e+00   2.93571318e+00
C     9.878650264293772e-01   2.706354059831047e+00   6.180184606360159e+00 -3.38395547e+00  -1.48062264e+00   1.35975019e+00
C     2.640142728421284e+00   8.346844189591518e-01   6.123963381016317e+00  1.04126463e+00   1.55867279e+00   3.63756677e+00
C     3.573692937369276e+00   5.608907976733619e-02   3.515674063029063e+00 -9.69548460e-01  -2.03146232e+00   1.57118349e+00
C     5.287032842677697e+00   1.771019494636982e+00   3.493262486024275e+00  1.05648003e+00  -4.20969840e-01   3.92695779e+00
C     3.469078494923415e+00   1.779489891030974e+00   5.297867358266649e+00  3.10486608e+00   4.07833300e-02   5.30947410e-01
C     5.419034189288538e+00   7.097245762777669e+00   5.284163527887134e+00 -4.05458304e+00   3.77548650e-01   5.55255830e-01
C     4.432221991333408e+00   8.797447099473318e-01   4.446315221104046e+00  2.92476040e-01   6.33647700e-01  -1.18937075e+00
C     6.091598093069421e+00   2.611450931115952e+00   4.482129657874619e+00  4.01765257e+00   1.98035945e+00  -7.11755200e-02
C     4.360108820959164e+00   2.664918424621032e+00   6.311258659240220e+00  1.09646000e-03   5.49278630e-01  -2.37501090e+00
C     6.223872260940417e+00   8.621040929524088e-01   6.176977499326694e+00  3.42164660e-01   1.85881196e+00   8.08189400e-01
C     7.063208787083227e+00   3.513496753180557e+00   3.516107179219300e+00  5.68260990e-01   2.71494860e-01   1.88757988e+00
C     1.786265497303906e+00   5.289851190078076e+00   3.512825718085229e+00 -1.34388722e+00   2.32156605e+00   8.33991970e-01
C     7.102076433537542e+00   5.328259916768043e+00   5.371819761909594e+00  1.24567661e+00   1.56749060e-01  -1.75736721e+00
C     1.772578584970227e+00   3.618805901769071e+00   5.310894822233871e+00  1.21382042e+00  -1.31797604e+00  -3.42403490e-01
C     8.888665932744467e-01   4.454482514357522e+00   4.448746230555860e+00 -1.23660475e+00  -6.29355450e-01  -1.24565818e+00
C     2.629746233834176e+00   6.244398755350607e+00   4.382701236235405e+00  1.85271175e+00  -1.49391640e+00   1.12145034e+00
C     9.346618951615349e-01   6.207014778865539e+00   6.235725129153910e+00 -2.03128841e+00   8.01832500e-02   1.04130720e-01
C     2.618292503550796e+00   4.527404765394376e+00   6.217850858307467e+00  1.43116239e+00  -1.70067298e+00   8.00485570e-01
C     3.539817607205214e+00   3.564817716307075e+00   3.546926100909440e+00  2.89742824e+00  -4.53075590e-01  -2.67591740e-01
C     5.426587030490740e+00   5.257190120665961e+00   3.613439327027876e+00 -3.48269395e+00   1.66689173e+00  -1.29906570e+00
C     3.577932542788297e+00   5.287457428760790e+00   5.351676411478620e+00 -1.01170500e-02   3.10017128e+00  -1.94444957e+00
C     5.284648962067855e+00   3.560921163363697e+00   5.465963071330837e+00  6.86063000e-02  -2.03532459e+00  -3.79214089e+00
C     4.508557067154350e+00   4.399176498426006e+00   4.463567789308144e+00 -2.81415685e+00   7.02163290e-01   1.38317824e+00
C     6.240022099543474e+00   6.214640410315370e+00   4.435436562210625e+00  1.46314852e+00   1.14295590e-01   2.85848160e-01
C     4.483307452418527e+00   6.245538306580820e+00   6.198416217611709e+00 -3.90570900e-02  -1.84349083e+00  -6.03032000e-02
C     6.199473879813339e+00   4.449939663629533e+00   6.240904752380199e+00  1.94913251e+00  -5.88255290e-01  -3.84412060e-01
