64
Lattice="7.10842262195238 0 0 0 7.10842262195238 0 0 0 7.10842262195238 " PBC="1 1 1" Properties=species:S:1:pos:R:3:force:R:3 Energy="-509.5488905"
C     7.035572590536965e+00   7.269670078712079e-02   7.100568452762936e+00  2.22114956e+00  -2.91223630e+00   8.73571400e-01
C     1.785376731223727e+00   1.775491474391450e+00   7.053255502646478e+00 -4.66567680e-01   1.79281748e+00   1.64377959e+00
C     8.618038331809399e-03   1.780526867722780e+00   1.726915144322740e+00  3.43233400e-02   1.14146164e+00   2.29696679e+00
C     1.759889268667039e+00   4.690428690003420e-02   1.772908344695568e+00 -1.85599800e-01  -2.23320760e-01  -6.27622530e-01
C     8.949730837261578e-01   9.581386692959302e-01   8.701099539281838e-01 -9.39737750e-01  -1.82188356e+00  -1.06589765e+00
C     2.631903569015120e+00   2.728694765862315e+00   8.868670650756669e-01  2.18089811e+00  -3.09604493e+00  -5.57878320e-01
C     9.506103521517667e-01   2.681865614989374e+00   2.651285678467717e+00 -2.51887324e+00  -7.07160480e-01  -5.28455230e-01
C     2.590128009035416e+00   9.412385366853326e-01   2.664072593413478e+00  2.39559463e+00  -2.85666630e+00   1.83568131e+00
C     3.592845942360831e+00   2.457921939853120e-02   5.032969359215980e-02 -1.93380328e+00  -1.75066957e+00  -1.15792599e+00
C     5.435386760104716e+00   1.801417384455341e+00   7.104688423429261e+00 -5.60916977e+00  -1.42979670e-01   1.37426016e+00
C     3.530291183546795e+00   1.746830385471837e+00   1.842416989021845e+00  1.27166848e+00   2.81568877e+00  -2.60128007e+00
C     5.265250005653648e+00   7.653709719180200e-03   1.806763700192069e+00  2.77475946e+00   3.53331600e-02  -6.67927050e-01
C     4.466449686006745e+00   9.026840873316553e-01   8.790739591889085e-01 -8.45983290e-01   5.41396200e-01   1.60337937e+00
C     6.196530850680206e+00   2.672643431819091e+00   8.974877593122090e-01  3.36733414e+00   1.47464140e+00  -5.64060460e-01
C     4.474611932280160e+00   2.711064953669774e+00   2.678922941277373e+00 -1.26217348e+00  -1.45982624e+00  -7.05291330e-01
C     6.224404184205071e+00   9.229507688950847e-01   2.645399691285679e+00 -1.41287930e-01  -1.10645582e+00   1.16850511e+00
C     6.600803052283180e-02   3.530495195275989e+00   7.055425561903911e+00 -2.00026689e+00   1.20739090e+00   2.92705350e-01
C     1.827297445193332e+00   5.338419914134582e+00   7.084431480404821e+00 -1.32171706e+00  -4.38249210e-01   4.12792160e-01
C     1.386519157298860e-02   5.285599642509053e+00   1.722441813967974e+00  1.16509300e-02   3.12601422e+00   4.09996660e-01
C     1.743213833295459e+00   3.569246547936240e+00   1.729594522060896e+00  2.17680139e+00   1.72576000e-03   9.59457460e-01
C     9.274832413260491e-01   4.414677053706951e+00   7.893990753108225e-01 -1.09000503e+00   1.22876449e+00   2.78020757e+00
C     2.677569142189393e+00   6.229821086578417e+00   9.260921230193152e-01  3.74321830e-01  -4.70321000e-03  -5.18459080e-01
C     8.835467919540912e-01   6.279424583715717e+00   2.620663091410341e+00 -5.45928460e-01  -1.25942449e+00   1.31184333e+00
C     2.682632045116262e+00   4.398047467661271e+00   2.656406372870487e+00 -7.12612360e-01   2.29151343e+00   3.04600160e-01
C     3.580363338987432e+00   3.544061762014711e+00   7.100087425804240e+00 -2.84105090e-01  -2.90246210e-01   7.54728740e-01
C     5.344493137168432e+00   5.310244188311461e+00   7.093744011626605e+00  8.06839740e-01   1.31121941e+00  -4.77023340e-01
C     3.571062252326067e+00   5.326400069073746e+00   1.795040631775617e+00  5.95740300e-02   1.53902650e-01  -1.23061790e-01
C     5.376644532678691e+00   3.658074463259153e+00   1.760892267098721e+00 -1.31866163e+00  -3.39663633e+00   6.20228750e-01
C     4.517312298042726e+00   4.476779006000093e+00   8.781514991855112e-01 -2.92219802e+00  -6.03717690e-01  -2.96679350e-01
C     6.198103304847976e+00   6.206386038884800e+00   8.803558921241994e-01  4.70030310e-01   9.65684830e-01   1.34129170e-01
C     4.449428496958928e+00   6.236334249888218e+00   2.687816217733028e+00 -2.48275333e+00  -2.40431300e-01   1.03604985e+00
C     6.210569132343992e+00   4.521521123991802e+00   2.660115618877829e+00  2.53284642e+00  -2.74769860e+00  -1.00023256e+00
C     7.080337313312606e+00   7.107697916313890e+00   3.635132597926913e+00 -9.35015050e-01  -7.21934260e-01  -3.81511827e+00
C     1.774853919966663e+00   1.770158167068117e+00   3.552967833631083e+00 -8.86043170e-01   2.02231770e-01   1.07926175e+00
C     7.050879085880386e+00   1.762172351844130e+00   5.319969150213658e+00  8.84045780e-01   4.52748740e-01   4.98326300e-02
C     1.711329643391485e+00   6.302043157987200e-03   5.377311515973127e+00  1.79370689e+00  -2.31325942e+00   7.34015000e-01
C     8.002869040694242e-01   7.989747603379983e-01   4.525327826473264e+00  2.11602209e+00   3.67289569e+00  -1.97123902e+00
C     2.698934217216066e+00   2.624859761956736e+00   4.463566225455168e+00 -1.15182798e+00  -5.35525980e-01  -4.70811020e-01
C     8.931682552229397e-01   2.690754839644136e+00   6.163761804328495e+00 -3.05989680e-01  -2.39535966e+00  -4.56733480e-01
C     2.616174762283846e+00   8.396634424991045e-01   6.265345215369188e+00  2.31994708e+00   1.14696846e+00  -1.09737472e+00
C     3.509766466242260e+00   7.088119330060077e+00   3.716599457289911e+00  1.44986356e+00   9.39291930e-01  -4.44059604e+00
C     5.362095155428529e+00   1.810957385200964e+00   3.530758917755191e+00 -1.42499323e+00  -1.38408460e-01   3.48393580e-01
C     3.580992150052398e+00   1.691472904560551e+00   5.350168786125145e+00 -1.28119496e+00   3.26965365e+00   1.49692404e+00
C     5.286083512836797e+00   7.104582721184902e+00   5.311833134019711e+00  2.54179630e-01  -4.81341120e-01   2.21663039e+00
C     4.439954675627898e+00   9.048155478542622e-01   4.497700870876407e+00  9.26071600e-02  -1.41647508e+00  -2.52779159e+00
C     6.194027193149216e+00   2.688803861971851e+00   4.405233301003602e+00  2.86971385e+00  -1.35667038e+00   8.04755680e-01
C     4.499411157358780e+00   2.645141726628799e+00   6.229020251686046e+00 -1.38761026e+00  -3.04792920e-01   8.03471460e-01
C     6.146361380933901e+00   9.073746510816884e-01   6.229840990161753e+00  2.82779863e+00  -8.73433540e-01  -1.40492690e+00
C     7.609921835840999e-02   3.536247259775867e+00   3.499369118644438e+00 -2.96538927e+00   2.13512765e+00   1.66881195e+00
C     1.772778829235432e+00   5.445255098891158e+00   3.516594248337222e+00  7.92485320e-01  -3.80191932e+00   1.24114082e+00
C     7.074773977433289e+00   5.333431649645224e+00   5.326578490481508e+00  1.41221427e+00  -4.90260500e-02  -7.53464370e-01
C     1.765257336176984e+00   3.546948705693372e+00   5.251494923547043e+00  5.32251540e-01  -3.86169640e-01   2.16093283e+00
C     9.011893993073478e-01   4.463543123081653e+00   4.421581606766209e+00 -3.74835310e-01   5.92329840e-01  -1.54737613e+00
C     2.674353149627653e+00   6.188527406568122e+00   4.543982957544514e+00 -1.21835994e+00   2.40928650e-01  -1.85345373e+00
C     8.827553401795804e-01   6.195534605250013e+00   6.243881120015419e+00 -1.33962934e+00   1.36518502e+00  -2.32431210e-01
C     2.631368233707608e+00   4.369629131374130e+00   6.198137496360779e+00  2.12151552e+00   9.71549180e-01   3.16691710e-01
C     3.541608716452775e+00   3.495085085584043e+00   3.592337903396180e+00  1.52861773e+00   1.39426662e+00  -1.52024053e+00
C     5.303198817400101e+00   5.326791103402072e+00   3.517688518915345e+00  1.06635995e+00   5.47612960e-01   1.89715295e+00
C     3.555916620586538e+00   5.174771585682597e+00   5.356328376493827e+00  2.58688660e-01   4.41533798e+00  -4.54409110e-01
C     5.396855128787649e+00   3.505849014536377e+00   5.395619116262484e+00 -1.69621176e+00   1.46808057e+00  -4.28414719e+00
C     4.493502352140131e+00   4.389202457395204e+00   4.414995866461457e+00 -1.98515437e+00   6.40534100e-02   1.71374383e+00
C     6.158846543339442e+00   6.209692806003398e+00   4.459474475226643e+00  1.07578669e+00   1.78620100e-01  -6.58453350e-01
C     4.429840101081900e+00   6.193871518693838e+00   6.264473011913713e+00 -1.18586430e-01  -4.27543230e-01  -1.48680687e+00
C     6.254089810076906e+00   4.443955793468017e+00   6.145992880305281e+00 -4.27124400e-01  -8.73364360e-01   3.51807365e+00
