64
Lattice="7.10842262195238 0 0 0 7.10842262195238 0 0 0 7.10842262195238 " PBC="1 1 1" Properties=species:S:1:pos:R:3:force:R:3 Energy="-509.53019082"
C     2.465414217294600e-02   2.325747929656840e-02   9.796472633753000e-03 -1.56480206e+00  -3.69438200e-01  -2.84512720e-01
C     1.734080647576378e+00   1.792169042289816e+00   7.034057643508191e+00  1.60442693e+00   1.09792749e+00   1.80497410e+00
C     7.090853869157764e+00   1.781425727763079e+00   1.786856633728985e+00  1.82632925e+00   1.07121680e-01  -2.52235370e-01
C     1.793126262479825e+00   8.918433163307980e-02   1.767462937547517e+00 -9.26037260e-01  -2.03670538e+00   1.12840483e+00
C     8.932396237860447e-01   9.615047206591787e-01   8.635032437767034e-01 -3.29539600e-02  -1.83908240e+00   3.41216720e-01
C     2.665174470003804e+00   2.684258025706361e+00   8.338881334572593e-01  6.56138150e-01  -1.01016311e+00   1.45026167e+00
C     9.357432994947155e-01   2.651861247447258e+00   2.678569723757384e+00 -1.11064814e+00   1.50204463e+00  -6.28452110e-01
C     2.670277037928892e+00   8.993204528320974e-01   2.725892199160153e+00  1.48412249e+00   8.86402630e-01  -1.77262012e+00
C     3.587135533217507e+00   7.056415551922199e+00   5.647286350459000e-03 -1.33117190e+00   1.18204818e+00  -3.78752050e-01
C     5.323724743136482e+00   1.687510385455258e+00   8.838257264577000e-03  1.63193611e+00   1.68778324e+00  -1.37835575e+00
C     3.546495543751347e+00   1.771829001804948e+00   1.796496792149324e+00  1.03262008e+00  -4.76607330e-01  -1.45083513e+00
C     5.363036097330738e+00   7.082187493552140e+00   1.800662043467739e+00 -6.84118490e-01  -2.07018220e-01   1.32489535e+00
C     4.480879997178024e+00   7.793898475880530e-01   8.784286565834649e-01 -1.15661297e+00   2.15382082e+00   1.34517383e+00
C     6.240503197586396e+00   2.629981949128256e+00   8.665172860518096e-01 -1.54645301e+00   1.06540550e-01   6.73043020e-01
C     4.472997325166253e+00   2.711424355517441e+00   2.619613248473593e+00 -2.12787249e+00  -1.40147685e+00   1.50311932e+00
C     6.229466091952774e+00   9.231679312061258e-01   2.663942153858401e+00 -6.51195140e-01  -1.33809492e+00   5.45711070e-01
C     4.497882846495480e-02   3.513826441821672e+00   2.268176814857460e-02 -3.06512546e+00   2.69436120e-01  -1.94384391e+00
C     1.732649153429163e+00   5.395695176384518e+00   7.069504148323952e+00  9.58086490e-01  -4.32296937e+00   2.31997292e+00
C     2.145677367847000e-03   5.301998204819584e+00   1.759661728058972e+00 -4.07806770e-01   2.41651420e-01   4.02508780e-01
C     1.825627321298763e+00   3.515014259241475e+00   1.795763629440297e+00 -6.00265590e-01   1.43384120e+00  -1.42300734e+00
C     8.872131741730348e-01   4.327897714698896e+00   8.580961510265741e-01  1.37130949e+00   4.56915821e+00   2.32848578e+00
C     2.614923537734274e+00   6.192718106039517e+00   9.070242058465223e-01  1.47756150e+00   2.41559215e+00  -4.29107800e-01
C     8.756105935199922e-01   6.262509878838748e+00   2.686681500230198e+00  5.29361070e-01  -2.30086250e+00  -1.79251534e+00
C     2.713608702704341e+00   4.460656676992576e+00   2.687911826017267e+00 -2.08134963e+00  -7.27025130e-01  -2.73639140e-01
C     3.570030322614322e+00   3.580841380408628e+00   7.072642303658004e+00 -1.09285800e-01  -7.41088190e-01   1.29238232e+00
C     5.329140010572625e+00   5.371598903218790e+00   7.051241615434005e+00  1.76301443e+00  -1.33110435e+00   2.20194152e+00
C     3.551945358121422e+00   5.383974027242174e+00   1.803368717548757e+00  3.53885230e-01  -2.46909210e+00  -1.98101910e-01
C     5.291897918203052e+00   3.523927083859336e+00   1.717804918808722e+00  2.09766286e+00   2.36571178e+00  -3.27300500e-02
C     4.491522158850878e+00   4.485164812164907e+00   8.482261062187041e-01 -2.50791409e+00  -8.48521370e-01   3.62568800e-02
C     6.216733556440055e+00   6.213856138047706e+00   9.464777995774035e-01  1.04712768e+00   4.72170610e-01  -3.01806951e+00
C     4.467002579118128e+00   6.151904528892977e+00   2.745722636827393e+00 -1.85422570e-01   2.65638269e+00  -8.91579220e-01
C     6.164769281066427e+00   4.442325263487441e+00   2.615539909059654e+00  1.98563652e+00  -1.28927346e+00   2.09711461e+00
C     1.572454167770200e-03   7.057627040389325e+00   3.587185860849656e+00  2.72828830e-01   3.47878506e+00  -3.09549559e+00
C     1.839716428184281e+00   1.887463418585916e+00   3.561061981215798e+00 -1.81132713e+00  -4.94823978e+00   9.56078230e-01
C     7.058053830083431e+00   1.724120467969687e+00   5.280891520955149e+00  2.67178114e+00   3.56850206e+00  -5.74677660e-01
C     1.688243974669642e+00   7.651719360846600e-03   5.379767049482979e+00  2.74383211e+00   7.48847090e-01  -2.13561351e+00
C     8.437275409636372e-01   8.919784474448041e-01   4.381472545385538e+00  2.00819330e+00   4.84503200e-01   2.75959435e+00
C     2.687395754535055e+00   2.694962243908688e+00   4.496080363771727e+00 -4.17606160e-01   3.52498720e-01  -7.50758090e-01
C     8.215437889038197e-01   2.707561069991923e+00   6.171369238216418e+00  2.41068486e+00  -2.83413900e+00  -9.28319000e-02
C     2.695803667894217e+00   9.208318902805153e-01   6.230174446266857e+00 -2.18150426e+00  -1.30406922e+00   2.91027700e-01
C     3.605854782260788e+00   7.096381947260887e+00   3.601300771309285e+00 -3.37422735e+00   3.01432290e-01  -4.12192920e-01
C     5.355911112086033e+00   1.880258463586737e+00   3.520916951216670e+00 -7.00162130e-01  -3.42062552e+00   8.38763810e-01
C     3.563802633556939e+00   1.837347759598845e+00   5.387456585652164e+00 -1.10876012e+00  -3.71711239e+00  -2.20248471e+00
C     5.323201847568556e+00   7.094997581955642e+00   5.271107630229433e+00  1.23251493e+00   1.49769041e+00   1.47478121e+00
C     4.392561471420059e+00   8.816019986094854e-01   4.489321817713082e+00  2.13871156e+00   1.55479695e+00  -1.92561383e+00
C     6.240232651021478e+00   2.646433824608436e+00   4.478646530790819e+00 -1.49541746e+00   1.69975823e+00  -2.79920936e+00
C     4.475914408556823e+00   2.581678084898570e+00   6.204618103094981e+00 -5.47290690e-01   3.18040367e+00   2.47440379e+00
C     6.269736443442692e+00   9.315227446483166e-01   6.121698282148454e+00 -3.38821208e+00  -4.32772828e+00   4.48280759e+00
C     1.812427406998780e-02   3.561293644708984e+00   3.548452847919764e+00 -1.50682064e+00  -1.28445081e+00  -9.92322070e-01
C     1.709286753814723e+00   5.282126467216922e+00   3.566406022257289e+00  3.15409678e+00   3.24318512e+00  -1.39615039e+00
C     7.087510777999579e+00   5.361055619704580e+00   5.308991542077366e+00  6.07120650e-01  -2.28698233e+00   7.48736000e-01
C     1.756763268735667e+00   3.559218056388171e+00   5.338295161317602e+00 -2.31575820e-01   1.06719068e+00  -6.70709940e-01
C     8.555456489905182e-01   4.425244576942295e+00   4.366660654088017e+00  5.97817450e-01   9.03656530e-01   3.42378300e+00
C     2.599371801810464e+00   6.259603529166335e+00   4.476885632339393e+00  1.19592378e+00  -2.03585822e+00   4.80711500e-02
C     8.223338189938066e-01   6.188670072610106e+00   6.231061150904475e+00  1.42112459e+00   2.22288558e+00  -1.29791250e-01
C     2.650565737424764e+00   4.453344669148739e+00   6.244954562915265e+00 -1.92901200e-02   9.48302780e-01  -1.27236283e+00
C     3.553009844408767e+00   3.564670429790389e+00   3.593168096073970e+00  8.42537380e-01   6.71109180e-01  -1.08474448e+00
C     5.347975197988839e+00   5.269013915430938e+00   3.652265886799447e+00 -2.58081700e-01   1.06872536e+00  -3.24173829e+00
C     3.548164885719428e+00   5.346304149999329e+00   5.364057506577005e+00 -9.64123400e-01  -3.52110700e-01  -8.78438410e-01
C     5.296216142776249e+00   3.493727945537432e+00   5.341776440211520e+00  2.34929607e+00   1.11148091e+00   8.69600260e-01
C     4.416132289985717e+00   4.417462204773693e+00   4.498144294279443e+00  9.38580960e-01   1.95721030e-01  -1.73677140e-01
C     6.279798060240172e+00   6.247653915320984e+00   4.430390008655783e+00 -3.69893317e+00  -2.31979403e+00   1.07673400e+00
C     4.477040453784056e+00   6.227834708961484e+00   6.184232426536893e+00 -1.09382757e+00  -3.15050660e-01   4.01029840e-01
C     6.248803418342865e+00   4.429507782324414e+00   6.232190394921888e+00 -1.51259681e+00   3.86801010e-01  -6.90963550e-01
