64
Lattice="7.10842262195238 0 0 0 7.10842262195238 0 0 0 7.10842262195238 " PBC="1 1 1" Properties=species:S:1:pos:R:3:force:R:3 Energy="-509.93828584"
C     7.093285376199162e+00   1.334350443690680e-02   6.856571206573400e-02 -9.61959450e-01  -1.09336662e+00  -2.36667631e+00
C     1.730237194549971e+00   1.757194963241380e+00   1.740170291066480e-02  1.90112983e+00   1.74888813e+00  -1.30157655e+00
C     2.925186992356200e-03   1.824387541309609e+00   1.801761361025922e+00 -8.42393330e-01  -1.58374502e+00   2.24160600e-01
C     1.721313280792822e+00   3.616694344829799e-03   1.713243799434599e+00  2.41109136e+00   2.13417625e+00   1.19442901e+00
C     8.198999661729448e-01   9.708671530077546e-01   8.359743133277769e-01  1.53200202e+00  -2.71422705e+00   2.91357849e+00
C     2.626291042851273e+00   2.670085537023509e+00   9.435290126219489e-01  1.01931612e+00  -5.61945300e-01  -2.52721391e+00
C     8.756948283280391e-01   2.679936318006079e+00   2.712958921792647e+00  4.31888900e-02   8.06085050e-01  -1.38829897e+00
C     2.689218140842144e+00   9.907568749196456e-01   2.671860083646366e+00 -2.61906728e+00  -3.91052285e+00   1.75312637e+00
C     3.557612050465635e+00   7.098809971175200e+00   7.105184164822780e+00 -3.61049010e-01  -2.52067010e-01  -9.96235800e-02
C     5.344322250688647e+00   1.810036702303222e+00   3.427475243108020e-02 -9.34339860e-01  -1.71132591e+00  -9.92135750e-01
C     3.547795034490509e+00   1.780030984160808e+00   1.799528676565207e+00  1.41254840e-01   1.27885838e+00  -7.18806910e-01
C     5.283389847169174e+00   7.105964811794909e+00   1.812483705705930e+00  8.74010550e-01   7.39113610e-01  -6.41329140e-01
C     4.420638105831856e+00   8.916462708557716e-01   9.253291760195107e-01  6.07559680e-01   2.32736390e-01  -1.37904793e+00
C     6.185168819048624e+00   2.681180078711901e+00   9.401788841253692e-01  2.78907322e+00  -2.93540990e-01  -2.14771481e+00
C     4.456631461599774e+00   2.697697636017090e+00   2.608975920528120e+00  4.07651530e-01  -5.03855300e-01   1.70455868e+00
C     6.259037983062688e+00   8.531320551741234e-01   2.676547590774673e+00 -1.64873704e+00   1.35686006e+00   9.73171200e-01
C     3.293424609340060e-02   3.524614965916272e+00   7.089830682805842e+00 -7.55720710e-01   1.11923595e+00   1.44862230e-01
C     1.769194122792392e+00   5.311287633667853e+00   7.092945451429474e+00  2.16258301e+00   1.24960726e+00  -1.51073282e+00
C     7.100164907610798e+00   5.382669702775630e+00   1.767209024691531e+00  2.63725300e-02  -1.57556211e+00   1.66292370e-01
C     1.738056104010840e+00   3.596982262399183e+00   1.733874503320398e+00  2.21689799e+00  -1.50871705e+00   2.85978329e+00
C     9.632410950525663e-01   4.460742404569372e+00   8.025800101224100e-01 -4.00527890e+00  -1.02361102e+00   3.31405372e+00
C     2.676579507592237e+00   6.215969756429536e+00   8.601008683738666e-01 -1.26711481e+00  -8.33600350e-01   2.94864690e-01
C     9.032938478239987e-01   6.261990608566358e+00   2.608406251539353e+00 -6.02516380e-01  -8.93086780e-01   2.11844191e+00
C     2.736702403943744e+00   4.387979240030755e+00   2.686454670464393e+00 -2.97870892e+00   2.04246587e+00  -2.10484179e+00
C     3.571001333144214e+00   3.495161430042981e+00   7.059731915411334e+00 -1.10619282e+00   2.01335066e+00   1.12221672e+00
C     5.337694002016629e+00   5.298606847471808e+00   7.082480218395631e+00  1.28224156e+00   2.10409874e+00  -1.28881900e+00
C     3.554333930290195e+00   5.253766419995265e+00   1.719117062540147e+00  6.37900100e-01   2.76135196e+00   9.87533800e-01
C     5.369141948024413e+00   3.567191929462156e+00   1.731491404637044e+00 -1.15920263e+00   1.47697652e+00   1.86624732e+00
C     4.536573635395008e+00   4.445434487541429e+00   7.842518664916805e-01 -3.74514723e+00  -2.09808954e+00   3.07501396e+00
C     6.153245746072918e+00   6.228020807465676e+00   9.039426335565262e-01  1.52082453e+00  -6.26482300e-02   1.25032380e-01
C     4.374273206040229e+00   6.275025465293104e+00   2.655537510373644e+00  7.96690650e-01  -1.69540490e+00   7.17320870e-01
C     6.215407835621426e+00   4.483027025146168e+00   2.718745746479136e+00  5.91911990e-01  -1.06736723e+00  -2.37991416e+00
C     7.103360641168071e+00   7.064941180759948e+00   3.654615362643809e+00 -3.55696300e-01   8.96690830e-01  -4.35066045e+00
C     1.725038805087965e+00   1.776041168712655e+00   3.586545747392725e+00  1.99792638e+00  -6.56914000e-02  -9.57700250e-01
C     7.102249594712565e+00   1.750978363323285e+00   5.322587679854188e+00 -2.00044740e-01  -7.06159590e-01   1.11067241e+00
C     1.730188857276155e+00   7.089316246260832e+00   5.336084512967007e+00  2.14613000e+00  -1.41670950e-01   1.03598224e+00
C     8.342027522424206e-01   8.476884251317274e-01   4.438954520565264e+00  2.21921979e+00   9.39359900e-01   1.03615844e+00
C     2.671786582556475e+00   2.626746977078120e+00   4.489512394523525e+00 -3.73812150e-01   9.38233850e-01  -1.97570404e+00
C     8.916925466870277e-01   2.643591735076508e+00   6.187812157084098e+00 -5.31616200e-01  -3.15943100e-01   7.18155590e-01
C     2.653911032193962e+00   9.032466478978018e-01   6.251565822457223e+00  2.05212000e-01  -8.90346810e-01  -9.09567290e-01
C     3.549080166215979e+00   5.955251652047880e-02   3.682431331198131e+00 -1.87399300e-02  -8.83829370e-01  -5.07781254e+00
C     5.349690389282818e+00   1.844145046560767e+00   3.552424110384880e+00  2.11700470e-01  -2.47627031e+00  -1.19867951e+00
C     3.613438687269840e+00   1.817111359915777e+00   5.326947275447034e+00 -3.13962125e+00  -2.72862906e+00  -4.23044200e-02
C     5.309515006319103e+00   1.716918640676460e-02   5.357147551116556e+00  8.98234490e-01  -8.43334310e-01  -3.41147400e-01
C     4.461152134049190e+00   9.345834892600361e-01   4.427599313019397e+00  7.05328700e-01   5.35470000e-03   1.73060483e+00
C     6.228986842099733e+00   2.647377538795467e+00   4.475364003393356e+00  8.04808510e-01   3.00222070e-01  -1.17208250e+00
C     4.411614318736897e+00   2.666587055746851e+00   6.150957971336898e+00  3.14216162e+00   3.55175930e-01   2.76425713e+00
C     6.250059618788271e+00   8.368607336284910e-01   6.248128473615095e+00 -1.92243865e+00   2.22711807e+00   1.38089550e-01
C     4.812053801031620e-02   3.543993307904881e+00   3.629121786843667e+00 -2.57292397e+00   1.34946899e+00  -2.21390280e+00
C     1.804744694915310e+00   5.401003604228682e+00   3.507586241940479e+00  1.06820078e+00  -2.48632743e+00   7.57775710e-01
C     1.443294128764800e-02   5.328638013767200e+00   5.381294862756696e+00 -5.49344640e-01  -3.97790780e-01  -1.97876878e+00
C     1.762827748409694e+00   3.503137933233336e+00   5.312191256351307e+00  9.25774500e-01   2.13298146e+00   3.73300190e-01
C     8.933784512798132e-01   4.463492297859920e+00   4.415730308686556e+00  1.19977102e+00   1.36714530e-01   1.32996673e+00
C     2.748732840554285e+00   6.196659228792724e+00   4.475209892790954e+00 -3.67851539e+00   9.98614030e-01  -2.25207910e-01
C     8.742946823245779e-01   6.168736420646423e+00   6.240709341842376e+00  5.65777990e-01   2.33827982e+00   5.64658560e-01
C     2.645850009858655e+00   4.418455606834838e+00   6.195963029881320e+00  7.78364780e-01  -1.17600697e+00   3.54167980e-01
C     3.576576469005080e+00   3.517852652393640e+00   3.559102971025953e+00 -5.47390700e-01   3.88255300e-01  -3.82635670e-01
C     5.241448874195102e+00   5.347085578897946e+00   3.489263429626715e+00  2.83466797e+00   6.16250930e-01   2.55401683e+00
C     3.584798568196955e+00   5.230841685961539e+00   5.329951152677793e+00 -1.16807277e+00   2.54838852e+00  -4.66953260e-01
C     5.373082644272262e+00   3.515833007358846e+00   5.287139326848545e+00 -1.09868754e+00   2.45493183e+00   1.33503747e+00
C     4.456693375960795e+00   4.451145323190111e+00   4.397183936481393e+00  9.66769900e-02  -2.07714595e+00   6.76748590e-01
C     6.229264852508401e+00   6.230273964183537e+00   4.518695170579221e+00 -1.53179890e+00  -8.73172510e-01  -1.77756159e+00
C     4.420177266793402e+00   6.161099131383494e+00   6.180860333014416e+00  9.29902320e-01   1.54474385e+00   1.42914234e+00
C     6.263833538214818e+00   4.448180542283762e+00   6.204767237801548e+00 -1.02011734e+00  -1.78056067e+00   4.86185200e-01
