64
Lattice="7.10842262195238 0 0 0 7.10842262195238 0 0 0 7.10842262195238 " PBC="1 1 1" Properties=species:S:1:pos:R:3:force:R:3 Energy="-513.4594035"
C     9.509434528357400e-03   7.090970660541411e+00   7.069827012879352e+00 -9.93402630e-01   8.55163690e-01   1.85512239e+00
C     1.761274913488355e+00   1.739826741001255e+00   8.969620914594601e-03  1.32459230e+00   2.38670234e+00  -5.35264840e-01
C     1.846775305098620e-02   1.799353240694945e+00   1.762505736865008e+00 -4.81879370e-01  -1.02784749e+00   3.79796520e-01
C     1.761711228468771e+00   7.106907104297416e+00   1.751583147919795e+00  1.63562300e-01   4.73786690e-01   9.48470500e-01
C     8.837576277690005e-01   9.073448667909106e-01   8.771000923957869e-01  2.90724900e-02  -1.24078575e+00   5.68542600e-02
C     2.654696370725020e+00   2.687367320844575e+00   8.954189239928840e-01 -1.43075800e-02  -9.72687210e-01   2.35947210e-01
C     8.631176118495684e-01   2.645635406579758e+00   2.706262290095023e+00  8.31985500e-01   1.45942247e+00  -1.34725050e+00
C     2.647586526420496e+00   8.734757209545275e-01   2.685109543652011e+00 -2.55361080e-01   1.14084324e+00  -1.02362811e+00
C     3.555419528592721e+00   1.226359287247640e-02   1.681042431713320e-02 -4.08955800e-02  -2.67691750e-01   2.94502650e-01
C     5.338682214929261e+00   1.815628756209923e+00   3.811067052951080e-02  1.74895000e-03  -1.94979864e+00  -1.24625671e+00
C     3.563622363959296e+00   1.798256553253131e+00   1.815190593039626e+00 -7.06689280e-01  -6.28077380e-01  -9.57610520e-01
C     5.330946900518403e+00   2.226656518334040e-02   1.797227822331565e+00 -3.64852070e-01  -9.30142460e-01  -2.54181580e-01
C     4.433220866879972e+00   8.961751179911998e-01   9.378485299378546e-01  4.17226570e-01   6.57907750e-01  -7.86042830e-01
C     6.268167969991590e+00   2.686252720177759e+00   8.319217305078888e-01 -5.49240550e-01   8.39256100e-02   2.19091301e+00
C     4.485098206244958e+00   2.653953895982360e+00   2.667008443039764e+00 -9.16029860e-01  -5.73286100e-02   4.35184520e-01
C     6.246242538009783e+00   8.651514026453766e-01   2.672423781560132e+00 -1.24736692e+00   1.34659246e+00  -1.27454900e-02
C     4.328872990282360e-02   3.581039065641690e+00   7.059088816416902e+00 -9.92457740e-01  -1.86751580e-01   5.68304790e-01
C     1.805443808279987e+00   5.310846200623150e+00   7.105808497581495e+00 -2.92757130e-01   3.83981000e-03  -1.48474670e-01
C     4.714732386941201e-03   5.395344944402031e+00   1.752657941419939e+00 -1.45013577e+00  -2.03369434e+00  -1.63670570e-01
C     1.738428514271901e+00   3.573626544702006e+00   1.806260139533668e+00  1.21922549e+00  -7.45654530e-01  -8.58950090e-01
C     9.064563850476367e-01   4.447236757012504e+00   8.676827119403586e-01 -6.76730500e-01   6.69461380e-01   8.55426340e-01
C     2.663488067821435e+00   6.204162382120812e+00   8.830133759206864e-01  1.34611150e-01   4.80381460e-01   2.39132710e-01
C     8.436885157234534e-01   6.262745380880149e+00   2.653360271609364e+00  1.55336891e+00  -1.21934464e+00   3.15693010e-01
C     2.665963860335755e+00   4.440452194127071e+00   2.671646688799314e+00 -9.80249990e-01   3.31361140e-01  -4.48839550e-01
C     3.549039008449010e+00   3.543328812558364e+00   7.075394116222658e+00  6.79244830e-01  -2.52041640e-01   1.22257983e+00
C     5.285554219688511e+00   5.305102595146190e+00   7.096412086972796e+00  1.19971337e+00   1.60052470e-01   3.04737560e-01
C     3.562694430470482e+00   5.331887486999482e+00   1.774457056731788e+00 -8.89362400e-02  -5.69414620e-01   5.14157840e-01
C     5.378767178757251e+00   3.524812295728204e+00   1.797791804582236e+00 -9.12551360e-01   1.00221193e+00  -1.52554526e+00
C     4.466424308937992e+00   4.399007815557233e+00   9.052238556495549e-01 -9.56405100e-01   8.14574440e-01  -6.70553910e-01
C     6.158914997449274e+00   6.232801861435661e+00   8.622284192640326e-01  1.82029352e+00  -2.32264650e-01   2.29650740e-01
C     4.419338970513826e+00   6.232060310787943e+00   2.696091985515685e+00  9.15544760e-01   3.75867800e-02  -8.98261330e-01
C     6.197279367582092e+00   4.453630783159194e+00   2.646971576779639e+00  1.40592566e+00   6.01315580e-01   7.17317450e-01
C     7.076927545150244e+00   7.087573474287088e+00   3.580175605546038e+00  6.93882060e-01   1.06899153e+00  -6.60277360e-01
C     1.744479132521819e+00   1.763182600866884e+00   3.583306723541696e+00  1.57168690e-01  -1.41318480e+00  -6.46255330e-01
C     9.492658650974199e-03   1.763243235711833e+00   5.345306198547707e+00  2.01621850e-01   3.48169100e-01   4.06511000e-03
C     1.800357163221567e+00   7.083599723874054e+00   5.357368054386228e+00  1.36023670e-01   4.72540430e-01  -4.91592520e-01
C     8.615885190597802e-01   8.396806448818450e-01   4.487428560432472e+00  1.04104181e+00   9.12082710e-01  -5.17581240e-01
C     2.674367437557119e+00   2.605649249826186e+00   4.393289160643669e+00 -1.07100200e+00   2.48819677e+00   1.78774500e+00
C     9.203832777289670e-01   2.695793787186775e+00   6.191377528617611e+00 -4.35722260e-01  -1.57548621e+00   3.94674540e-01
C     2.702611901826975e+00   9.003287825807443e-01   6.239772380656833e+00 -1.70889937e+00  -3.55977160e-01  -9.55986800e-02
C     3.538058628027895e+00   3.126817399972500e-02   3.541991362842410e+00  4.91018340e-01  -5.88009340e-01   1.09685010e+00
C     5.345254946820617e+00   1.772560742829451e+00   3.578922390638132e+00  4.58974180e-01  -3.07440120e-01  -1.29808380e-01
C     3.546315274153704e+00   1.812335424010077e+00   5.350922278922865e+00  2.50739730e-01  -1.91492320e+00  -5.70358710e-01
C     5.304607493510707e+00   7.083636403334775e+00   5.366721103616945e+00  6.89788100e-02   1.41455785e+00  -1.76740780e-01
C     4.410775382699286e+00   9.033471609936489e-01   4.497375091867734e+00  1.26768982e+00  -4.82141840e-01  -1.58172592e+00
C     6.293722464973585e+00   2.654800580200629e+00   4.441274994045336e+00 -2.55209800e+00   9.14054100e-02  -1.91782380e-01
C     4.466470442600795e+00   2.634423007244327e+00   6.195506953486022e+00 -6.64911880e-01   1.50445535e+00   1.17386809e+00
C     6.222295115213718e+00   8.944935495362126e-01   6.244674562148264e+00 -3.80290030e-01  -2.62330180e-01  -6.01902240e-01
C     1.295367854042600e-03   3.587804577954500e+00   3.543619902464652e+00 -3.55380800e-02  -5.04757630e-01   6.48411710e-01
C     1.775289524104816e+00   5.362635537716101e+00   3.552833910948923e+00 -6.65248300e-02  -3.07822250e-01  -5.02188870e-01
C     1.021722016863080e-02   5.380986641551893e+00   5.317824396940752e+00 -8.38356520e-01  -1.65421520e+00   5.26433280e-01
C     1.771205664225400e+00   3.569773139883930e+00   5.290270729181108e+00  7.93521130e-01  -5.87545180e-01   5.35073080e-01
C     8.749940800261595e-01   4.487675080528934e+00   4.452083421723272e+00  7.94476800e-01  -4.50926700e-01  -1.21155820e+00
C     2.699469907944708e+00   6.235109113249661e+00   4.406903851403529e+00 -1.42265516e+00  -5.52923320e-01   1.24304323e+00
C     9.038015313675192e-01   6.195274792403252e+00   6.243035075555187e+00  2.96862030e-01   6.20856420e-01  -8.59895500e-01
C     2.681692809235481e+00   4.421844902740054e+00   6.203078063334357e+00 -1.89898510e-01   7.18032470e-01  -8.84854000e-01
C     3.510949378850454e+00   3.514985896635221e+00   3.520328729244865e+00  2.29999868e+00   9.14438430e-01   4.90153940e-01
C     5.316141051380109e+00   5.334789216197191e+00   3.583713040978655e+00  1.71888700e-02  -3.30580790e-01  -1.36995778e+00
C     3.571990896657144e+00   5.318759225599508e+00   5.286198313862109e+00 -7.32180860e-01   1.15024060e-01   1.26580797e+00
C     5.340966719790876e+00   3.500960552300604e+00   5.306637445758300e+00  6.06171710e-01   1.44039461e+00  -3.12583200e-02
C     4.447377148359249e+00   4.418781385843513e+00   4.419467561879022e+00 -4.19064640e-01  -5.30382150e-01   5.36563720e-01
C     6.197131796728502e+00   6.235395440512795e+00   4.451561023744929e+00 -1.10897320e-01  -5.96321680e-01   4.07440900e-01
C     4.394029573943768e+00   6.212002048175732e+00   6.246339781231225e+00  1.36774148e+00  -4.83481510e-01  -9.92796420e-01
C     6.218988845684703e+00   4.436337270440806e+00   6.171230623975328e+00 -1.00910390e-01   5.99720820e-01   9.58654390e-01
