64
Lattice="7.10842262195238 0 0 0 7.10842262195238 0 0 0 7.10842262195238 " PBC="1 1 1" Properties=species:S:1:pos:R:3:force:R:3 Energy="-514.22190395"
C     7.097588175495274e+00   2.441935097380740e-02   2.459819888692660e-02 -1.42158820e-01  -6.57247130e-01  -7.89205740e-01
C     1.775805026913219e+00   1.774033750164767e+00   3.875156591293000e-03 -2.48332100e-02  -1.28514880e-01  -3.55360900e-02
C     7.090396442162168e+00   1.810383237905946e+00   1.801166954726438e+00  1.03706161e+00  -8.54096780e-01  -2.39180230e-01
C     1.767577951825509e+00   1.027280803351920e-02   1.777679660126565e+00 -6.26485900e-02  -7.74839000e-02  -4.42333040e-01
C     8.712674183833984e-01   9.014728832014333e-01   8.811037692680497e-01  2.44735940e-01   2.08376430e-01   1.17890640e+00
C     2.681854596934313e+00   2.651258026703725e+00   8.860368013136509e-01 -6.75892350e-01   8.23128090e-01  -3.82654890e-01
C     9.129193628937406e-01   2.678925642477968e+00   2.684209759516771e+00 -1.04447468e+00  -6.25938910e-01  -2.64411510e-01
C     2.652156175901762e+00   8.914222133747892e-01   2.660232836766833e+00  2.17526200e-02  -9.57657000e-02   5.92995550e-01
C     3.556420749918749e+00   7.105457341504067e+00   7.102167918936662e+00 -5.36861270e-01  -9.03615500e-02   6.11260480e-01
C     5.314513649105487e+00   1.751994227999909e+00   1.940698893176680e-02  1.07560173e+00   1.07920615e+00   2.58160670e-01
C     3.546278523608758e+00   1.787960429593418e+00   1.770909243002146e+00  1.82649200e-01  -9.77971850e-01   6.71187920e-01
C     5.341545629729049e+00   7.098769310997813e+00   1.799430224911920e+00 -1.41501971e+00   5.96712420e-01   4.39204070e-01
C     4.434320255522381e+00   8.602426814051355e-01   9.281414101764349e-01  1.72951670e-01   7.69438580e-01  -1.31340422e+00
C     6.251723700523613e+00   2.677981501785580e+00   9.128578039538515e-01 -1.38901854e+00  -1.05358160e-01  -1.12194870e+00
C     4.440935140359874e+00   2.644369751932267e+00   2.653654204884701e+00  2.91586510e-01   1.54408760e+00   2.86973840e-01
C     6.199395758248745e+00   9.066535726911155e-01   2.685139185774336e+00  1.33654557e+00  -8.43494570e-01  -4.05604830e-01
C     1.792466956281820e-02   3.555347662440033e+00   7.108086391610074e+00 -1.57760730e-01  -1.04440020e-01  -4.93228840e-01
C     1.780395504072762e+00   5.317168218448699e+00   8.912966786313200e-03 -3.07002660e-01   2.90819450e-01  -1.08386511e+00
C     6.094619385935600e-03   5.359789467467505e+00   1.779395704431259e+00 -4.30477660e-01  -9.01240700e-01  -3.24618000e-02
C     1.775548199603958e+00   3.563476214790230e+00   1.780683181936193e+00  2.71550000e-01  -5.99514510e-01  -1.32445440e-01
C     8.824547249869806e-01   4.437429195239464e+00   8.870372407131898e-01  5.41189650e-01   4.57865390e-01   1.02710620e-01
C     2.646692429023352e+00   6.241886212291342e+00   8.602403356256710e-01  5.84937950e-01  -9.84618990e-01   1.05398143e+00
C     8.811006415620968e-01   6.217565455139275e+00   2.670740222746812e+00  5.84695360e-01   7.62488510e-01  -4.82239110e-01
C     2.640793931017502e+00   4.444596902104115e+00   2.658739499342823e+00  1.41660224e+00   5.78721930e-01  -3.91684800e-01
C     3.572601936665559e+00   3.531935290614575e+00   7.081859510932452e+00 -4.81026980e-01   7.63605920e-01   3.93504200e-02
C     5.340720270778641e+00   5.319968581539849e+00   2.404921540798400e-03 -6.90620780e-01   5.97797470e-01  -7.56813610e-01
C     3.561198178593198e+00   5.340922718654858e+00   1.764797065812339e+00 -1.15639943e+00  -2.90546380e-01  -2.88545450e-01
C     5.349922621449815e+00   3.569148664956764e+00   1.759334811702679e+00 -4.66621710e-01  -4.24117630e-01   5.98476230e-01
C     4.428034490652193e+00   4.430638448026352e+00   8.503137788579719e-01  1.03526863e+00   4.40768660e-01   1.24100425e+00
C     6.186516149472019e+00   6.243958530737751e+00   9.073485631706730e-01  1.29287275e+00  -8.98708150e-01  -3.66890090e-01
C     4.402005508460313e+00   6.219335310203202e+00   2.684301884673927e+00  1.26599028e+00   6.24663400e-02  -6.16359400e-01
C     6.248191738576413e+00   4.454532486568541e+00   2.675625699445085e+00 -1.43805007e+00   2.65522780e-01  -6.53781410e-01
C     3.006294094450400e-02   7.102412661927469e+00   3.566740900046917e+00 -2.15356896e+00   1.58252630e-01  -3.61617600e-02
C     1.755609713912894e+00   1.739271431026181e+00   3.570341813693530e+00  1.00861584e+00   1.81817487e+00  -3.80962920e-01
C     7.091407402027184e+00   1.792144731484455e+00   5.356860939516518e+00  9.79356670e-01  -8.56590880e-01  -1.12619632e+00
C     1.789575107791552e+00   7.074750875059774e+00   5.313663481760135e+00 -1.18974731e+00   1.48481827e+00   1.79348496e+00
C     8.740856946995498e-01   8.781930123736120e-01   4.453636043391932e+00  5.36160220e-01  -2.60058340e-01   3.15784690e-01
C     2.668475550384306e+00   2.679707071376585e+00   4.442469706635079e+00  3.44220200e-01  -1.38168175e+00   1.90669620e-01
C     9.126480344023354e-01   2.643246052484497e+00   6.196185239172421e+00 -7.73082410e-01   9.20947040e-01   1.39767017e+00
C     2.655338687792963e+00   8.905628761642573e-01   6.247963913631442e+00  7.89570360e-01  -5.47635980e-01  -1.16056604e+00
C     3.542386946561213e+00   1.084190834847640e-02   3.577714811803446e+00  1.16689520e-01  -7.61207900e-02  -8.23589790e-01
C     5.340297035295846e+00   1.780197463418569e+00   3.554062886135694e+00 -3.20275070e-01  -3.56494600e-02   6.84687200e-02
C     3.576554930484541e+00   1.758951809891913e+00   5.365633301703407e+00 -6.82145200e-01   8.61803800e-01  -1.27358638e+00
C     5.327933853422463e+00   7.105272167094816e+00   5.344385160228834e+00  2.43233280e-01  -5.73340000e-02  -2.31023290e-01
C     4.459418176519493e+00   8.835747991392140e-01   4.441099202753944e+00 -4.59781820e-01   3.47085690e-01   7.90472170e-01
C     6.262758318209317e+00   2.677270730607806e+00   4.412768868738839e+00 -1.69143073e+00  -8.05476490e-01   1.25757817e+00
C     4.470122110384915e+00   2.670211498272336e+00   6.215435274132739e+00 -1.98793110e-01  -1.12656318e+00   9.27018700e-02
C     6.224926013509606e+00   9.035027643648006e-01   6.240948184842408e+00 -8.89425920e-01  -4.55883000e-01  -2.09878810e-01
C     2.394258906868400e-03   3.561630868278078e+00   3.571799537920214e+00  8.70704770e-01   1.84141740e-01  -1.25522041e+00
C     1.781837163264324e+00   5.346453213621671e+00   3.521721127067670e+00 -2.80378310e-01  -7.26403130e-01   1.29396761e+00
C     1.123983784674400e-03   5.329038289044933e+00   5.317515535977913e+00 -1.19212200e-01   1.25125870e-01   1.92419220e-01
C     1.777737878107823e+00   3.524870798046366e+00   5.331727902911663e+00  2.79449630e-01   1.08805194e+00  -1.00984538e+00
C     8.883383663895547e-01   4.432487206581361e+00   4.419916458767474e+00  4.09920630e-01   6.77279420e-01   9.85913320e-01
C     2.666336697102174e+00   6.223850509167200e+00   4.462342297248457e+00 -1.22923360e-01  -2.44981360e-01  -1.43636562e+00
C     8.587088970564182e-01   6.219378600496958e+00   6.227896552238278e+00  1.10559599e+00  -2.34219490e-01  -2.07880580e-01
C     2.683952647870606e+00   4.427998237696832e+00   6.166662609431264e+00 -7.76739730e-01   1.57073810e-01   1.87283977e+00
C     3.560256810185632e+00   3.585667004188441e+00   3.555479097174277e+00 -7.74055870e-01  -1.74817964e+00  -8.30532870e-01
C     5.300422765114313e+00   5.341451372045108e+00   3.542723530372270e+00  1.10183497e+00  -5.82817740e-01   3.77033120e-01
C     3.549438430716027e+00   5.344890569077116e+00   5.310115810198945e+00  4.72226790e-01  -1.23754170e+00   2.25709420e-01
C     5.349417923443794e+00   3.524138772684959e+00   5.290800093413619e+00  2.30110600e-02   1.44064262e+00   9.70542240e-01
C     4.449611183420262e+00   4.424483549216599e+00   4.408945248211540e+00 -7.09948300e-02   9.11948880e-01   9.49210800e-01
C     6.190666757439837e+00   6.203012950183158e+00   4.455670189608872e+00  9.59767370e-01   7.26433150e-01  -5.62268060e-01
C     4.420358389401760e+00   6.209822463631987e+00   6.212534113608839e+00  9.50522080e-01   3.49880010e-01   3.08435160e-01
C     6.244004308979424e+00   4.465344326289335e+00   6.194909703817490e+00 -6.69700360e-01  -1.47494157e+00   6.87235680e-01
