64
Lattice="7.10842262195238 0 0 0 7.10842262195238 0 0 0 7.10842262195238 " PBC="1 1 1" Properties=species:S:1:pos:R:3:force:R:3 Energy="-512.85800051"
C     1.899207030343740e-02   3.807271155272000e-04   7.097585758631584e+00 -3.59857830e-01   3.88607600e-01  -8.96451500e-01
C     1.791036741650676e+00   1.811443316971267e+00   7.108360918891658e+00 -6.24826610e-01  -1.76355216e+00  -2.59124400e-02
C     1.043729693294600e-03   1.791367567639411e+00   1.722905140954345e+00 -6.69102600e-02  -1.17353266e+00   1.92230879e+00
C     1.741876525747958e+00   7.065399958355843e+00   1.808927290784918e+00  1.96554194e+00   1.98432627e+00  -8.74607950e-01
C     8.921341219001822e-01   9.064113887324521e-01   8.865488209949696e-01  1.99947180e-01  -1.25442288e+00  -1.19387050e-01
C     2.663291591020219e+00   2.634326474865147e+00   8.850950064007271e-01  3.61191060e-01   1.90939562e+00   1.07680070e-01
C     8.852196881334821e-01   2.653864329857349e+00   2.649542551072841e+00 -7.40003200e-02   5.32645540e-01  -3.76609900e-01
C     2.676405493406500e+00   8.727894738347928e-01   2.644627290083789e+00 -1.84183920e-01  -2.69178950e-01   1.00299815e+00
C     3.519450767967069e+00   7.076701284058250e+00   2.174551780529440e-02  1.94370746e+00   2.47851185e+00  -1.19105812e+00
C     5.335206480604985e+00   1.812496571950873e+00   7.067659370485610e+00 -5.00045720e-01  -1.94188145e+00   5.73528900e-01
C     3.584943224597272e+00   1.757588059012266e+00   1.732055600140393e+00 -1.76374794e+00   3.08404990e-01   2.11987489e+00
C     5.324375732480022e+00   2.417553207794140e-02   1.740746570888283e+00  1.14663931e+00  -4.16423720e-01   9.76677480e-01
C     4.441610440508774e+00   8.983628061367309e-01   8.757017234979806e-01  4.10942390e-01  -3.90560130e-01  -1.01351818e+00
C     6.224060705224074e+00   2.600364137608216e+00   8.542335052590924e-01 -6.52762230e-01   3.04225800e+00   4.44449530e-01
C     4.409201151425861e+00   2.650487544775944e+00   2.679638404014075e+00  1.76911899e+00   1.86540720e-01   6.33116900e-02
C     6.205452347573663e+00   9.199090037717607e-01   2.637757212874238e+00  5.19353530e-01  -9.41628850e-01   8.14378620e-01
C     7.090979403901234e+00   3.528529645337333e+00   7.105125307083487e+00  1.53003090e-01   1.43833698e+00  -7.53690100e-02
C     1.781814558480393e+00   5.378988961542994e+00   3.915034842191200e-02  3.50256420e-01  -1.67547492e+00  -2.04786271e+00
C     7.106311916071443e+00   5.297890460640164e+00   1.769486563298979e+00 -2.76707580e-01   1.04027870e+00   9.95635210e-01
C     1.753501426848028e+00   3.570116689949155e+00   1.762914613334110e+00  1.24039443e+00  -9.25807130e-01   8.48546560e-01
C     8.634013089963326e-01   4.437629937094252e+00   8.936186448801431e-01  9.50762330e-01   4.31569950e-01  -3.96436420e-01
C     2.726319273191163e+00   6.251466304540542e+00   8.873420498751354e-01 -3.71447249e+00  -2.00301940e+00   1.91840892e+00
C     8.798494880967506e-01   6.206232425871983e+00   2.712226043420525e+00 -4.38945730e-01  -1.62676320e-01  -1.77638685e+00
C     2.665892207435745e+00   4.444991846064881e+00   2.687826098440470e+00 -6.67023820e-01   3.45415760e-01  -6.68787520e-01
C     3.569045450660321e+00   3.552483110292626e+00   9.084777361038601e-03 -1.55631154e+00   6.75368350e-01   3.78153600e-02
C     5.311540267007767e+00   5.364688663421435e+00   5.233128323349940e-02  5.65968860e-01  -1.01936605e+00  -2.71655583e+00
C     3.559887954135879e+00   5.342282488817838e+00   1.782038615961375e+00 -1.74066750e-01  -1.98511010e-01   8.24616310e-01
C     5.339814373399948e+00   3.510213870361962e+00   1.774434949537440e+00 -5.36959510e-01   9.34238180e-01   5.04898510e-01
C     4.394223633881294e+00   4.464731153754133e+00   9.050194884992300e-01  2.54260268e+00  -1.26696043e+00  -6.46734000e-03
C     6.248118948328785e+00   6.227386736167971e+00   8.526634679550130e-01 -9.24381400e-01  -4.83544000e-03   1.75431924e+00
C     4.495327226395137e+00   6.209956741735279e+00   2.656357040417504e+00 -1.28760625e+00   2.38010280e-01   4.02709800e-02
C     6.251600085054251e+00   4.406781160029108e+00   2.688394416828939e+00 -1.37925379e+00   6.51903500e-02  -9.80864080e-01
C     4.888888741131200e-03   6.189445743686400e-03   3.542991020315461e+00 -7.36342260e-01   5.41603380e-01   5.38030270e-01
C     1.781430419322008e+00   1.812165674877912e+00   3.530794957457875e+00  5.28947080e-01  -8.68374420e-01   2.46080240e-01
C     1.391096981466140e-02   1.812222755511550e+00   5.330972135418704e+00 -3.01300480e-01  -5.35506200e-01   2.97344200e-01
C     1.765020625703738e+00   2.730451754681300e-02   5.279318284860890e+00  9.12778580e-01  -1.01848216e+00   2.06982891e+00
C     9.027537498733311e-01   9.448555864512933e-01   4.455498734455277e+00 -3.22747160e-01  -1.11672660e+00  -1.51980675e+00
C     2.636075502250798e+00   2.712217015723797e+00   4.446447153427874e+00  1.72778963e+00  -1.83174583e+00   1.02132320e-01
C     8.797479798217370e-01   2.707502994179118e+00   6.242119439637504e+00  8.57290410e-01  -1.50047530e+00  -6.50202680e-01
C     2.661311184478286e+00   8.540294935298983e-01   6.256457838904307e+00 -2.49773370e-01   1.38433887e+00  -1.84381951e+00
C     3.575396968439743e+00   7.053081061955383e+00   3.572757326784032e+00 -2.91347060e-01   1.61351079e+00  -1.43737088e+00
C     5.330139312624544e+00   1.774903821093455e+00   3.623507625742617e+00 -1.46540760e-01  -2.27402850e-01  -3.51641414e+00
C     3.587250831832403e+00   1.749286700908178e+00   5.343362258213816e+00 -2.27971349e+00   8.24897320e-01   6.49401200e-02
C     5.315690448470227e+00   1.502073675409580e-02   5.345921645778147e+00  1.41900512e+00  -7.50626080e-01  -4.00304290e-01
C     4.456731761442943e+00   8.770661141356634e-01   4.437957351040130e+00 -4.63948560e-01  -3.22492310e-01   1.07367110e+00
C     6.220781660953693e+00   2.667773949071712e+00   4.426718792709457e+00 -9.82589860e-01  -3.59491390e-01   1.68561341e+00
C     4.396840030995038e+00   2.693358299428711e+00   6.233261420958044e+00  2.17986985e+00  -1.02578612e+00  -9.31179430e-01
C     6.234711823509429e+00   9.008545926019458e-01   6.200656579168855e+00 -4.36918450e-01   1.17849380e-01   1.30420040e-01
C     7.107848188368077e+00   3.493932525940436e+00   3.569350757411850e+00  1.11514200e-01   1.62747352e+00  -7.82279760e-01
C     1.711410537240901e+00   5.315793520598217e+00   3.578710062054473e+00  2.47608187e+00  -8.03162440e-01  -7.27777800e-02
C     2.137268103887540e-02   5.293567544508037e+00   5.297694623596984e+00 -1.37391782e+00   7.78200170e-01   1.54548417e+00
C     1.777022344286894e+00   3.556224486370210e+00   5.353466170125884e+00  1.39965600e-02   6.89151670e-01   2.30859500e-02
C     8.584082818638183e-01   4.395727491770781e+00   4.471144301557671e+00  1.24483819e+00   4.47882690e-01  -1.13496662e+00
C     2.673393583658179e+00   6.175144734722578e+00   4.443473202656344e+00 -1.35072548e+00   1.96241752e+00  -6.86111020e-01
C     8.852990181299212e-01   6.218000277350940e+00   6.177577521280048e+00  6.08579730e-01   4.07206560e-01   8.94274330e-01
C     2.696085872272231e+00   4.446032448052224e+00   6.217703500706555e+00 -1.18000237e+00   6.34340430e-01   5.91460010e-01
C     3.590679579483159e+00   3.571567590090122e+00   3.581329800126848e+00 -2.07705837e+00   2.13278330e-01  -6.86093060e-01
C     5.342646013550625e+00   5.331563840517592e+00   3.562474922379976e+00  7.71544250e-01  -6.41139920e-01  -6.11728570e-01
C     3.555471348993621e+00   5.362247986514858e+00   5.301686287235018e+00  1.65408930e-01  -1.02149170e+00   2.25639202e+00
C     5.281793295448722e+00   3.559591675081077e+00   5.332222293704883e+00  1.81144171e+00   7.36950930e-01   1.11919560e-01
C     4.448979386817797e+00   4.491458254131524e+00   4.468776414898723e+00  4.31194700e-02  -1.39152549e+00  -1.27210494e+00
C     6.230265718413298e+00   6.178168870957806e+00   4.435595648708860e+00 -1.22357620e-01   1.93401601e+00   2.69479920e-01
C     4.432702378534069e+00   6.259424965590121e+00   6.226336253473187e+00  3.80840700e-02  -1.13578279e+00   2.33125670e-01
C     6.233112854925286e+00   4.434383946989056e+00   6.192094839544195e+00 -1.52588028e+00   5.28336900e-02   1.58846156e+00
