64
Lattice="7.10842262195238 0 0 0 7.10842262195238 0 0 0 7.10842262195238 " PBC="1 1 1" Properties=species:S:1:pos:R:3:force:R:3 Energy="-507.08929133"
C     7.067196754341500e+00   6.077530737957120e-02   7.050098296739804e+00  9.43399100e-01  -2.27098404e+00   3.66027750e+00
C     1.765302119239490e+00   1.780679769893336e+00   7.072785538373797e+00  1.83155147e+00  -7.12587500e-01   2.43771330e+00
C     4.239712045359700e-02   1.843223013062727e+00   1.757700585342341e+00 -1.44224140e+00  -2.20037593e+00   5.67685140e-01
C     1.736604706280288e+00   3.728111760975680e-02   1.820713979583819e+00  1.02686396e+00  -2.16103555e+00  -1.98177811e+00
C     8.915156891322421e-01   9.027197005289814e-01   8.544058845076273e-01 -4.68108380e-01   2.17321740e-01   1.46161269e+00
C     2.631181140024250e+00   2.685093976206473e+00   8.761993841656068e-01  2.08526689e+00  -1.18889714e+00   5.16011300e-02
C     8.855606791665633e-01   2.760008362682581e+00   2.610413954424146e+00 -8.49387170e-01  -2.60333363e+00   2.04319246e+00
C     2.608384428681910e+00   7.979205101792262e-01   2.781375072646456e+00  4.90771450e-01   4.16509124e+00  -3.39090579e+00
C     3.606092345744749e+00   7.061576764333902e+00   1.182798873432280e-02 -1.82827697e+00   4.00252240e-01  -7.89115790e-01
C     5.336217582638454e+00   1.826899800031969e+00   7.056973847434773e+00 -7.47993730e-01  -4.85074420e-01   2.52316472e+00
C     3.588854491975475e+00   1.754714052662774e+00   1.739993717848599e+00 -2.91307356e+00   1.31995787e+00   2.66183841e+00
C     5.249269560761626e+00   1.188311455174090e-01   1.818579391355259e+00  2.54410826e+00  -5.34918171e+00   3.35219320e-01
C     4.403450579694733e+00   8.771583814612709e-01   8.947086504046938e-01  1.08203998e+00   1.80656491e+00  -1.06195269e+00
C     6.248217115645167e+00   2.684426566406681e+00   8.959396870340254e-01 -1.41169594e+00  -4.88084290e-01  -2.50419110e-01
C     4.494571672154858e+00   2.701399560349134e+00   2.683820573378326e+00 -2.22769549e+00  -2.18226447e+00  -1.45917155e+00
C     6.227292976073613e+00   8.483927987291432e-01   2.748052706678003e+00 -1.03666388e+00   3.53869923e+00  -3.47547002e+00
C     1.454966158706840e-02   3.529795939742860e+00   3.698249277549059e-02  8.85868800e-01   7.42580580e-01  -1.78899667e+00
C     1.783807049340779e+00   5.238605505147103e+00   7.061286172017197e+00 -2.72900700e-02   5.82969682e+00   1.06138302e+00
C     6.719378650007400e-03   5.250068618548341e+00   1.686017829957736e+00 -2.85541090e-01   4.63987236e+00   3.07908756e+00
C     1.710788550261650e+00   3.597782670786195e+00   1.753427143831649e+00  3.94223926e+00  -1.08992789e+00  -2.33565000e-03
C     9.774863739830461e-01   4.503398555943242e+00   8.879621175802780e-01 -4.10325451e+00  -3.39511325e+00  -1.54521458e+00
C     2.640711260062432e+00   6.229623827850711e+00   8.586816007135574e-01  1.08525744e+00  -1.26362558e+00   3.08719000e-01
C     9.189542004454421e-01   6.214595556168638e+00   2.669112251798379e+00 -1.73057198e+00  -8.68297100e-01   7.16846700e-02
C     2.659978497405489e+00   4.383713262363814e+00   2.603413864164875e+00  6.62757070e-01   1.53150526e+00   1.32168804e+00
C     3.668847419908216e+00   3.540555461473170e+00   7.093044187419665e+00 -3.84603534e+00   1.41390840e-01  -3.09960850e-01
C     5.430225405524561e+00   5.291303867324698e+00   5.246776494780340e-02 -3.93527601e+00   1.59151560e-01  -1.61029383e+00
C     3.555208266272455e+00   5.248437164472825e+00   1.688375835909243e+00 -6.91015930e-01   2.39640418e+00   2.62052292e+00
C     5.306956685018164e+00   3.561408801155429e+00   1.760729128799591e+00  1.58711604e+00  -1.55353686e+00   5.97982620e-01
C     4.497382697879937e+00   4.393200163192467e+00   8.717054393852428e-01 -8.46904840e-01   1.45300095e+00  -6.00260000e-04
C     6.203665076874317e+00   6.204004575138648e+00   8.430505347933084e-01  1.76940297e+00   2.05583112e+00   2.80957016e+00
C     4.355992120167244e+00   6.178623454584355e+00   2.730339797025035e+00  7.51545400e-02   2.51767146e+00  -3.38873416e+00
C     6.176389490607567e+00   4.416783492581936e+00   2.585917263812233e+00  1.12109937e+00   2.46347670e+00   1.92097563e+00
C     1.068616280887220e-02   3.658811748853300e-02   3.557734812924282e+00 -7.25413870e-01  -4.12084101e+00   1.06983890e-01
C     1.735604977723011e+00   1.818339624260286e+00   3.571420374657663e+00  1.09020674e+00  -5.71668500e-01  -4.62029050e-01
C     7.107547786428157e+00   1.758864518462139e+00   5.319272453712672e+00 -9.58677990e-01   9.44045160e-01   4.08647130e-01
C     1.788621797233983e+00   1.089304634080468e-01   5.393725361392290e+00 -2.75509745e+00  -5.34491118e+00  -3.67592066e+00
C     8.314006831298427e-01   8.873542052778156e-01   4.402230987625820e+00  2.10316605e+00   1.77253236e+00   2.46772177e+00
C     2.700300171706725e+00   2.650543488061963e+00   4.489083187965730e+00 -1.51098287e+00   5.18704820e-01  -2.23961756e+00
C     9.031285769980837e-01   2.565652572607137e+00   6.262452656036658e+00 -1.89453025e+00   4.25730030e+00  -2.75273263e+00
C     2.635403756313208e+00   9.527726632285446e-01   6.179132773065078e+00  3.04763751e+00  -2.11826957e+00   2.68342394e+00
C     3.463469096465521e+00   7.070540272005044e+00   3.610243735639055e+00  2.58226773e+00  -6.08862040e-01   6.74275640e-01
C     5.331013364269900e+00   1.802133202613174e+00   3.583331389768187e+00  1.53239590e+00   6.10940310e-01  -6.90812710e-01
C     3.565540927224434e+00   1.743593209810689e+00   5.354035554777746e+00  1.27189951e+00   2.93881429e+00  -1.53041725e+00
C     5.412881209752892e+00   1.472438661506800e-03   5.385731869071874e+00 -3.78207757e+00  -5.15929340e-01  -1.26520403e+00
C     4.512082133931608e+00   9.606020931548911e-01   4.456259477844070e+00 -3.19476643e+00  -3.86256150e+00   1.49081953e+00
C     6.253230899371731e+00   2.721355674928295e+00   4.399697332551372e+00 -5.40935310e-01  -1.64031027e+00   1.88300357e+00
C     4.498200592986594e+00   2.718142738988282e+00   6.146782554974136e+00 -7.47776360e-01  -1.99241965e+00   1.96614839e+00
C     6.140538374376276e+00   9.001042275101786e-01   6.293278472896739e+00  3.48940011e+00   6.22235140e-01  -3.77144496e+00
C     7.052509047187152e+00   3.587411197846710e+00   3.510651607026902e+00  2.32322563e+00   1.63622500e-02   5.88059520e-01
C     1.854905776722924e+00   5.297651048966323e+00   3.560173499472525e+00 -3.54427365e+00  -1.87185900e-01   4.40594400e-02
C     7.061211746832365e+00   5.346838419043449e+00   5.363858826164776e+00  1.73850865e+00  -3.47179800e-01  -1.66078494e+00
C     1.783614624340455e+00   3.542315649082334e+00   5.336706073440901e+00  5.75289050e-01  -1.63314605e+00   1.72052289e+00
C     8.996185089925539e-01   4.397040133091791e+00   4.509942356554536e+00 -1.28550428e+00   1.96298351e+00  -2.88916182e+00
C     2.619848892683446e+00   6.126837742786940e+00   4.511027883772837e+00  2.25063992e+00   4.03876370e+00   2.66099600e-02
C     8.255525127561425e-01   6.264242130347016e+00   6.190864940262483e+00  1.73132162e+00  -2.15514050e-01   7.57486350e-01
C     2.680735304708568e+00   4.418003013566623e+00   6.261551734553799e+00  1.26162796e+00  -8.02805360e-01  -2.21142436e+00
C     3.546952970746944e+00   3.559622952140606e+00   3.517699394801953e+00  4.09719640e-01  -1.59072214e+00   8.18808980e-01
C     5.257703348779126e+00   5.385036665339638e+00   3.535085174845949e+00  1.97543067e+00  -2.10871862e+00   5.19516550e-01
C     3.568421260070059e+00   5.291494515219367e+00   5.333603815641080e+00  2.55945000e-02  -7.25157000e-02   1.36234780e+00
C     5.402620841458957e+00   3.590755710689419e+00   5.312467702906998e+00 -2.26262057e+00  -4.09421500e-02  -9.96548060e-01
C     4.414918526823353e+00   4.431036732945750e+00   4.400635217831856e+00  1.04003427e+00   7.67928100e-01   8.57969810e-01
C     6.175594911127104e+00   6.208682130475286e+00   4.461378324056958e+00  1.91208614e+00   7.30467630e-01  -8.41913830e-01
C     4.538777175322982e+00   6.116351397737916e+00   6.263230104218607e+00 -2.74878348e+00   3.04873385e+00  -1.34479538e+00
C     6.207116713645910e+00   4.469367977829160e+00   6.248553983793129e+00  2.85093685e+00  -2.02340280e+00  -5.40167370e-01
