64
Lattice="7.10842262195238 0 0 0 7.10842262195238 0 0 0 7.10842262195238 " PBC="1 1 1" Properties=species:S:1:pos:R:3:force:R:3 Energy="-505.35651926"
C     7.081333487658573e+00   2.310038315666640e-02   2.137644850286400e-03  1.62388373e+00  -1.23613604e+00  -7.20742440e-01
C     1.729295755058178e+00   1.780387613723654e+00   4.344497303201120e-02  9.72395400e-01  -1.73676097e+00  -2.07886227e+00
C     7.092903867157147e+00   1.745542907966902e+00   1.702390588694156e+00  2.86998600e-02   1.68340976e+00   3.12964341e+00
C     1.742753562930814e+00   1.965699215531220e-02   1.797627315682809e+00  2.10147737e+00  -1.48259391e+00  -1.10824938e+00
C     8.985500419885418e-01   8.896418378453839e-01   9.157201524902469e-01 -1.63732361e+00  -5.58006750e-01  -1.05714360e+00
C     2.650046324983920e+00   2.594239662847277e+00   8.495445053620356e-01  9.98283640e-01   3.62390458e+00   3.87516960e-01
C     9.791655255743426e-01   2.768525248160508e+00   2.614404480714561e+00 -2.90963761e+00  -5.13263300e+00   4.87187130e-01
C     2.727859099699107e+00   8.349855317413351e-01   2.595760367698373e+00 -2.47461756e+00   9.84070860e-01   2.58121183e+00
C     3.607645820424124e+00   9.060260411422219e-02   7.062807800963234e+00 -1.58412385e+00  -2.84320551e+00   2.48887708e+00
C     5.324280195280010e+00   1.838340024312371e+00   5.111005622738340e-02  1.34714391e+00  -1.92614773e+00  -2.55598402e+00
C     3.589949331227408e+00   1.750154639310080e+00   1.707864927122271e+00 -9.53446210e-01   2.74346280e-01   2.32893347e+00
C     5.319674932601416e+00   7.007495956125169e+00   1.755167712194382e+00  9.99249240e-01   5.49604935e+00   5.60273200e-02
C     4.541767759803442e+00   9.336886810206305e-01   8.698137459576084e-01 -3.10488097e+00  -2.47742779e+00  -2.33675100e-01
C     6.145862227497525e+00   2.637320044883108e+00   9.506997761083265e-01  3.07090864e+00   2.42334431e+00  -1.90633089e+00
C     4.349686309545267e+00   2.664253431684931e+00   2.676710302568445e+00  2.25748802e+00   1.48485488e+00   4.91725560e-01
C     6.190156941369531e+00   9.290213618125649e-01   2.581949342305749e+00  5.69155910e-01  -3.06808101e+00   3.00839196e+00
C     3.922072180585000e-03   3.472041001134526e+00   7.103101752416252e+00 -1.32303202e+00   4.11713035e+00   6.94381650e-01
C     1.783732268734816e+00   5.323854756186202e+00   4.542175427840700e-02  6.19702050e-01   1.02670896e+00  -3.38773298e+00
C     9.062691491958259e-02   5.277517721411244e+00   1.773975816520414e+00 -2.68526864e+00   1.61598987e+00   1.34033095e+00
C     1.719658368922660e+00   3.591698216444606e+00   1.677909181190876e+00  4.11994206e+00  -1.19088733e+00   3.38866370e+00
C     9.149122802594839e-01   4.452724672527823e+00   8.616157443184148e-01 -1.44344799e+00  -1.00842740e+00  -5.66590800e-01
C     2.688811610152507e+00   6.257955512466115e+00   8.185222117007364e-01 -2.56199140e-01  -2.91712140e-01   3.08559927e+00
C     9.273275668706712e-01   6.180947126854607e+00   2.716756241156251e+00 -4.91250620e-01   2.70496089e+00  -1.77819551e+00
C     2.539276486138722e+00   4.430260493195646e+00   2.733559414882312e+00  4.50947238e+00   1.67814872e+00  -2.13546589e+00
C     3.581216136449153e+00   3.545046278547582e+00   7.054117469973378e+00 -7.96830830e-01   2.99016900e-02   1.71918538e+00
C     5.321935055573445e+00   5.281040229156360e+00   1.391650727588238e-01  2.35983850e+00   3.17823869e+00  -6.23780569e+00
C     3.595279866265919e+00   5.365960075891248e+00   1.782959227774891e+00 -3.88266212e+00  -1.20949279e+00  -9.68503060e-01
C     5.337447695172845e+00   3.593499490736514e+00   1.841777017733367e+00 -1.20178745e+00  -2.02811816e+00  -5.98441310e-01
C     4.468554276691848e+00   4.498825138997987e+00   9.304411270624573e-01 -1.59501961e+00  -4.04029137e+00   1.00554432e+00
C     6.244251611002373e+00   6.214333468626640e+00   9.033868970760947e-01  3.36687000e-02  -1.32268554e+00   4.49033580e-01
C     4.394054453422938e+00   6.243311379942426e+00   2.602641462962985e+00  1.64371377e+00  -1.72965935e+00   3.35177400e+00
C     6.252772903702325e+00   4.391893635114910e+00   2.723647217128305e+00 -3.96694630e-01   1.37336847e+00  -2.94131025e+00
C     7.103593655261555e+00   7.074751088312452e+00   3.553416588351084e+00 -4.52565070e-01   2.11384863e+00  -1.23785659e+00
C     1.847584812266586e+00   1.792621280136900e+00   3.511913423126178e+00 -1.12167789e+00   8.11626170e-01   3.10279870e-01
C     7.027823059280868e+00   1.959620945517311e+00   5.321876126749925e+00  1.90280107e+00  -7.27964487e+00  -4.06641180e-01
C     1.745531036901127e+00   2.955148993699500e-02   5.247865078620366e+00 -1.20379160e-01   1.53386060e-01   5.01190336e+00
C     7.731805693452568e-01   9.793879481181222e-01   4.463828952755203e+00  3.74267089e+00  -1.65074462e+00  -2.31718608e+00
C     2.719952187966203e+00   2.688885751000433e+00   4.463223030811074e+00 -1.84554533e+00  -2.05392611e+00   1.95725234e+00
C     8.466835785101642e-01   2.642559378859405e+00   6.215771857943796e+00  1.02691189e+00   1.24390970e+00   1.58900183e+00
C     2.656447104132099e+00   8.975601941387068e-01   6.317052023675521e+00 -7.85856900e-02   9.18336110e-01  -4.70746596e+00
C     3.472364434363737e+00   6.997216892679743e+00   3.572741332833137e+00  3.28163517e+00   4.02378819e+00  -1.31086913e+00
C     5.316108636972962e+00   1.793731829002823e+00   3.536159541840736e+00 -1.47035697e+00  -1.08530609e+00  -3.77606080e-01
C     3.662313073499007e+00   1.732796013440492e+00   5.379537518516580e+00 -5.10014709e+00   1.69234191e+00  -5.50589180e-01
C     5.323986972846934e+00   7.100286461637601e+00   5.296588624121537e+00  1.63323199e+00  -1.44269997e+00   1.39161306e+00
C     4.385234180467590e+00   8.379105054810125e-01   4.503301952479837e+00  2.51833679e+00  -4.65208050e-01  -3.21871817e+00
C     6.173639952738151e+00   2.709017941207893e+00   4.398400258675902e+00  1.35872994e+00  -9.16760720e-01   1.12865150e-01
C     4.481069507725072e+00   2.656767338571130e+00   6.178567226961431e+00 -2.73132130e-01  -1.98274770e-01   2.71538187e+00
C     6.274800981306765e+00   9.059991713047184e-01   6.192722797598447e+00 -3.06099176e+00   1.09650754e+00   5.46545770e-01
C     6.657080434165720e-02   3.507889487249448e+00   3.527585504644945e+00 -1.90905222e+00   2.46857935e+00   5.93221900e-01
C     1.790153306887462e+00   5.395390438306799e+00   3.621263212384579e+00 -1.23424599e+00  -3.88953296e+00  -1.17947058e+00
C     7.100886341422502e+00   5.280102272791650e+00   5.239013741858169e+00 -4.19204560e-01   1.12239779e+00   3.56030444e+00
C     1.752257168552623e+00   3.516725256566108e+00   5.429622966707516e+00  1.32305366e+00   1.53556173e+00  -3.96448245e+00
C     8.594051670520472e-01   4.466866594993408e+00   4.403419586972110e+00  2.12170603e+00  -2.51204552e+00   2.12687876e+00
C     2.670977359725415e+00   6.180021468061030e+00   4.495022061812061e+00 -3.90784670e-01   1.55587969e+00  -5.56951870e-01
C     8.624987525762712e-01   6.190971566601783e+00   6.237634877974998e+00  4.36816220e-01   9.75627300e-01  -1.88924455e+00
C     2.661057484874979e+00   4.431048461843073e+00   6.213249576345541e+00  6.83290620e-01   2.21834480e-01   1.53713467e+00
C     3.497034499403351e+00   3.615661775360019e+00   3.652364693873865e+00  8.19414050e-01  -9.36558910e-01  -3.08107794e+00
C     5.312851770981156e+00   5.341579323652268e+00   3.505514207830976e+00  1.32776716e+00  -1.43292021e+00   7.84504950e-01
C     3.636185070980031e+00   5.362381553775888e+00   5.402997161352460e+00 -3.98587157e+00  -2.01939877e+00  -2.03848802e+00
C     5.342032769931198e+00   3.480962142606852e+00   5.348109262839452e+00 -1.02294690e-01   5.18030399e+00  -1.98799312e+00
C     4.472410382710520e+00   4.487053377886588e+00   4.465719295582540e+00 -9.43392600e-01  -9.22770980e-01   7.52317200e-02
C     6.284751706711371e+00   6.110168420658814e+00   4.337538441793044e+00 -3.52768635e+00   4.44641131e+00   2.34621262e+00
C     4.396921564602489e+00   6.212779567441907e+00   6.259997406863709e+00  4.03081413e+00   1.69280167e+00   4.89748890e-01
C     6.226928171824755e+00   4.463391500427169e+00   6.182931371944753e+00 -6.92116500e-01  -2.84857049e+00   1.92758476e+00
