64
Lattice="7.10842262195238 0 0 0 7.10842262195238 0 0 0 7.10842262195238 " PBC="1 1 1" Properties=species:S:1:pos:R:3:force:R:3 Energy="-511.91976657"
C     3.584208853456400e-03   1.851289153462320e-02   7.077621753703314e+00 -3.64595480e-01  -5.33690790e-01  -4.23122600e-02
C     1.741492813094931e+00   1.803782783166372e+00   7.089965316330265e+00  2.35873437e+00   1.53141400e-02  -1.73325800e-02
C     7.105450304165673e+00   1.771488366192997e+00   1.730714596213130e+00 -2.77016100e-02  -8.96033550e-01   4.50077340e-01
C     1.801514414424104e+00   7.085986447852946e+00   1.724210034094699e+00 -4.07876520e-01   1.18036349e+00   5.62582760e-01
C     9.181397173816425e-01   8.923891721037879e-01   8.086771174562626e-01 -1.16363133e+00  -3.47981010e-01   2.14931542e+00
C     2.634380498877059e+00   2.714049211654102e+00   9.504851017452024e-01  1.34878350e-01  -1.76722391e+00  -1.61691321e+00
C     7.912481182027370e-01   2.649575249816893e+00   2.712517915253302e+00  2.10457861e+00  -3.46277440e-01  -1.17524445e+00
C     2.661700583869410e+00   9.244426846345705e-01   2.607960837777984e+00 -4.46389560e-01  -1.68856872e+00   1.67067963e+00
C     3.562459212765986e+00   1.508705833714040e-02   7.099018247957966e+00 -9.37119940e-01  -4.83466230e-01   2.80019500e-01
C     5.281733371446036e+00   1.784706762391792e+00   7.095657812248588e+00  1.41307753e+00  -8.04346250e-01   5.40292600e-02
C     3.544211749731994e+00   1.766294526121468e+00   1.784603832432255e+00  7.08578390e-01   9.39244100e-01  -1.38370931e+00
C     5.364561920246120e+00   7.049387312309352e+00   1.755189250714921e+00 -1.09781491e+00   2.58501984e+00  -4.90691200e-02
C     4.435736395476737e+00   8.651883664430006e-01   8.548651596931056e-01  1.44622270e-01   5.78452050e-01   1.36509394e+00
C     6.231039256962807e+00   2.620253930604333e+00   8.305611073341945e-01 -3.98678800e-02   1.24835956e+00   1.00300466e+00
C     4.491117547435347e+00   2.614935550968501e+00   2.634927349829216e+00 -8.90296470e-01   1.51688986e+00   9.93805610e-01
C     6.246178135700846e+00   8.694982741617328e-01   2.602794720554673e+00 -1.31911700e-02  -7.79550280e-01   1.75356662e+00
C     4.656308261427420e-02   3.518762459404774e+00   7.095288956198835e+00 -2.32165404e+00   1.86252030e+00   6.98397210e-01
C     1.795769600515298e+00   5.250299215778133e+00   6.704742407832820e-02 -5.67649680e-01   3.18578514e+00  -9.61303890e-01
C     7.105629436415697e+00   5.344991224341416e+00   1.814980681319658e+00 -4.19523500e-01  -1.42091983e+00  -1.42608154e+00
C     1.711934001482637e+00   3.528998090387991e+00   1.847892606966032e+00  1.32025987e+00   1.04861652e+00   2.31556930e-01
C     8.712886725670322e-01   4.415963464948493e+00   9.569876735052999e-01  2.59694450e-01   3.63094000e-02  -1.19936495e+00
C     2.710851274485817e+00   6.220973090774850e+00   9.026581415890921e-01 -5.59698450e-01  -1.02319820e+00  -1.37328710e-01
C     8.990409496546788e-01   6.202368287335750e+00   2.626051915514336e+00  5.70061900e-01   1.01647143e+00   1.23751230e+00
C     2.651435879437678e+00   4.439629749629938e+00   2.746291594973898e+00  2.98129120e-01   8.70320440e-01  -2.59026798e+00
C     3.529703601333026e+00   3.562409738144551e+00   2.002940241637400e-02  1.86328710e-01   2.07417490e-01   2.83481960e-01
C     5.291452717694361e+00   5.276316966662274e+00   7.089561202504318e+00  1.14023398e+00   1.71243808e+00   7.52742270e-01
C     3.616566606475319e+00   5.354017570468518e+00   1.835215161728619e+00 -1.89260300e+00  -1.51811525e+00  -1.45918997e+00
C     5.383641353063558e+00   3.515183795120961e+00   1.752515346462182e+00 -7.66016580e-01   2.65598450e-01   6.31890470e-01
C     4.465386479235471e+00   4.399307364486440e+00   9.150762715693275e-01 -5.91498090e-01   1.05672587e+00  -3.18733800e-01
C     6.188975095024730e+00   6.225442938002532e+00   8.767370652525835e-01  1.78354886e+00  -1.56246296e+00  -7.70751910e-01
C     4.490905361020141e+00   6.230271334067167e+00   2.658649293459775e+00 -1.49942940e-01   2.50296040e-01   1.09764748e+00
C     6.240065460921455e+00   4.415555654742783e+00   2.707325425782070e+00 -1.37488996e+00   8.69324360e-01  -8.49871170e-01
C     3.392999393401020e-02   7.056188437819490e+00   3.545668549863736e+00 -1.53024791e+00   1.40740902e+00   2.61436740e-01
C     1.727688540703796e+00   1.746578676226862e+00   3.524945507568103e+00  4.22028210e-01   6.57056390e-01   1.05720636e+00
C     7.080549997317396e+00   1.798478478207328e+00   5.360721808178345e+00  1.62831559e+00  -7.55445190e-01  -1.04241256e+00
C     1.878592249324609e+00   7.091128254270896e+00   5.317742792249074e+00 -2.84812957e+00   1.12107440e-01   4.93605240e-01
C     8.653354397070084e-01   8.221454457943767e-01   4.466363460840364e+00  1.69180820e+00   1.63553728e+00  -6.91971460e-01
C     2.619618153285201e+00   2.703955606954833e+00   4.392202638246202e+00  9.30743810e-01  -7.02986670e-01   1.80043272e+00
C     9.120822039617834e-01   2.718765294641341e+00   6.206693122741984e+00 -1.23611176e+00  -2.40675393e+00   3.21669840e-01
C     2.678993314661310e+00   9.096603643751494e-01   6.217242092994290e+00  1.13463960e-01   6.04670640e-01  -2.58971530e-01
C     3.604562186691567e+00   6.546594221383059e-02   3.502755002506796e+00 -9.32821330e-01  -9.36873380e-01   1.35185904e+00
C     5.382191021596399e+00   1.758847671500530e+00   3.541126836483366e+00 -4.46749970e-01   3.60462100e-01   4.60927080e-01
C     3.564411185617438e+00   1.861929538029519e+00   5.343394317199833e+00 -1.51852427e+00  -2.29804228e+00  -1.01246601e+00
C     5.296779769605790e+00   7.105082727631993e+00   5.332920411890393e+00  8.12259370e-01   1.30888307e+00   1.12881291e+00
C     4.466494753406155e+00   9.539785360418014e-01   4.497253680009384e+00 -5.80902150e-01  -1.36096385e+00  -2.83217562e+00
C     6.252167834768911e+00   2.672570072897652e+00   4.474564661269737e+00 -2.32046812e+00  -8.46147030e-01  -4.49340410e-01
C     4.424078582379937e+00   2.660847217733879e+00   6.231822320798625e+00 -5.05235800e-01   1.67462778e+00   4.26096590e-01
C     6.195982578043526e+00   9.432306010403613e-01   6.199989098284836e+00 -1.35761560e-01  -2.11864737e+00   9.11332490e-01
C     7.058840874635917e+00   3.542163244501362e+00   3.619992795093932e+00  1.37012796e+00   9.07188400e-01  -1.94368232e+00
C     1.769871057878495e+00   5.373937289923864e+00   3.567714185272047e+00  3.02791390e-01  -1.55711224e+00  -8.23316670e-01
C     7.108082553061859e+00   5.368634690986250e+00   5.349086742033928e+00 -6.48291900e-01  -1.41695366e+00  -3.25976160e-01
C     1.712993511874148e+00   3.576676555595570e+00   5.340958260767958e+00  2.24860205e+00   1.13322420e+00  -1.84187107e+00
C     8.286515717657840e-01   4.479109928861417e+00   4.406337167952262e+00  1.50876079e+00  -1.68134600e-02   2.35222049e+00
C     2.727313954768380e+00   6.218265705851571e+00   4.393991970388108e+00 -1.16120847e+00   1.45748667e+00   3.43669740e-01
C     9.050654799935814e-01   6.188809966367267e+00   6.219887279219646e+00  8.51478150e-01   7.80461500e-01   8.75420890e-01
C     2.645661636659225e+00   4.479777125408530e+00   6.233447874883367e+00  5.65332540e-01  -1.96559408e+00  -9.80015170e-01
C     3.563651437407812e+00   3.584695353900512e+00   3.545079901386574e+00 -3.14010100e-02  -1.48483305e+00   2.47796300e-01
C     5.330036027243876e+00   5.331415416653287e+00   3.588008305346790e+00  9.34345560e-01   7.11404900e-02  -4.95418020e-01
C     3.557629537185279e+00   5.333527400097915e+00   5.265112031170594e+00 -2.64056190e-01   3.87831580e-01   2.74156387e+00
C     5.303690435908501e+00   3.520182722244250e+00   5.339701065143386e+00  1.14166440e+00   1.59020380e+00  -2.24628520e-01
C     4.456488795557791e+00   4.463850633444194e+00   4.433790820205643e+00 -6.13274400e-01  -1.67072286e+00   4.98107280e-01
C     6.202189794843762e+00   6.226270571648179e+00   4.514292071439940e+00  3.06146070e-01  -2.12702400e-02  -2.80516619e+00
C     4.395350461035017e+00   6.233617197510175e+00   6.244391575843761e+00  1.43011899e+00  -1.18892370e+00  -1.85238419e+00
C     6.215213775683901e+00   4.442089974698718e+00   6.197092700404092e+00  1.29008670e-01  -6.08711800e-01   1.07301561e+00
